Protein in water
79166
    1DC     O5'    1   3.006   4.388   3.328 -0.1952 -0.2846  0.4633
    1DC     H5T    2   3.033   4.347   3.410  1.7188 -0.8191 -0.3675
    1DC     C5'    3   2.889   4.317   3.292  0.0661 -0.2300 -0.5092
    1DC    H5'1    4   2.847   4.380   3.213 -1.7062 -0.0194  0.5624
    1DC    H5'2    5   2.819   4.321   3.374 -0.5342 -0.6655 -0.9936
    1DC     C4'    6   2.899   4.176   3.236 -0.3352 -0.4070 -0.1409
    1DC     H4'    7   2.798   4.148   3.207 -0.9040  1.5616 -0.1471
    1DC     O4'    8   2.987   4.169   3.125 -0.1334 -0.2318  0.0078
    1DC     C1'    9   3.055   4.046   3.130  0.3301  0.0261  0.1100
    1DC     H1'   10   3.017   3.987   3.047 -0.2783  1.7768 -0.8940
    1DC      N1   11   3.200   4.064   3.116  0.3193  0.1253  0.1297
    1DC      C6   12   3.263   4.177   3.158 -0.1547  0.4247  0.0351
    1DC      H6   13   3.202   4.255   3.200 -0.4400  0.6990 -0.8548
    1DC      C5   14   3.398   4.185   3.166 -0.1212 -0.2384  0.1243
    1DC      H5   15   3.443   4.270   3.214 -0.0577 -1.4830  2.4125
    1DC      C4   16   3.472   4.074   3.113  0.1580 -0.0473  0.1138
    1DC      N4   17   3.605   4.074   3.101  0.1634  0.1106  0.1738
    1DC     H41   18   3.651   4.151   3.146 -2.9398  0.6931  2.6375
    1DC     H42   19   3.639   3.984   3.068  0.8336  0.0374  1.0124
    1DC      N3   20   3.405   3.965   3.073  0.1347  0.1545 -0.4057
    1DC      C2   21   3.270   3.951   3.077  0.1292  0.2030 -0.4480
    1DC      O2   22   3.221   3.847   3.035 -0.1503 -0.0427  0.4783
    1DC     C3'   23   2.957   4.087   3.346  0.2413  0.1309 -0.0054
    1DC     H3'   24   3.040   4.135   3.398 -0.9002  0.1457  1.8742
    1DC     C2'   25   3.017   3.976   3.260 -0.0121 -0.0042 -0.0059
    1DC    H2'1   26   3.101   3.924   3.307  1.0128  1.0181 -0.6765
    1DC    H2'2   27   2.942   3.903   3.230  0.7442 -0.1204 -1.7107
    1DC     O3'   28   2.856   4.034   3.429  0.4497 -0.2269  0.0193
    2DG       P   29   2.891   3.986   3.578  0.1125  0.0162  0.1763
    2DG     O1P   30   2.763   3.954   3.647 -0.1661  0.5403 -0.0913
    2DG     O2P   31   2.963   4.100   3.637 -0.2099  0.3156 -0.0054
    2DG     O5'   32   2.991   3.860   3.586  0.3953  0.2330  0.0471
    2DG     C5'   33   2.936   3.734   3.555 -0.2357  0.3674  0.5934
    2DG    H5'1   34   2.875   3.735   3.465  0.0982 -0.4555  0.3477
    2DG    H5'2   35   2.874   3.700   3.638 -1.6913 -0.1422 -0.6744
    2DG     C4'   36   3.045   3.630   3.529 -0.1642  0.5694  0.0866
    2DG     H4'   37   2.988   3.542   3.500 -2.2978  2.0654 -0.4912
    2DG     O4'   38   3.117   3.659   3.411  0.4115  0.2202  0.3487
    2DG     C1'   39   3.236   3.584   3.412  0.2081 -0.1173 -0.2700
    2DG     H1'   40   3.238   3.499   3.344  0.6322 -1.4838  1.3700
    2DG      N9   41   3.347   3.681   3.403  0.0899  0.0149 -0.2948
    2DG      C8   42   3.347   3.816   3.424  0.4128 -0.0370  0.0326
    2DG      H8   43   3.262   3.859   3.475  0.1519  0.6329 -0.9448
    2DG      N7   44   3.462   3.871   3.395  0.2579  0.3690  0.1756
    2DG      C5   45   3.541   3.769   3.342 -0.1387  0.1819 -0.0628
    2DG      C6   46   3.676   3.766   3.300 -0.2236  0.3024 -0.3427
    2DG      O6   47   3.756   3.855   3.270  0.6290 -0.0943  0.6927
    2DG      N1   48   3.723   3.636   3.281 -0.0733  0.2380  0.4299
    2DG      H1   49   3.822   3.630   3.261 -0.5223  0.7710 -2.5680
    2DG      C2   50   3.643   3.524   3.281  0.1845  0.0475 -0.3189
    2DG      N2   51   3.706   3.405   3.274 -0.3198 -0.2625  0.3089
    2DG     H21   52   3.791   3.405   3.220  0.0632 -1.3141  0.9048
    2DG     H22   53   3.653   3.320   3.280 -0.3568 -0.1778  1.2845
    2DG      N3   54   3.517   3.527   3.326  0.2712  0.0363 -0.0766
    2DG      C4   55   3.473   3.651   3.357  0.1367  0.0096 -0.1626
    2DG     C3'   56   3.139   3.598   3.645  0.0002 -0.1986 -0.2558
    2DG     H3'   57   3.177   3.688   3.692  0.5138 -1.5700  2.1013
    2DG     C2'   58   3.241   3.529   3.554  0.0421 -0.1227 -0.2668
    2DG    H2'1   59   3.338   3.531   3.603  0.0494  0.3342 -0.2959
    2DG    H2'2   60   3.220   3.422   3.546  0.8897 -0.2756 -0.5379
    2DG     O3'   61   3.091   3.510   3.744  0.2506 -0.0865 -0.0362
    3DA       P   62   3.167   3.482   3.884  0.0384 -0.2599  0.0448
    3DA     O1P   63   3.079   3.386   3.954  0.0956 -0.2888  0.0764
    3DA     O2P   64   3.191   3.616   3.943  0.8020 -0.1704 -0.4546
    3DA     O5'   65   3.310   3.419   3.846  0.3034  0.1757  0.3065
    3DA     C5'   66   3.311   3.280   3.821  0.1363  0.1704  0.3246
    3DA    H5'1   67   3.260   3.258   3.728 -1.5457 -2.5606  1.7771
    3DA    H5'2   68   3.272   3.223   3.905  1.3002 -0.4470  0.4726
    3DA     C4'   69   3.445   3.214   3.788 -0.3315 -0.4455 -0.3789
    3DA     H4'   70   3.417   3.110   3.770  2.8118 -0.9749 -2.9822
    3DA     O4'   71   3.496   3.260   3.665 -0.1315  0.0425 -0.1163
    3DA     C1'   72   3.635   3.281   3.668 -0.1128 -0.0577 -0.2845
    3DA     H1'   73   3.685   3.232   3.584 -3.1230  0.4494 -2.5486
    3DA      N9   74   3.668   3.425   3.655 -0.0931 -0.0952 -0.6590
    3DA      C8   75   3.596   3.536   3.690 -0.1189 -0.0184 -0.9532
    3DA      H8   76   3.503   3.534   3.745  1.8632  0.9754  2.7242
    3DA      N7   77   3.648   3.651   3.660 -0.4202  0.0962 -1.0394
    3DA      C5   78   3.769   3.615   3.602 -0.2470 -0.0094 -0.6207
    3DA      C6   79   3.885   3.683   3.561  0.0442  0.0423  0.2750
    3DA      N6   80   3.906   3.814   3.575 -0.2929  0.0799  0.4287
    3DA     H61   81   3.827   3.872   3.600 -1.7131 -1.2745 -0.7154
    3DA     H62   82   3.994   3.849   3.538 -0.0429 -0.4899  0.4697
    3DA      N1   83   3.993   3.616   3.517 -0.0695 -0.2120  0.3805
    3DA      C2   84   3.985   3.484   3.517 -0.0730 -0.2153 -0.3357
    3DA      H2   85   4.074   3.435   3.479 -0.6501 -1.0730 -0.6080
    3DA      N3   86   3.885   3.406   3.553 -0.1093 -0.1347 -0.2606
    3DA      C4   87   3.779   3.479   3.594 -0.2535  0.0029 -0.8648
    3DA     C3'   88   3.554   3.234   3.893 -0.5493 -0.6290 -0.1163
    3DA     H3'   89   3.544   3.332   3.940 -0.5707 -0.4817 -0.4282
    3DA     C2'   90   3.677   3.226   3.804 -0.4753  0.1431 -0.0902
    3DA    H2'1   91   3.757   3.282   3.853 -1.0369 -1.2099  2.5438
    3DA    H2'2   92   3.710   3.124   3.787  2.8455  0.9818  0.6511
    3DA     O3'   93   3.546   3.136   3.994  0.4909 -0.3079  0.2928
    4DC       P   94   3.624   3.148   4.134  0.0940  0.1721  0.4732
    4DC     O1P   95   3.593   3.027   4.212 -0.6039  0.1930  0.2339
    4DC     O2P   96   3.579   3.276   4.194 -0.2050  0.2199  0.1506
    4DC     O5'   97   3.783   3.163   4.111  0.1664 -0.2898  0.6724
    4DC     C5'   98   3.862   3.052   4.073 -0.1875 -0.2015 -0.3537
    4DC    H5'1   99   3.816   3.006   3.986  0.9595  1.3736 -1.8458
    4DC    H5'2  100   3.853   2.979   4.153 -0.5479  2.0843  1.8285
    4DC     C4'  101   4.003   3.089   4.031 -0.1657  0.4559  0.2584
    4DC     H4'  102   4.057   2.997   4.006  0.2928  0.8666 -0.3020
    4DC     O4'  103   3.995   3.172   3.917  0.2723 -0.0567 -0.1567
    4DC     C1'  104   4.107   3.257   3.909  0.0285  0.2597 -0.2429
    4DC     H1'  105   4.172   3.221   3.829  1.0903  1.7730 -0.1040
    4DC      N1  106   4.070   3.399   3.899  0.1109  0.3049  0.0907
    4DC      C6  107   3.949   3.443   3.943  0.0443 -0.0631  0.2790
    4DC      H6  108   3.891   3.369   3.997  0.0802  1.0233  1.8748
    4DC      C5  109   3.911   3.570   3.919 -0.2951 -0.2362 -0.1232
    4DC      H5  110   3.816   3.608   3.954 -0.5898 -0.5919 -0.5264
    4DC      C4  111   4.005   3.658   3.856 -0.1653 -0.2638  0.0315
    4DC      N4  112   3.978   3.789   3.849  0.1648 -0.2126 -0.3400
    4DC     H41  113   3.885   3.822   3.872 -0.4403 -0.7178 -1.9741
    4DC     H42  114   4.035   3.841   3.785 -1.3802  0.1971 -1.4522
    4DC      N3  115   4.126   3.617   3.817 -0.1653  0.2586 -0.5303
    4DC      C2  116   4.162   3.491   3.851 -0.1799  0.2327 -0.6110
    4DC      O2  117   4.279   3.458   3.831 -0.1029 -0.1028  0.3378
    4DC     C3'  118   4.080   3.172   4.133  0.6609 -0.0212  0.0429
    4DC     H3'  119   4.018   3.256   4.165  0.7307  0.1551 -0.2780
    4DC     C2'  120   4.183   3.234   4.040  0.1679  0.2530 -0.3251
    4DC    H2'1  121   4.224   3.324   4.086 -2.0439  0.7955  0.7294
    4DC    H2'2  122   4.264   3.163   4.027  0.1323 -0.2983  2.1124
    4DC     O3'  123   4.138   3.097   4.237  0.3285  0.2716  0.4441
    5DT       P  124   4.180   3.156   4.381  0.1091 -0.0383  0.6344
    5DT     O1P  125   4.226   3.042   4.464 -0.4804 -0.4003  0.4762
    5DT     O2P  126   4.066   3.238   4.427 -0.0326  0.2313 -0.1792
    5DT     O5'  127   4.304   3.254   4.353  0.1365 -0.1194  0.4704
    5DT     C5'  128   4.424   3.201   4.301  0.0124 -0.0507  0.1117
    5DT    H5'1  129   4.416   3.128   4.220  0.8569  3.0450 -3.0040
    5DT    H5'2  130   4.472   3.139   4.377  1.7600  1.1074  0.0075
    5DT     C4'  131   4.521   3.307   4.249 -0.4853  0.3097 -0.0829
    5DT     H4'  132   4.609   3.251   4.219  0.5255 -0.0196  3.1082
    5DT     O4'  133   4.472   3.375   4.136 -0.2268  0.1614 -0.2860
    5DT     C1'  134   4.533   3.502   4.136 -0.2943  0.1942  0.1420
    5DT     H1'  135   4.597   3.520   4.049 -0.4067  2.0306  0.3885
    5DT      N1  136   4.429   3.606   4.147 -0.2681  0.2060  0.2725
    5DT      C6  137   4.312   3.579   4.212 -0.3213 -0.3970 -0.0746
    5DT      H6  138   4.303   3.489   4.272  3.2072 -1.1418 -0.4383
    5DT      C5  139   4.206   3.661   4.197 -0.1381 -0.1699 -0.1187
    5DT      C7  140   4.082   3.632   4.277  0.0861  0.5029  0.4825
    5DT     H71  141   4.044   3.728   4.313  2.0654  1.8938 -0.9312
    5DT     H72  142   4.011   3.575   4.218 -1.3344  1.9169  0.7450
    5DT     H73  143   4.117   3.578   4.365 -1.4696  0.2560  0.9920
    5DT      C4  144   4.215   3.781   4.117  0.0527 -0.2731 -0.2528
    5DT      O4  145   4.124   3.862   4.101  0.2084 -0.1074 -0.2925
    5DT      N3  146   4.341   3.811   4.067 -0.0176  0.3996 -0.0333
    5DT      H3  147   4.351   3.910   4.050 -0.4169  0.3003 -0.9141
    5DT      C2  148   4.448   3.723   4.076 -0.3553 -0.0238 -0.1315
    5DT      O2  149   4.560   3.753   4.035 -0.2206 -0.2671  0.0637
    5DT     C3'  150   4.571   3.403   4.356 -0.0830 -0.2346  0.2241
    5DT     H3'  151   4.488   3.452   4.407  0.8507  0.9487  0.6569
    5DT     C2'  152   4.628   3.504   4.256  0.1242 -0.7271 -0.1622
    5DT    H2'1  153   4.639   3.603   4.302  0.1379 -1.3457  1.2239
    5DT    H2'2  154   4.726   3.472   4.223  0.4536  0.2334 -0.1556
    5DT     O3'  155   4.679   3.359   4.435  0.0854  0.0373  0.1491
    6DC       P  156   4.676   3.381   4.595 -0.0013  0.2479  0.1186
    6DC     O1P  157   4.790   3.308   4.654  0.4385  0.2366 -0.7247
    6DC     O2P  158   4.538   3.355   4.643  0.2741 -0.3506  0.5910
    6DC     O5'  159   4.703   3.539   4.609 -0.2676  0.3515 -0.5072
    6DC     C5'  160   4.820   3.601   4.561 -0.1886  0.3338 -0.3360
    6DC    H5'1  161   4.851   3.558   4.466  0.3356  0.3614 -0.1816
    6DC    H5'2  162   4.901   3.578   4.631  1.4338  3.6828 -0.9236
    6DC     C4'  163   4.819   3.752   4.542  0.0904  0.3614 -0.1497
    6DC     H4'  164   4.923   3.782   4.526  0.9476 -2.8627 -1.3031
    6DC     O4'  165   4.735   3.792   4.435 -0.0880 -0.3615 -0.2811
    6DC     C1'  166   4.710   3.930   4.439 -0.1861 -0.3907  0.1994
    6DC     H1'  167   4.777   3.986   4.374  2.2105 -0.7186  2.2615
    6DC      N1  168   4.564   3.949   4.425 -0.1795  0.0717  0.6867
    6DC      C6  169   4.475   3.852   4.459 -0.2914  0.0093  0.2285
    6DC      H6  170   4.507   3.753   4.490 -2.5522 -1.0848 -0.6420
    6DC      C5  171   4.341   3.870   4.452 -0.2615  0.0767 -0.2207
    6DC      H5  172   4.278   3.790   4.487 -1.1691  1.4223  1.4115
    6DC      C4  173   4.299   3.998   4.404 -0.1019  0.0126 -0.5355
    6DC      N4  174   4.170   4.027   4.380 -0.2220 -0.2194 -0.1722
    6DC     H41  175   4.095   3.966   4.410 -0.5384  0.9308  1.5236
    6DC     H42  176   4.147   4.106   4.322 -3.0522 -0.6747  0.1622
    6DC      N3  177   4.382   4.094   4.361  0.1355  0.0838  0.0747
    6DC      C2  178   4.515   4.067   4.373  0.1055  0.0432  0.3469
    6DC      O2  179   4.595   4.155   4.340 -0.3250  0.1464 -0.4721
    6DC     C3'  180   4.790   3.848   4.657  0.0306  0.5549 -0.3240
    6DC     H3'  181   4.706   3.814   4.718  0.6223 -2.9619 -1.2467
    6DC     C2'  182   4.752   3.974   4.579 -0.1286  0.6307 -0.1271
    6DC    H2'1  183   4.679   4.031   4.636 -2.1561 -0.2719 -1.6875
    6DC    H2'2  184   4.841   4.037   4.571 -0.4226  0.9429 -1.0085
    6DC     O3'  185   4.904   3.861   4.740  0.0336  0.1877 -0.2703
    7DT       P  186   4.896   3.934   4.883 -0.0198  0.1799 -0.2686
    7DT     O1P  187   5.029   3.912   4.946 -0.3404 -0.2383  0.2674
    7DT     O2P  188   4.783   3.865   4.948  0.7531 -0.5212  0.3522
    7DT     O5'  189   4.864   4.091   4.863 -0.1099  0.2608  0.4896
    7DT     C5'  190   4.958   4.185   4.816 -0.1480  0.4082  0.7062
    7DT    H5'1  191   5.022   4.152   4.733  2.4547 -0.0040  2.7421
    7DT    H5'2  192   5.028   4.208   4.896 -1.0406  0.1629  1.5629
    7DT     C4'  193   4.887   4.313   4.772 -0.0577  0.2283  0.0175
    7DT     H4'  194   4.958   4.387   4.735 -1.6660  1.0101 -1.6124
    7DT     O4'  195   4.788   4.295   4.673  0.4376  0.5098 -0.5367
    7DT     C1'  196   4.685   4.390   4.687  0.0406  0.0406 -0.2383
    7DT     H1'  197   4.677   4.471   4.614  1.2932 -0.6696 -1.2214
    7DT      N1  198   4.554   4.324   4.702  0.1550 -0.2255 -0.4007
    7DT      C6  199   4.541   4.201   4.759  0.5573 -0.2362 -0.3307
    7DT      H6  200   4.625   4.159   4.813  0.2405  0.4033  0.6917
    7DT      C5  201   4.426   4.130   4.765  0.4736 -0.0870 -0.1956
    7DT      C7  202   4.417   3.991   4.823 -0.7905  0.0850  0.0460
    7DT     H71  203   4.347   3.986   4.907 -0.4265 -1.0745  0.2934
    7DT     H72  204   4.388   3.923   4.743 -0.5290  0.2675 -0.2066
    7DT     H73  205   4.517   3.970   4.860 -0.8702  1.0177  0.8465
    7DT      C4  206   4.307   4.193   4.713  0.3063  0.2788  0.6176
    7DT      O4  207   4.197   4.138   4.711  0.2132  0.4791  0.3270
    7DT      N3  208   4.326   4.313   4.646  0.2747  0.0290  0.1594
    7DT      H3  209   4.245   4.361   4.609  1.1738  2.6415  1.3588
    7DT      C2  210   4.443   4.387   4.649  0.0537  0.3676  0.4973
    7DT      O2  211   4.438   4.504   4.612  0.3501  0.1571 -0.2231
    7DT     C3'  212   4.822   4.386   4.889 -0.3945  0.1013 -0.0911
    7DT     H3'  213   4.769   4.322   4.959 -2.6105  0.3645 -1.4094
    7DT     C2'  214   4.711   4.464   4.818 -0.5972 -0.1188 -0.0177
    7DT    H2'1  215   4.627   4.471   4.886 -0.3539  1.8340  0.1528
    7DT    H2'2  216   4.750   4.563   4.794  0.9908 -1.0645 -1.6745
    7DT     O3'  217   4.907   4.483   4.946  0.0672  0.0312 -0.6530
    8DA       P  218   4.896   4.524   5.101  0.0604 -0.4064 -0.5375
    8DA     O1P  219   5.016   4.608   5.123 -0.2785  0.0441 -0.4056
    8DA     O2P  220   4.880   4.397   5.176 -0.5780  0.1211  0.2299
    8DA     O5'  221   4.765   4.615   5.122  0.4147 -0.1146  0.4604
    8DA     C5'  222   4.760   4.742   5.061  0.1042 -0.0453  0.6283
    8DA    H5'1  223   4.803   4.740   4.961 -1.4446 -0.2271 -0.0486
    8DA    H5'2  224   4.822   4.818   5.111  0.5273  0.2493 -0.3136
    8DA     C4'  225   4.619   4.800   5.052  0.0281 -0.3729 -0.3608
    8DA     H4'  226   4.624   4.902   5.016 -0.2157 -0.3113 -0.2213
    8DA     O4'  227   4.539   4.733   4.957 -0.6411 -0.1407  0.0329
    8DA     C1'  228   4.404   4.739   4.997 -0.6224 -0.1061  0.0902
    8DA     H1'  229   4.344   4.808   4.938  0.2679 -0.3395 -1.1378
    8DA      N9  230   4.334   4.611   4.973 -0.1550 -0.3205 -0.1614
    8DA      C8  231   4.380   4.491   5.020  0.0015  0.0725  0.7011
    8DA      H8  232   4.484   4.483   5.048  0.5268 -0.6029 -1.2956
    8DA      N7  233   4.298   4.392   5.001  0.3403 -0.0318 -0.2917
    8DA      C5  234   4.183   4.452   4.949 -0.0484 -0.3200  0.2207
    8DA      C6  235   4.056   4.409   4.908 -0.0533 -0.0334 -0.0700
    8DA      N6  236   4.008   4.284   4.911 -0.2956  0.0623  0.0998
    8DA     H61  237   4.073   4.211   4.936 -1.9535 -0.8807  1.9384
    8DA     H62  238   3.921   4.264   4.863 -0.5231 -0.8236  0.8506
    8DA      N1  239   3.963   4.497   4.868 -0.0591  0.2499  0.5571
    8DA      C2  240   3.997   4.625   4.864 -0.3451  0.3058 -0.2810
    8DA      H2  241   3.935   4.693   4.808  0.1632  0.4301 -0.6966
    8DA      N3  242   4.115   4.678   4.893 -0.3899 -0.0850  0.6912
    8DA      C4  243   4.203   4.587   4.938 -0.0515 -0.3750 -0.5148
    8DA     C3'  244   4.551   4.798   5.188  0.2847 -0.4482 -0.2320
    8DA     H3'  245   4.577   4.707   5.242 -0.7267 -2.5692 -3.0628
    8DA     C2'  246   4.406   4.784   5.142  0.1499  0.1830 -0.0036
    8DA    H2'1  247   4.364   4.703   5.202  0.1454  0.4213  0.3148
    8DA    H2'2  248   4.341   4.866   5.175  1.2164  0.5528  1.2374
    8DA     O3'  249   4.568   4.919   5.258  0.0105 -0.4346 -0.1850
    9DC       P  250   4.535   4.935   5.415 -0.2454 -0.1105 -0.2707
    9DC     O1P  251   4.597   5.062   5.457  0.1604 -0.4278  0.1052
    9DC     O2P  252   4.576   4.806   5.476 -0.4989  0.1520  0.4613
    9DC     O5'  253   4.374   4.939   5.419 -0.2270  0.0707  0.4152
    9DC     C5'  254   4.300   5.055   5.389 -0.4101 -0.1710 -0.0852
    9DC    H5'1  255   4.341   5.092   5.295  0.4822 -0.3170  0.2336
    9DC    H5'2  256   4.316   5.134   5.462  0.3236  2.1690 -2.6259
    9DC     C4'  257   4.150   5.031   5.377 -0.3819 -0.1787 -0.4376
    9DC     H4'  258   4.111   5.131   5.355  1.7805  1.1497  1.2784
    9DC     O4'  259   4.120   4.944   5.271 -0.3044 -0.1884 -0.4510
    9DC     C1'  260   4.001   4.874   5.297 -0.4362  0.1632 -0.1020
    9DC     H1'  261   3.926   4.925   5.237 -0.6236 -1.1520 -1.0260
    9DC      N1  262   4.003   4.731   5.263  0.3714  0.2375 -0.3887
    9DC      C6  263   4.102   4.651   5.312 -0.2981 -0.0379  0.5595
    9DC      H6  264   4.189   4.692   5.363  0.1979 -1.0982  0.5877
    9DC      C5  265   4.101   4.518   5.290  0.0720 -0.0482  0.5977
    9DC      H5  266   4.185   4.458   5.322  0.3426 -0.5486 -0.9683
    9DC      C4  267   3.986   4.461   5.227  0.0707  0.1348  0.4345
    9DC      N4  268   3.973   4.328   5.226  0.0538  0.1363 -0.3880
    9DC     H41  269   4.048   4.263   5.243 -1.0950 -0.4791  3.1549
    9DC     H42  270   3.882   4.291   5.200  0.4517 -1.1487  0.0057
    9DC      N3  271   3.884   4.536   5.183  0.0351 -0.1941 -0.0531
    9DC      C2  272   3.897   4.670   5.197  0.1768 -0.2484  0.3569
    9DC      O2  273   3.805   4.740   5.154  0.2212 -0.5393 -0.2172
    9DC     C3'  274   4.087   4.980   5.507 -0.2269  0.4539 -0.1044
    9DC     H3'  275   4.144   4.909   5.567 -1.2935 -1.6681 -1.4667
    9DC     C2'  276   3.976   4.893   5.447 -0.2816  0.5386 -0.1248
    9DC    H2'1  277   3.973   4.797   5.498  0.2837  1.3881  1.5878
    9DC    H2'2  278   3.881   4.945   5.460 -0.6918 -0.5815  1.6532
    9DC     O3'  279   4.023   5.076   5.587  0.2583  0.5822  0.1294
   10DG       P  280   3.978   5.048   5.739  0.1189 -0.0723 -0.0311
   10DG     O1P  281   3.972   5.182   5.801  0.0639 -0.0708 -0.0399
   10DG     O2P  282   4.062   4.947   5.807 -0.0751  0.0392  0.3788
   10DG     O5'  283   3.830   4.987   5.717 -0.0471  0.0283  0.7607
   10DG     C5'  284   3.721   5.074   5.701  0.0457  0.0502  0.2292
   10DG    H5'1  285   3.733   5.141   5.616  1.9080  2.0181  1.9295
   10DG    H5'2  286   3.708   5.136   5.790  1.7775  0.3411  0.3119
   10DG     C4'  287   3.588   5.002   5.684  0.3702 -0.4513 -0.2517
   10DG     H4'  288   3.508   5.076   5.674  1.9695  1.4728  0.5560
   10DG     O4'  289   3.597   4.924   5.568 -0.4658  0.2831 -0.8229
   10DG     C1'  290   3.526   4.803   5.580  0.2991 -0.0687  0.2059
   10DG     H1'  291   3.450   4.791   5.503 -0.1577 -4.5948  1.0425
   10DG      N9  292   3.604   4.678   5.569  0.2382 -0.1346  0.5150
   10DG      C8  293   3.740   4.667   5.582  0.2489 -0.0418  0.4810
   10DG      H8  294   3.803   4.750   5.609 -0.0620 -0.0349  1.2088
   10DG      N7  295   3.780   4.543   5.567 -0.0452 -0.1041  0.1968
   10DG      C5  296   3.668   4.471   5.527  0.0299  0.1028 -0.3828
   10DG      C6  297   3.657   4.335   5.489 -0.0085  0.0361 -0.1296
   10DG      O6  298   3.744   4.249   5.473  0.3902  0.4627 -0.2766
   10DG      N1  299   3.527   4.296   5.460 -0.0525  0.1196 -0.0449
   10DG      H1  300   3.504   4.203   5.427 -0.5182  0.4002 -0.5232
   10DG      C2  301   3.425   4.389   5.459  0.1050  0.2881 -0.3897
   10DG      N2  302   3.300   4.343   5.448  0.2285 -0.0855 -0.2320
   10DG     H21  303   3.294   4.244   5.428 -0.2977  0.0197 -0.6241
   10DG     H22  304   3.225   4.410   5.449 -0.8331 -1.1445  2.7609
   10DG      N3  305   3.432   4.515   5.502 -0.0380  0.0303  0.3985
   10DG      C4  306   3.559   4.554   5.532  0.0462  0.1054 -0.0546
   10DG     C3'  307   3.557   4.906   5.799 -0.4975  0.0348 -0.0600
   10DG     H3'  308   3.651   4.856   5.824  0.5524  1.4307 -1.0651
   10DG     C2'  309   3.465   4.814   5.719 -0.1558 -0.3982  0.0339
   10DG    H2'1  310   3.462   4.720   5.775 -0.1119  0.5441  1.7104
   10DG    H2'2  311   3.359   4.841   5.722 -0.6147 -2.0860  2.0110
   10DG     O3'  312   3.478   4.943   5.909 -0.3223  0.2701 -0.0135
   11DG       P  313   3.455   4.855   6.041  0.1826  0.1313 -0.0149
   11DG     O1P  314   3.386   4.939   6.142  0.0872 -0.2433  0.2359
   11DG     O2P  315   3.587   4.808   6.088  0.3357  0.5600 -0.0130
   11DG     O5'  316   3.364   4.724   6.017  0.0731  0.2887 -0.4665
   11DG     C5'  317   3.225   4.740   5.996 -0.1058 -0.3009  0.2130
   11DG    H5'1  318   3.205   4.828   5.934 -1.9188 -2.4338 -2.5080
   11DG    H5'2  319   3.170   4.762   6.087  0.5661  1.6659  0.2005
   11DG     C4'  320   3.163   4.617   5.931 -0.1076  0.0781 -0.5231
   11DG     H4'  321   3.063   4.648   5.901 -0.1672  0.4220  0.0035
   11DG     O4'  322   3.227   4.565   5.817 -0.1614 -0.5435 -0.2779
   11DG     C1'  323   3.230   4.424   5.812 -0.2624 -0.5348 -0.5639
   11DG     H1'  324   3.183   4.384   5.722  1.7481 -1.3666 -1.3196
   11DG      N9  325   3.365   4.368   5.831  0.0308  0.4041  0.2016
   11DG      C8  326   3.479   4.433   5.870  0.3266 -0.1943  0.3497
   11DG      H8  327   3.474   4.536   5.903 -3.1213  0.0629 -0.5718
   11DG      N7  328   3.587   4.361   5.859  0.4048 -0.0287  0.0199
   11DG      C5  329   3.545   4.247   5.791 -0.3204  0.4176 -0.2796
   11DG      C6  330   3.613   4.126   5.766 -0.5042  0.1837  0.3526
   11DG      O6  331   3.733   4.100   5.766 -0.4958  0.2092 -0.3281
   11DG      N1  332   3.531   4.017   5.739 -0.0274 -0.1733  0.3299
   11DG      H1  333   3.564   3.922   5.734 -2.3813 -1.0371 -0.1329
   11DG      C2  334   3.393   4.026   5.735 -0.0236 -0.4049 -0.2499
   11DG      N2  335   3.330   3.911   5.707 -0.1739 -0.1516 -0.9721
   11DG     H21  336   3.378   3.823   5.693  0.5828  0.2315 -0.8310
   11DG     H22  337   3.230   3.906   5.694 -0.3195 -2.3428  0.3874
   11DG      N3  338   3.327   4.140   5.756  0.4200 -0.1927 -0.0117
   11DG      C4  339   3.408   4.243   5.793 -0.3059  0.2100  0.4660
   11DG     C3'  340   3.156   4.502   6.032  0.0831  0.4238 -0.1142
   11DG     H3'  341   3.248   4.492   6.089  1.0598 -0.3190 -1.7587
   11DG     C2'  342   3.147   4.386   5.934  0.7441  0.0084  0.3121
   11DG    H2'1  343   3.167   4.288   5.977 -0.1580  0.2197  1.2376
   11DG    H2'2  344   3.042   4.381   5.904  0.6720  0.9300  0.4043
   11DG     O3'  345   3.041   4.509   6.114 -0.1331  0.3866 -0.4104
   12DA       P  346   3.034   4.441   6.260 -0.3968 -0.0216 -0.6112
   12DA     O1P  347   2.897   4.455   6.313 -0.2245 -0.4250 -0.0477
   12DA     O2P  348   3.150   4.485   6.341 -0.4279 -0.1377 -0.5028
   12DA     O5'  349   3.056   4.285   6.228  0.3749 -0.0591  0.0770
   12DA     C5'  350   2.958   4.194   6.185 -0.2823  0.5181  0.3403
   12DA    H5'1  351   2.916   4.234   6.092 -0.2348  1.3880  0.6845
   12DA    H5'2  352   2.878   4.208   6.258  1.2415 -2.2828  2.7455
   12DA     C4'  353   2.992   4.046   6.171  0.5788  0.7289  0.1185
   12DA     H4'  354   2.896   3.994   6.163  0.7177  0.6325 -1.0266
   12DA     O4'  355   3.068   4.018   6.056  0.0573 -0.1224 -0.0280
   12DA     C1'  356   3.163   3.918   6.083 -0.3109 -0.4844 -0.0571
   12DA     H1'  357   3.147   3.838   6.010 -0.8570 -0.2938 -0.1491
   12DA      N9  358   3.304   3.961   6.082 -0.5392  0.2840  0.4584
   12DA      C8  359   3.359   4.084   6.109  0.2653 -0.0082  0.1856
   12DA      H8  360   3.305   4.174   6.136  2.1639  0.9199  1.0545
   12DA      N7  361   3.489   4.088   6.104  0.2438  0.1968 -0.2616
   12DA      C5  362   3.519   3.956   6.069 -0.1153 -0.0548  0.3497
   12DA      C6  363   3.639   3.886   6.049 -0.0139  0.1123  0.3626
   12DA      N6  364   3.765   3.930   6.048 -0.2355  0.7437  0.1531
   12DA     H61  365   3.782   4.025   6.079 -0.2005  1.1462 -1.0291
   12DA     H62  366   3.841   3.864   6.042  0.4593  1.6151 -1.2677
   12DA      N1  367   3.641   3.753   6.031  0.2430  0.1316  0.2400
   12DA      C2  368   3.524   3.691   6.026  0.0929  0.4731 -0.7119
   12DA      H2  369   3.534   3.583   6.022  3.4197  0.6234  0.3387
   12DA      N3  370   3.403   3.742   6.044  0.1175  0.5396 -0.7350
   12DA      C4  371   3.409   3.876   6.058 -0.4847  0.5051 -0.1063
   12DA     C3'  372   3.067   3.988   6.290 -0.1774 -0.4863  0.0222
   12DA     H3'  373   3.131   4.067   6.329 -0.7086  0.7922 -1.6251
   12DA     C2'  374   3.139   3.869   6.226  0.1565 -0.3170  0.0799
   12DA    H2'1  375   3.230   3.842   6.279  0.6679 -4.0928 -2.3535
   12DA    H2'2  376   3.075   3.781   6.224 -0.3687  0.0123  1.3159
   12DA     O3'  377   2.978   3.951   6.393 -0.1093  0.1935  0.3271
   13DA       P  378   3.039   3.899   6.533 -0.0446 -0.1023  0.1883
   13DA     O1P  379   2.925   3.859   6.618  0.0670 -0.7843  0.0268
   13DA     O2P  380   3.133   4.002   6.581  0.0775 -0.2942  0.3595
   13DA     O5'  381   3.132   3.768   6.515 -0.0184 -0.0185 -0.3178
   13DA     C5'  382   3.074   3.639   6.514  0.1562 -0.0956 -0.7338
   13DA    H5'1  383   2.991   3.640   6.444  0.8196  2.3309 -1.6117
   13DA    H5'2  384   3.048   3.617   6.618  1.0642  0.6285 -0.3306
   13DA     C4'  385   3.163   3.527   6.462  0.5415 -0.0076 -0.2679
   13DA     H4'  386   3.114   3.433   6.438  0.5876 -0.0931 -0.0372
   13DA     O4'  387   3.229   3.570   6.345 -0.0440 -0.4044 -0.7467
   13DA     C1'  388   3.355   3.506   6.344  0.0523 -0.2496  0.4568
   13DA     H1'  389   3.371   3.447   6.255  1.6920  1.4888 -0.4661
   13DA      N9  390   3.457   3.612   6.354  0.0160 -0.1681 -0.0547
   13DA      C8  391   3.454   3.743   6.392  0.0402 -0.1137 -0.2382
   13DA      H8  392   3.365   3.790   6.433  0.1550 -0.5986  0.5806
   13DA      N7  393   3.568   3.803   6.373  0.0947 -0.0078  0.4195
   13DA      C5  394   3.656   3.701   6.339  0.1407  0.2335 -0.1922
   13DA      C6  395   3.793   3.693   6.309  0.1460  0.0048 -0.1054
   13DA      N6  396   3.875   3.798   6.307  0.4261 -0.2076  0.1719
   13DA     H61  397   3.843   3.880   6.356  2.6050 -0.0914  1.5663
   13DA     H62  398   3.972   3.785   6.280  0.0842 -1.3109 -0.5905
   13DA      N1  399   3.850   3.582   6.260 -0.3344 -0.3420  0.1119
   13DA      C2  400   3.775   3.473   6.257  0.0448 -0.6140  0.3936
   13DA      H2  401   3.821   3.388   6.207 -0.3429 -0.5403 -0.0909
   13DA      N3  402   3.646   3.468   6.282  0.0935 -0.1135  0.7520
   13DA      C4  403   3.589   3.583   6.327  0.0895  0.2601 -0.1704
   13DA     C3'  404   3.266   3.495   6.570 -0.1786 -0.4911  0.2795
   13DA     H3'  405   3.311   3.585   6.611 -1.6882 -0.3835  1.8187
   13DA     C2'  406   3.363   3.426   6.474 -0.4524 -0.7492  0.1853
   13DA    H2'1  407   3.465   3.423   6.511 -0.6434  2.1793  1.2689
   13DA    H2'2  408   3.335   3.326   6.443 -0.7469 -0.2980 -1.0417
   13DA     O3'  409   3.226   3.399   6.666 -0.4010 -0.0434  0.6415
   14DG       P  410   3.302   3.376   6.806  0.2546  0.0343  0.3064
   14DG     O1P  411   3.216   3.273   6.868 -0.3689  0.6038  0.4026
   14DG     O2P  412   3.318   3.503   6.882  1.2339 -0.1969  0.5013
   14DG     O5'  413   3.448   3.319   6.771 -0.0119 -0.7514  0.4614
   14DG     C5'  414   3.473   3.184   6.738  0.4315 -0.4599 -0.4318
   14DG    H5'1  415   3.419   3.161   6.646  0.3455  3.1361 -1.4385
   14DG    H5'2  416   3.450   3.126   6.828  3.0111 -1.8783 -0.6050
   14DG     C4'  417   3.617   3.149   6.703  0.4457 -0.2709 -0.5671
   14DG     H4'  418   3.621   3.041   6.684 -1.8522 -1.0790  2.6388
   14DG     O4'  419   3.663   3.222   6.592  0.5252  0.8008  0.1541
   14DG     C1'  420   3.800   3.249   6.613  0.6195  0.3186  0.1925
   14DG     H1'  421   3.849   3.194   6.533 -1.1828 -1.0722 -0.0036
   14DG      N9  422   3.823   3.395   6.611 -0.2940  0.4641 -0.0757
   14DG      C8  423   3.749   3.498   6.663 -0.4942  0.3493 -0.1335
   14DG      H8  424   3.653   3.489   6.713 -0.0876 -0.3191  0.5527
   14DG      N7  425   3.797   3.618   6.648  0.2809  0.1150  0.3904
   14DG      C5  426   3.920   3.595   6.587 -0.0954 -0.3336 -0.2145
   14DG      C6  427   4.035   3.674   6.563 -0.0827 -0.1847  0.3238
   14DG      O6  428   4.046   3.796   6.555 -0.0027 -0.1934  0.3148
   14DG      N1  429   4.151   3.602   6.533 -0.0130 -0.2405  0.7209
   14DG      H1  430   4.227   3.664   6.510 -0.8439  1.4182  2.1629
   14DG      C2  431   4.157   3.464   6.530  0.1461 -0.2296  0.5075
   14DG      N2  432   4.276   3.405   6.515  0.2709  0.1967 -0.2041
   14DG     H21  433   4.364   3.453   6.507  1.0336 -0.6515  2.2763
   14DG     H22  434   4.281   3.304   6.521  0.2583  0.2805  2.1579
   14DG      N3  435   4.050   3.386   6.550  0.0525 -0.3119 -0.3156
   14DG      C4  436   3.941   3.460   6.581  0.1603 -0.3051  0.0393
   14DG     C3'  437   3.705   3.179   6.824 -0.2498 -0.1554 -0.0795
   14DG     H3'  438   3.675   3.267   6.882  0.3496  0.2073 -0.3075
   14DG     C2'  439   3.838   3.191   6.749 -0.0919 -0.1323  0.2006
   14DG    H2'1  440   3.910   3.251   6.805  0.2108 -1.1071  0.8819
   14DG    H2'2  441   3.869   3.091   6.719 -0.0726  0.2519 -1.1048
   14DG     O3'  442   3.707   3.075   6.919 -0.7294  0.1890  0.3095
   15DG       P  443   3.779   3.093   7.061  0.3672 -0.2375 -0.1836
   15DG     O1P  444   3.767   2.963   7.130 -0.9227 -0.2573 -0.4223
   15DG     O2P  445   3.733   3.218   7.127  0.2231 -0.1830 -0.3882
   15DG     O5'  446   3.928   3.135   7.017  0.4510 -0.2109  0.1195
   15DG     C5'  447   4.025   3.032   7.005  0.2179 -0.4375  0.1808
   15DG    H5'1  448   3.989   2.961   6.931  1.2319 -0.2495 -0.4970
   15DG    H5'2  449   4.027   2.973   7.097  0.6163  2.5503  2.2517
   15DG     C4'  450   4.165   3.079   6.969 -0.0853  0.5085  0.1885
   15DG     H4'  451   4.228   2.990   6.957  0.8928  1.2220 -0.1442
   15DG     O4'  452   4.171   3.152   6.848 -0.4669  0.1307 -0.0615
   15DG     C1'  453   4.276   3.244   6.866 -0.2923 -0.1045  0.1276
   15DG     H1'  454   4.358   3.240   6.795 -2.1651  1.1266 -2.2693
   15DG      N9  455   4.227   3.383   6.863 -0.4487 -0.1728 -0.6250
   15DG      C8  456   4.108   3.429   6.914  0.1430  0.0219  0.6139
   15DG      H8  457   4.034   3.360   6.953 -0.1037  0.2531  0.5562
   15DG      N7  458   4.095   3.557   6.898  0.2605 -0.0823 -0.3382
   15DG      C5  459   4.215   3.603   6.843  0.2128  0.0575 -0.3269
   15DG      C6  460   4.262   3.734   6.817 -0.0516  0.1184 -0.5024
   15DG      O6  461   4.210   3.844   6.835 -0.3278 -0.0855 -0.0485
   15DG      N1  462   4.396   3.741   6.779 -0.0005 -0.0725 -0.3607
   15DG      H1  463   4.439   3.830   6.760  0.0900 -0.6634 -3.3208
   15DG      C2  464   4.473   3.627   6.772 -0.1845 -0.2026 -0.2835
   15DG      N2  465   4.605   3.634   6.754 -0.0676 -1.1852  0.1468
   15DG     H21  466   4.647   3.726   6.754 -1.8067 -0.3603  0.7469
   15DG     H22  467   4.664   3.562   6.794 -0.1734 -0.3434  1.8989
   15DG      N3  468   4.430   3.502   6.796 -0.1944 -0.2259 -0.4197
   15DG      C4  469   4.299   3.495   6.831 -0.0155 -0.1906  0.2664
   15DG     C3'  470   4.226   3.152   7.088  0.2102 -0.2618  0.5178
   15DG     H3'  471   4.152   3.225   7.119  0.7393  0.8193 -0.6651
   15DG     C2'  472   4.336   3.219   7.004  0.0084 -0.7081 -0.1107
   15DG    H2'1  473   4.361   3.311   7.056 -0.2821 -1.9584  2.3991
   15DG    H2'2  474   4.426   3.159   6.993  1.6550  1.5464  0.4491
   15DG     O3'  475   4.293   3.077   7.187 -0.2774 -0.6004  0.5914
   16DG       P  476   4.328   3.129   7.335  0.1506 -0.1917  0.3508
   16DG     O1P  477   4.364   3.012   7.418  0.5934 -0.0857  0.3095
   16DG     O2P  478   4.218   3.218   7.380 -0.5396 -0.6332 -0.4476
   16DG     O5'  479   4.459   3.219   7.310 -0.1809  0.0520 -0.5362
   16DG     C5'  480   4.580   3.172   7.257 -0.0445 -0.2723  0.0560
   16DG    H5'1  481   4.556   3.111   7.169 -0.7647  1.8408 -1.2885
   16DG    H5'2  482   4.632   3.104   7.325 -0.4569  0.3919  1.0490
   16DG     C4'  483   4.678   3.285   7.227  0.2492 -0.4945  0.1706
   16DG     H4'  484   4.772   3.241   7.194  0.2612  0.0494 -0.5400
   16DG     O4'  485   4.633   3.367   7.122  0.0209 -0.3547  0.3742
   16DG     C1'  486   4.679   3.499   7.138  0.0116 -0.3160  0.0923
   16DG     H1'  487   4.748   3.521   7.057  0.3347 -1.7153 -0.0426
   16DG      N9  488   4.562   3.589   7.137  0.1159 -0.1807  0.1980
   16DG      C8  489   4.432   3.564   7.169  0.2390 -0.1449  0.7268
   16DG      H8  490   4.394   3.468   7.201  0.0482 -0.3385 -0.0568
   16DG      N7  491   4.354   3.669   7.167 -0.0454 -0.3603 -0.3972
   16DG      C5  492   4.436   3.771   7.119  0.2934 -0.6183 -0.3751
   16DG      C6  493   4.415   3.909   7.094  0.1071 -0.5916 -0.0780
   16DG      O6  494   4.312   3.975   7.102 -0.2005 -1.0088 -0.5900
   16DG      N1  495   4.527   3.983   7.055 -0.3796  0.0933 -0.1958
   16DG      H1  496   4.516   4.080   7.032 -0.4306  0.1122 -0.0895
   16DG      C2  497   4.654   3.930   7.057 -0.4068  0.0449  0.2744
   16DG      N2  498   4.753   4.008   7.012 -0.1639 -0.2986  0.2061
   16DG     H21  499   4.726   4.104   6.992 -2.6944 -0.7642  1.0494
   16DG     H22  500   4.839   3.966   6.980 -1.3916 -2.5696 -0.3319
   16DG      N3  501   4.672   3.799   7.076  0.1737  0.0166 -0.4247
   16DG      C4  502   4.563   3.724   7.107  0.4151 -0.3004 -0.3453
   16DG     C3'  503   4.707   3.381   7.343  0.1088  0.2237 -0.3838
   16DG     H3'  504   4.616   3.395   7.400  0.3916  0.6569 -0.0386
   16DG     C2'  505   4.750   3.509   7.273  0.2277  0.3568 -0.0691
   16DG    H2'1  506   4.712   3.596   7.326 -0.5786  0.1397 -0.2854
   16DG    H2'2  507   4.859   3.517   7.267  0.3001  0.0730  0.7490
   16DG     O3'  508   4.813   3.334   7.424 -0.0661  0.0661 -0.2445
   17DC       P  509   4.837   3.392   7.572 -0.0317  0.1497 -0.2823
   17DC     O1P  510   4.958   3.328   7.630  0.0263 -0.2622 -0.8486
   17DC     O2P  511   4.705   3.394   7.639  0.2213 -0.1246  0.2308
   17DC     O5'  512   4.864   3.549   7.549 -0.0606  0.2428  0.2986
   17DC     C5'  513   4.994   3.597   7.522  0.0148  0.1455  0.4871
   17DC    H5'1  514   5.025   3.535   7.438 -1.2811  0.0716  0.0434
   17DC    H5'2  515   5.064   3.588   7.605  1.9003 -0.1983 -1.0597
   17DC     C4'  516   5.005   3.745   7.486  0.2804  0.0491  0.1729
   17DC     H4'  517   5.105   3.763   7.446  0.7577 -1.2876  0.7063
   17DC     O4'  518   4.907   3.779   7.391  0.5140 -0.0761 -0.1165
   17DC     C1'  519   4.872   3.916   7.394  0.1364 -0.1745  0.0837
   17DC     H1'  520   4.895   3.960   7.297  0.2680 -0.1413  0.1296
   17DC      N1  521   4.728   3.938   7.415  0.1345 -0.1796  0.0763
   17DC      C6  522   4.651   3.852   7.487 -0.1833  0.1056  0.0769
   17DC      H6  523   4.691   3.758   7.523 -2.4412 -1.4387 -1.1789
   17DC      C5  524   4.516   3.866   7.495 -0.1678  0.1579  0.2584
   17DC      H5  525   4.458   3.796   7.553 -1.8826  0.7298 -0.6984
   17DC      C4  526   4.461   3.979   7.426  0.1182 -0.2283 -0.6249
   17DC      N4  527   4.327   3.989   7.429  0.1350 -0.1105 -0.2057
   17DC     H41  528   4.281   3.914   7.478 -0.6671 -1.0529 -2.3202
   17DC     H42  529   4.280   4.065   7.382  1.2010 -0.9760 -2.8678
   17DC      N3  530   4.536   4.070   7.362 -0.0216  0.4694  0.1760
   17DC      C2  531   4.671   4.051   7.359 -0.1284 -0.3049  0.0940
   17DC      O2  532   4.741   4.139   7.312  0.2533 -0.5857  0.1358
   17DC     C3'  533   4.978   3.846   7.597 -0.4865 -0.0093  0.0442
   17DC     H3'  534   4.887   3.823   7.651 -0.4167 -1.8584 -0.5520
   17DC     C2'  535   4.956   3.969   7.510  0.1023  0.0672 -0.0012
   17DC    H2'1  536   4.909   4.048   7.568  1.1299  0.6574  0.0570
   17DC    H2'2  537   5.049   4.015   7.476  1.5814 -1.2524  2.0656
   17DC     O3'  538   5.086   3.871   7.684 -0.1228 -0.1516 -0.3588
   18DA       P  539   5.067   3.936   7.831  0.0568 -0.4006 -0.2256
   18DA     O1P  540   5.200   3.960   7.890 -0.0557 -0.0869 -0.0969
   18DA     O2P  541   4.971   3.849   7.903 -0.2312 -0.3609 -0.5594
   18DA     O5'  542   5.008   4.085   7.827  0.2995 -0.2976 -0.0003
   18DA     C5'  543   5.083   4.192   7.774 -0.1263 -0.2019 -0.4147
   18DA    H5'1  544   5.103   4.166   7.670 -0.6164 -2.7787  0.0620
   18DA    H5'2  545   5.176   4.204   7.829  0.3075  0.8226 -1.3261
   18DA     C4'  546   4.997   4.318   7.769 -0.1546 -0.1876  0.3190
   18DA     H4'  547   5.055   4.408   7.747 -0.0417 -0.2962  0.1725
   18DA     O4'  548   4.906   4.316   7.661  0.3767  0.6669 -0.1571
   18DA     C1'  549   4.800   4.402   7.695  0.0468  0.2201 -0.0550
   18DA     H1'  550   4.792   4.487   7.627 -4.0335  1.5762  1.8330
   18DA      N9  551   4.674   4.326   7.680  0.4437 -0.4346 -0.1470
   18DA      C8  552   4.646   4.194   7.702  0.0380 -0.2316  0.5964
   18DA      H8  553   4.722   4.123   7.732  1.3980  1.5607  1.5614
   18DA      N7  554   4.522   4.161   7.679  0.2531 -0.0896 -0.8602
   18DA      C5  555   4.462   4.282   7.648 -0.1745 -0.1832 -0.4006
   18DA      C6  556   4.331   4.327   7.626  0.0794  0.4927 -0.5621
   18DA      N6  557   4.217   4.257   7.632  0.3152  0.1203 -0.3460
   18DA     H61  558   4.212   4.158   7.649 -0.4937  0.0767 -0.7550
   18DA     H62  559   4.129   4.302   7.608  0.0404 -0.3237 -0.1754
   18DA      N1  560   4.299   4.456   7.611 -0.4265  0.5090  0.5188
   18DA      C2  561   4.399   4.542   7.614  0.2374 -0.1887 -0.6866
   18DA      H2  562   4.373   4.645   7.593  0.1342 -0.5665 -2.5206
   18DA      N3  563   4.529   4.516   7.626  0.0929 -0.7095 -0.2178
   18DA      C4  564   4.553   4.385   7.651  0.2504 -0.5679  0.3845
   18DA     C3'  565   4.924   4.358   7.897 -0.4859  0.1705  0.0212
   18DA     H3'  566   4.866   4.278   7.944 -1.4355  0.8235 -0.0068
   18DA     C2'  567   4.827   4.458   7.834 -0.4787  0.2010  0.0581
   18DA    H2'1  568   4.730   4.458   7.883  0.1868 -3.0431  1.7067
   18DA    H2'2  569   4.872   4.557   7.828  1.2252 -0.3500  2.3404
   18DA     O3'  570   4.997   4.430   7.993 -0.6229  0.3811 -0.0319
   19DT       P  571   4.939   4.452   8.142 -0.2433 -0.1945  0.2010
   19DT     O1P  572   5.044   4.538   8.202 -0.3288  0.0618 -0.0200
   19DT     O2P  573   4.902   4.323   8.205  0.5314 -0.5521 -0.0574
   19DT     O5'  574   4.816   4.551   8.110  0.1310  0.3749  0.5115
   19DT     C5'  575   4.836   4.691   8.108  0.1780  0.3618 -0.1443
   19DT    H5'1  576   4.919   4.716   8.042  0.4845 -0.9471 -0.2857
   19DT    H5'2  577   4.871   4.713   8.209  2.9000 -0.9785 -0.7007
   19DT     C4'  578   4.714   4.776   8.075 -0.3136 -0.2564  0.0592
   19DT     H4'  579   4.751   4.877   8.061 -0.0377 -0.2953  0.5065
   19DT     O4'  580   4.646   4.726   7.961 -0.1337 -0.0341 -0.1460
   19DT     C1'  581   4.507   4.734   7.984 -0.1250  0.0214 -0.1099
   19DT     H1'  582   4.462   4.794   7.905  0.0932 -0.4415 -0.6001
   19DT      N1  583   4.436   4.605   7.979  0.1470 -0.1321 -0.0409
   19DT      C6  584   4.490   4.490   8.029 -0.1402 -0.1830  0.1520
   19DT      H6  585   4.581   4.503   8.086 -0.1431  0.9902 -0.0691
   19DT      C5  586   4.425   4.372   8.023 -0.0775 -0.2507  0.8158
   19DT      C7  587   4.485   4.248   8.083 -0.0712 -0.3821  0.5363
   19DT     H71  588   4.552   4.269   8.167  0.6697  1.5001 -0.4694
   19DT     H72  589   4.408   4.183   8.125  1.8585 -2.0411  1.7091
   19DT     H73  590   4.520   4.189   7.998 -1.4247  1.8544 -1.6833
   19DT      C4  591   4.294   4.367   7.961  0.1953 -0.1693  0.2315
   19DT      O4  592   4.225   4.266   7.948 -0.3318  0.2615 -0.3746
   19DT      N3  593   4.242   4.487   7.916 -0.1075 -0.1792  0.5521
   19DT      H3  594   4.148   4.484   7.879 -0.5147 -1.8450  1.6255
   19DT      C2  595   4.306   4.609   7.930  0.2863 -0.2655 -0.4225
   19DT      O2  596   4.244   4.715   7.919  0.6767 -0.0381 -0.4546
   19DT     C3'  597   4.615   4.779   8.191 -0.3475  0.2520  0.0173
   19DT     H3'  598   4.619   4.684   8.245  0.9010  0.5879  0.5385
   19DT     C2'  599   4.479   4.792   8.122 -0.4095 -0.3971  0.0085
   19DT    H2'1  600   4.397   4.748   8.178 -0.4834 -0.5810 -0.2403
   19DT    H2'2  601   4.457   4.894   8.090 -0.4497 -0.7339 -1.0665
   19DT     O3'  602   4.625   4.893   8.273  0.2422  0.4386 -0.3075
   20DC       P  603   4.567   4.893   8.424  0.1579  0.4228 -0.3389
   20DC     O1P  604   4.629   5.004   8.500  0.1044  0.1988  0.0335
   20DC     O2P  605   4.592   4.757   8.475  0.0845  0.6322  0.2674
   20DC     O5'  606   4.407   4.910   8.428  0.1065 -0.1148 -0.1425
   20DC     C5'  607   4.346   5.035   8.407  0.1361 -0.0441  0.1885
   20DC    H5'1  608   4.413   5.097   8.348 -0.8006  1.2528  0.4446
   20DC    H5'2  609   4.342   5.081   8.506 -1.3155 -1.3044  0.7608
   20DC     C4'  610   4.200   5.027   8.362  0.1551 -0.0860  0.1337
   20DC     H4'  611   4.153   5.124   8.346  1.0761  0.5607  1.1807
   20DC     O4'  612   4.182   4.940   8.253 -0.4651  0.2160 -0.0080
   20DC     C1'  613   4.054   4.881   8.253 -0.1977 -0.3723 -0.0470
   20DC     H1'  614   3.992   4.918   8.172  1.6589  1.0481 -0.8891
   20DC      N1  615   4.066   4.734   8.253  0.2076 -0.3417  0.0867
   20DC      C6  616   4.176   4.675   8.307  0.5937  0.1594 -0.1408
   20DC      H6  617   4.255   4.741   8.341 -1.1383  1.0710  2.4133
   20DC      C5  618   4.199   4.542   8.310  0.1587  0.0942  0.5453
   20DC      H5  619   4.292   4.498   8.343 -1.1043 -2.7438  0.6679
   20DC      C4  620   4.087   4.465   8.263  0.5939 -0.0763 -0.2262
   20DC      N4  621   4.080   4.332   8.254  0.1303 -0.0513 -0.2770
   20DC     H41  622   4.147   4.284   8.312  0.9368  3.9017  2.4686
   20DC     H42  623   3.997   4.289   8.215  0.6720 -0.6852 -0.7627
   20DC      N3  624   3.975   4.521   8.213  0.3655  0.1783  0.5601
   20DC      C2  625   3.967   4.656   8.197  0.3129  0.0427 -0.6515
   20DC      O2  626   3.864   4.705   8.152  0.0630 -0.1133 -0.2572
   20DC     C3'  627   4.115   4.960   8.469  0.1849 -0.0762  0.1648
   20DC     H3'  628   4.167   4.873   8.510 -3.8306 -3.3032 -0.9377
   20DC     C2'  629   3.993   4.922   8.387  0.2147  0.3373 -0.0711
   20DC    H2'1  630   3.938   4.839   8.431  2.2596 -0.5902  0.8587
   20DC    H2'2  631   3.929   5.009   8.369 -0.1239  0.3252  1.0058
   20DC     O3'  632   4.075   5.053   8.567  0.6857  0.2345  0.0795
   21DT       P  633   4.037   5.023   8.721  0.3205 -0.0491 -0.0622
   21DT     O1P  634   4.019   5.155   8.785 -0.3310 -0.1538 -0.0271
   21DT     O2P  635   4.135   4.929   8.779  0.3292  0.2516  0.4112
   21DT     O5'  636   3.896   4.946   8.715  0.1533  0.2841 -0.4828
   21DT     C5'  637   3.780   5.018   8.680 -0.0252 -0.4794 -1.5164
   21DT    H5'1  638   3.801   5.094   8.605 -0.2205 -0.2779 -1.3701
   21DT    H5'2  639   3.749   5.074   8.769  0.2549 -0.0194 -1.7044
   21DT     C4'  640   3.664   4.927   8.641 -0.8127 -0.2873  0.2480
   21DT     H4'  641   3.576   4.988   8.622 -0.1511  0.4820 -0.4294
   21DT     O4'  642   3.689   4.851   8.525 -0.4039  0.3858 -0.1117
   21DT     C1'  643   3.624   4.726   8.532  0.3808  0.0088  0.5276
   21DT     H1'  644   3.545   4.724   8.457 -0.4767 -0.3171  1.4262
   21DT      N1  645   3.717   4.612   8.516  0.0737 -0.2193  0.3558
   21DT      C6  646   3.839   4.616   8.577 -0.1811 -0.4572  0.8859
   21DT      H6  647   3.883   4.706   8.618 -1.2798  0.0891  0.8979
   21DT      C5  648   3.922   4.510   8.582  0.0126 -0.3138  0.7243
   21DT      C7  649   4.056   4.526   8.650  0.3246  0.7091 -0.1151
   21DT     H71  650   4.073   4.631   8.674  0.6331  0.5643  0.3052
   21DT     H72  651   4.055   4.467   8.741  2.8048  2.0036  0.8388
   21DT     H73  652   4.147   4.507   8.594  1.2862 -0.0210  1.6445
   21DT      C4  653   3.885   4.382   8.524 -0.1008 -0.1069  0.3325
   21DT      O4  654   3.948   4.277   8.517  0.5886  0.3216 -0.0354
   21DT      N3  655   3.762   4.387   8.461 -0.1157 -0.0112  0.3664
   21DT      H3  656   3.729   4.299   8.424  2.8751 -0.9918 -0.2438
   21DT      C2  657   3.668   4.487   8.481 -0.1903  0.0682 -0.3302
   21DT      O2  658   3.549   4.471   8.457 -0.2429  0.4543 -0.3434
   21DT     C3'  659   3.623   4.823   8.745  0.2901 -0.6917  0.2897
   21DT     H3'  660   3.714   4.775   8.780  1.2693  0.8498 -0.0314
   21DT     C2'  661   3.542   4.726   8.660 -0.3622  0.0453  0.0564
   21DT    H2'1  662   3.535   4.626   8.703  0.0276  1.0358  2.6006
   21DT    H2'2  663   3.444   4.767   8.636 -0.6192 -0.0378  0.9078
   21DT     O3'  664   3.548   4.885   8.847 -0.1774 -0.4007 -0.2254
   22DG       P  665   3.559   4.810   8.989 -0.1157  0.2261  0.1019
   22DG     O1P  666   3.506   4.902   9.093 -0.3240 -0.2564  0.4268
   22DG     O2P  667   3.697   4.759   9.001 -0.4366 -0.7010 -0.0760
   22DG     O5'  668   3.469   4.677   8.979 -0.2089  0.2195  0.9227
   22DG     C5'  669   3.333   4.687   8.943 -0.0713  0.1443  0.3753
   22DG    H5'1  670   3.335   4.759   8.860 -2.5401 -0.1178 -0.0026
   22DG    H5'2  671   3.273   4.730   9.024 -2.0213  0.8132 -1.3163
   22DG     C4'  672   3.262   4.556   8.910 -0.0792  0.2585 -0.0713
   22DG     H4'  673   3.155   4.571   8.898 -0.4592 -1.8655  0.2801
   22DG     O4'  674   3.314   4.499   8.792 -0.3993 -0.1843 -0.0023
   22DG     C1'  675   3.329   4.359   8.798 -0.1387 -0.1667 -0.1907
   22DG     H1'  676   3.271   4.315   8.717 -3.2754  0.3117  1.6218
   22DG      N9  677   3.469   4.314   8.789  0.0060  0.1766  0.2720
   22DG      C8  678   3.587   4.376   8.821 -0.1829  0.4579  0.4296
   22DG      H8  679   3.588   4.474   8.867 -0.5982 -0.2404  2.0133
   22DG      N7  680   3.694   4.308   8.793 -0.5288 -0.0107  0.2217
   22DG      C5  681   3.647   4.181   8.759  0.0744 -0.0847 -0.3713
   22DG      C6  682   3.711   4.057   8.736 -0.1111 -0.0317 -1.2367
   22DG      O6  683   3.828   4.020   8.725 -0.0216 -0.5121  0.7506
   22DG      N1  684   3.619   3.953   8.729  0.0866 -0.2541 -0.6549
   22DG      H1  685   3.649   3.862   8.699 -1.6564 -0.6634 -1.3085
   22DG      C2  686   3.483   3.971   8.713 -0.0108 -0.2262  0.1596
   22DG      N2  687   3.399   3.867   8.698  0.4281 -0.5659  0.0321
   22DG     H21  688   3.432   3.772   8.703 -2.8485 -1.8665 -0.7072
   22DG     H22  689   3.299   3.880   8.707  0.2321 -2.1483  0.3936
   22DG      N3  690   3.421   4.089   8.727  0.2977 -0.1069  0.5448
   22DG      C4  691   3.510   4.187   8.756  0.0500  0.0981  0.6210
   22DG     C3'  692   3.279   4.448   9.017 -0.4225 -0.0291 -0.3062
   22DG     H3'  693   3.379   4.451   9.059  0.4345  0.0654 -2.2323
   22DG     C2'  694   3.264   4.323   8.931 -0.0380 -0.1857 -0.1462
   22DG    H2'1  695   3.328   4.249   8.980 -1.3456 -0.5506  1.0927
   22DG    H2'2  696   3.159   4.291   8.931  0.1012 -0.6605 -0.7331
   22DG     O3'  697   3.178   4.469   9.113 -0.2094 -0.0589 -0.0757
   23DC       P  698   3.207   4.422   9.265  0.1735 -0.0493 -0.1430
   23DC     O1P  699   3.078   4.453   9.332  0.2255 -0.2654  0.0572
   23DC     O2P  700   3.331   4.488   9.311 -0.0255  0.1216  0.1517
   23DC     O5'  701   3.222   4.261   9.263  0.2016 -0.0457 -0.2375
   23DC     C5'  702   3.106   4.183   9.244  0.0792  0.1161 -0.1677
   23DC    H5'1  703   3.046   4.212   9.158 -0.8993 -0.9028  0.1575
   23DC    H5'2  704   3.050   4.183   9.337 -0.7222 -1.3542 -0.6167
   23DC     C4'  705   3.133   4.034   9.220  0.4397  0.1823 -0.1867
   23DC     H4'  706   3.036   3.984   9.211  0.4755  0.2733 -1.1581
   23DC     O4'  707   3.212   4.028   9.104  1.0542  0.2364  0.2282
   23DC     C1'  708   3.294   3.913   9.114  0.1122 -0.4335  0.2938
   23DC     H1'  709   3.266   3.839   9.038  2.6641 -0.9402 -0.2236
   23DC      N1  710   3.437   3.943   9.098  0.1401 -0.3973  0.6213
   23DC      C6  711   3.488   4.062   9.143 -0.1414 -0.1445  0.2805
   23DC      H6  712   3.422   4.136   9.185 -1.4880 -0.7658 -0.6615
   23DC      C5  713   3.620   4.091   9.133 -0.2798  0.3474 -0.1067
   23DC      H5  714   3.660   4.183   9.172 -1.0128  0.5663  0.1439
   23DC      C4  715   3.707   3.989   9.083  0.0029  0.2137  0.6505
   23DC      N4  716   3.840   3.993   9.074 -0.0495 -0.0912 -0.2975
   23DC     H41  717   3.885   4.082   9.087 -0.7896  0.2282  0.0979
   23DC     H42  718   3.899   3.914   9.051 -1.7916 -1.6006  0.1882
   23DC      N3  719   3.656   3.876   9.032  0.5016  0.1924  0.1976
   23DC      C2  720   3.523   3.850   9.043  0.5512  0.0603  0.4852
   23DC      O2  721   3.478   3.743   9.004 -0.3598  0.4647  0.4055
   23DC     C3'  722   3.213   3.971   9.333 -0.1599  0.0932  0.1934
   23DC     H3'  723   3.281   4.046   9.374 -1.1673  0.7658  0.6740
   23DC     C2'  724   3.271   3.855   9.253 -0.3213 -0.1043  0.3616
   23DC    H2'1  725   3.366   3.820   9.293  1.1369  2.5340 -0.5850
   23DC    H2'2  726   3.193   3.778   9.245  1.2354 -2.0035  2.2493
   23DC     O3'  727   3.138   3.911   9.437 -0.0036  0.1807  0.3556
   24DG       P  728   3.215   3.850   9.565  0.3367  0.2130  0.1695
   24DG     O1P  729   3.116   3.813   9.669 -0.0253 -0.2595 -0.3454
   24DG     O2P  730   3.323   3.947   9.595  0.3326  0.2627  0.0241
   24DG     O5'  731   3.290   3.714   9.526  0.1722  0.1964 -0.0936
   24DG     C5'  732   3.227   3.589   9.513 -0.0880  0.3059  0.1212
   24DG    H5'1  733   3.165   3.597   9.424 -1.0955  0.8170  0.8358
   24DG    H5'2  734   3.168   3.556   9.599 -1.7479  0.0733 -1.0540
   24DG     C4'  735   3.331   3.481   9.483 -0.1520  0.1822  0.3401
   24DG     H4'  736   3.279   3.386   9.477  0.1645 -0.1201  1.9798
   24DG     O4'  737   3.389   3.499   9.356  0.0184  0.4490  0.4540
   24DG     C1'  738   3.523   3.454   9.363 -0.1316 -0.0514  0.1807
   24DG     H1'  739   3.537   3.377   9.288 -0.7201 -1.8651  1.8438
   24DG      N9  740   3.625   3.560   9.355 -0.1041 -0.0893  0.0372
   24DG      C8  741   3.608   3.691   9.391 -0.7339 -0.1782  0.0743
   24DG      H8  742   3.514   3.727   9.432  0.3082 -0.6588  3.1311
   24DG      N7  743   3.715   3.760   9.363 -0.3679 -0.8130 -0.1032
   24DG      C5  744   3.811   3.668   9.323 -0.1204 -0.4075 -0.4512
   24DG      C6  745   3.944   3.680   9.274 -0.0085 -0.0504 -0.0679
   24DG      O6  746   4.008   3.784   9.262 -0.3411  0.1843  0.2070
   24DG      N1  747   4.008   3.561   9.241  0.1046 -0.0620  0.1910
   24DG      H1  748   4.103   3.559   9.206  0.3377  0.1384  0.7973
   24DG      C2  749   3.943   3.440   9.249 -0.6228  0.3133  0.0741
   24DG      N2  750   4.004   3.325   9.216 -0.2176  0.4370  0.3918
   24DG     H21  751   4.099   3.324   9.181 -0.3625  0.0645  0.0006
   24DG     H22  752   3.949   3.240   9.216 -0.2349  0.4395 -0.7097
   24DG      N3  753   3.815   3.426   9.286 -0.5834 -0.4916 -0.0623
   24DG      C4  754   3.759   3.541   9.330 -0.0980 -0.3817  0.2851
   24DG     C3'  755   3.438   3.465   9.590  0.2685 -0.2324 -0.1425
   24DG     H3'  756   3.469   3.567   9.613  3.0800 -0.9249 -0.4646
   24DG     C2'  757   3.535   3.388   9.500  0.2369 -0.4121 -0.0237
   24DG    H2'1  758   3.632   3.384   9.548  0.5622 -0.9458 -0.7083
   24DG    H2'2  759   3.499   3.286   9.482 -1.4832  0.2098 -0.3684
   24DG     O3'  760   3.389   3.388   9.698 -0.5614  0.2630 -0.1550
   25DC       P  761   3.461   3.382   9.842 -0.2377  0.0502 -0.3233
   25DC     O1P  762   3.376   3.298   9.928  0.0934 -0.2050 -0.2439
   25DC     O2P  763   3.491   3.520   9.886  0.5390 -0.1309 -0.2727
   25DC     O5'  764   3.603   3.309   9.823  0.1030  0.4733  0.5421
   25DC     C5'  765   3.615   3.177   9.774 -0.2615  0.6656 -0.0791
   25DC    H5'1  766   3.538   3.168   9.697 -0.8720  0.1110  0.5745
   25DC    H5'2  767   3.595   3.097   9.845 -0.2447  0.9829  0.2865
   25DC     C4'  768   3.750   3.137   9.717 -0.6058 -0.3552 -0.1971
   25DC     H4'  769   3.751   3.036   9.676 -2.8213 -0.8236  0.7797
   25DC     O4'  770   3.793   3.225   9.615 -0.4620 -0.3701 -0.1492
   25DC     C1'  771   3.933   3.244   9.616 -0.4817 -0.1718 -0.7135
   25DC     H1'  772   3.976   3.196   9.528  1.6518 -0.9027  0.6450
   25DC      N1  773   3.971   3.386   9.621  0.0584 -0.3326  0.0503
   25DC      C6  774   3.884   3.480   9.668  0.1435 -0.0518 -0.3402
   25DC      H6  775   3.793   3.443   9.713  0.4468  0.1197  0.4471
   25DC      C5  776   3.914   3.611   9.670 -0.0566 -0.0044 -0.4162
   25DC      H5  777   3.846   3.686   9.709 -0.0673  0.5996 -1.5481
   25DC      C4  778   4.042   3.644   9.614  0.2667  0.2594  0.4552
   25DC      N4  779   4.069   3.774   9.592  0.5192  0.0483 -0.5276
   25DC     H41  780   4.002   3.847   9.608  0.9347  0.3172  0.0566
   25DC     H42  781   4.151   3.789   9.535  0.0654 -0.4381 -1.3276
   25DC      N3  782   4.133   3.554   9.576  0.3435  0.5666 -0.0939
   25DC      C2  783   4.098   3.423   9.580 -0.2790  0.7337 -0.0534
   25DC      O2  784   4.179   3.341   9.539 -0.6515  0.7122 -0.7705
   25DC     C3'  785   3.858   3.145   9.824 -0.2041 -0.6088 -0.5777
   25DC     H3'  786   3.843   3.239   9.878 -0.7224 -1.5380  0.9515
   25DC     C2'  787   3.984   3.173   9.742 -0.3592  0.2253 -0.5384
   25DC    H2'1  788   4.057   3.238   9.790 -0.5371  0.7344 -0.9366
   25DC    H2'2  789   4.031   3.078   9.718 -0.3855  0.0100  0.2291
   25DC     O3'  790   3.884   3.033   9.905 -0.7230 -0.2939  0.0397
   25DC     H3T  791   3.873   2.948   9.862 -1.1913 -0.2677  0.1045
   26G      O5'  792   5.030   3.946   9.177 -0.8166 -0.1916  0.0543
   26G      H5T  793   5.062   4.031   9.208  2.0600 -1.5784  1.3725
   26G      C5'  794   5.128   3.845   9.192 -0.4430  0.1532 -0.0574
   26G     H5'1  795   5.203   3.876   9.264 -0.1319  0.1023 -0.3541
   26G     H5'2  796   5.177   3.836   9.095  0.6091 -1.9794  0.6018
   26G      C4'  797   5.074   3.707   9.228 -0.6427  0.1838 -0.2362
   26G      H4'  798   5.153   3.633   9.235 -2.3673 -1.8675 -1.2799
   26G      O4'  799   5.012   3.727   9.353 -0.4350  0.0117 -0.1053
   26G      C1'  800   4.888   3.661   9.356 -0.3512 -0.1423 -0.0206
   26G      H1'  801   4.885   3.602   9.447  0.7283  0.8845  0.7104
   26G       N9  802   4.762   3.738   9.361  0.0323  0.4453  0.7311
   26G       C8  803   4.741   3.873   9.346  0.0205  0.3196 -0.4839
   26G       H8  804   4.823   3.942   9.338  1.2046 -0.9802  0.0710
   26G       N7  805   4.615   3.904   9.365  0.1571  0.3639  0.3877
   26G       C5  806   4.549   3.784   9.388  0.0784  0.2351 -0.4672
   26G       C6  807   4.417   3.753   9.429  0.1770  0.4167 -0.0016
   26G       O6  808   4.325   3.831   9.458 -0.0539 -0.0271  0.4806
   26G       N1  809   4.388   3.620   9.455  0.8219  0.3287  0.2894
   26G       H1  810   4.300   3.592   9.498  1.0974 -0.1845  0.5287
   26G       C2  811   4.484   3.522   9.446  0.1382 -0.3001 -0.3427
   26G       N2  812   4.453   3.397   9.481 -0.6186 -0.0348 -0.0449
   26G      H21  813   4.361   3.364   9.506 -0.7656 -1.2664 -1.9923
   26G      H22  814   4.528   3.330   9.465 -0.6693 -0.1314  0.1239
   26G       N3  815   4.612   3.552   9.416  0.1738  0.1707  0.2646
   26G       C4  816   4.640   3.681   9.389  0.0274  0.1865  0.1880
   26G      C3'  817   4.968   3.648   9.135 -0.3522 -0.2346 -0.3069
   26G      H3'  818   4.904   3.724   9.089 -1.0215 -0.3834  0.3460
   26G      C2'  819   4.892   3.564   9.238 -0.1888 -0.0839 -0.0623
   26G     H2'1  820   4.795   3.558   9.190  0.3640  4.7537 -2.4155
   26G      O2'  821   4.946   3.440   9.277  0.0111 -0.0714 -0.2923
   26G     HO'2  822   4.964   3.447   9.371 -0.0666  0.1151 -0.2913
   26G      O3'  823   5.040   3.571   9.042 -0.4189 -0.7595  0.0758
   27C        P  824   4.988   3.546   8.892 -0.1078  0.3444 -0.2199
   27C      O1P  825   5.104   3.477   8.832  0.0034  0.5293 -0.2187
   27C      O2P  826   4.946   3.675   8.832 -0.1279  0.3981 -0.0930
   27C      O5'  827   4.856   3.455   8.905  0.1300 -0.0368 -0.4671
   27C      C5'  828   4.861   3.320   8.945 -0.0986  0.2598  0.6165
   27C     H5'1  829   4.915   3.331   9.038 -0.1661  2.0088  0.4692
   27C     H5'2  830   4.912   3.256   8.872 -0.5266  1.9636 -1.2712
   27C      C4'  831   4.726   3.263   8.989 -0.0331 -0.2208  0.2135
   27C      H4'  832   4.750   3.159   9.008  1.3719 -0.4456 -2.3261
   27C      O4'  833   4.666   3.318   9.104 -0.2331  0.3667 -0.1644
   27C      C1'  834   4.526   3.309   9.098 -0.2106 -0.0505 -0.0935
   27C      H1'  835   4.493   3.261   9.190 -2.3463 -1.4024 -1.4810
   27C       N1  836   4.467   3.445   9.103  0.4238  0.2032  0.7190
   27C       C6  837   4.534   3.556   9.060 -0.4453  0.3158 -0.3751
   27C       H6  838   4.634   3.537   9.027 -0.6328  2.9446 -2.8391
   27C       C5  839   4.478   3.679   9.070  0.2943  0.5708  0.9176
   27C       H5  840   4.520   3.773   9.039 -3.1087  2.0220  0.1801
   27C       C4  841   4.340   3.678   9.111 -0.0297 -0.4255 -0.1248
   27C       N4  842   4.263   3.787   9.120 -0.5895 -0.7709 -0.6287
   27C      H41  843   4.288   3.878   9.084 -1.6078  0.1703  0.9058
   27C      H42  844   4.171   3.764   9.153 -0.4815 -1.0175 -0.4998
   27C       N3  845   4.273   3.571   9.155 -0.2701 -0.3386 -0.2758
   27C       C2  846   4.339   3.452   9.153  0.0871 -0.1476 -0.0738
   27C       O2  847   4.277   3.356   9.198  0.3317 -0.0660  0.4420
   27C      C3'  848   4.611   3.263   8.889 -0.0852 -0.4144  0.2732
   27C      H3'  849   4.592   3.362   8.847 -1.1313 -0.0687  1.4817
   27C      C2'  850   4.490   3.226   8.975 -0.6139  0.2372 -0.1740
   27C     H2'1  851   4.395   3.252   8.930  0.7974  1.0800 -2.9084
   27C      O2'  852   4.487   3.090   9.011  0.1115  0.1478 -0.4237
   27C     HO'2  853   4.394   3.072   9.029 -0.4222  3.7866  1.3790
   27C      O3'  854   4.628   3.163   8.791 -0.0390 -0.1628  0.0240
   28G        P  855   4.558   3.162   8.646 -0.1056  0.0063  0.0550
   28G      O1P  856   4.583   3.035   8.574 -0.4697  0.0248 -0.1102
   28G      O2P  857   4.584   3.292   8.581 -0.2092  0.0948  0.1884
   28G      O5'  858   4.400   3.158   8.679 -0.1580  0.5695 -0.1166
   28G      C5'  859   4.336   3.038   8.716  0.0697  0.6526  0.5675
   28G     H5'1  860   4.385   2.988   8.800 -0.4907 -0.4418  0.2581
   28G     H5'2  861   4.331   2.971   8.630 -0.8603 -0.0762  1.1794
   28G      C4'  862   4.191   3.070   8.748 -0.2564 -0.4227  0.1941
   28G      H4'  863   4.150   2.974   8.780 -0.2521 -0.9627 -1.3418
   28G      O4'  864   4.180   3.160   8.856  0.0620  0.1130 -0.2128
   28G      C1'  865   4.054   3.223   8.842  0.0031  0.0580  0.0638
   28G      H1'  866   3.992   3.199   8.929 -0.2223  0.5780  0.0525
   28G       N9  867   4.080   3.368   8.846  0.0524  0.0494  0.0581
   28G       C8  868   4.194   3.441   8.822 -0.1366  0.0076 -1.0358
   28G       H8  869   4.290   3.396   8.807  1.4525  1.9373  2.2193
   28G       N7  870   4.180   3.569   8.842 -0.4224 -0.1536 -0.1743
   28G       C5  871   4.046   3.585   8.878 -0.2659 -0.1145  0.4099
   28G       C6  872   3.976   3.703   8.914 -0.1773 -0.0011  0.2150
   28G       O6  873   4.011   3.819   8.931  0.1496 -0.0937  0.1766
   28G       N1  874   3.842   3.672   8.935 -0.3205  0.2711 -0.2723
   28G       H1  875   3.779   3.748   8.957  0.3993  0.6492  0.5664
   28G       C2  876   3.784   3.547   8.922 -0.3351  0.2128  0.3241
   28G       N2  877   3.654   3.529   8.951 -0.3505  0.4200  0.3893
   28G      H21  878   3.594   3.609   8.963 -0.2494  0.8225 -1.5029
   28G      H22  879   3.616   3.436   8.958  1.1035 -0.2910 -0.6429
   28G       N3  880   3.854   3.436   8.897 -0.2399  0.2782  0.2991
   28G       C4  881   3.986   3.462   8.878 -0.2199 -0.1419 -0.1760
   28G      C3'  882   4.106   3.127   8.635 -0.0488 -0.2111  0.1448
   28G      H3'  883   4.156   3.211   8.585 -1.0041  1.1502  1.3791
   28G      C2'  884   3.985   3.178   8.713 -0.0184 -0.1366  0.1430
   28G     H2'1  885   3.951   3.265   8.657  1.0227  1.0687  1.3071
   28G      O2'  886   3.896   3.070   8.730  0.0466 -0.1674  0.2909
   28G     HO'2  887   3.858   3.055   8.643 -1.2821  1.1655  0.5983
   28G      O3'  888   4.067   3.036   8.534  0.5445 -0.0736 -0.2143
   29C        P  889   4.026   3.077   8.384 -0.0844 -0.1213 -0.0600
   29C      O1P  890   3.999   2.953   8.308  0.4155 -0.1623 -0.1786
   29C      O2P  891   4.128   3.174   8.337 -0.2890 -0.0492 -0.3592
   29C      O5'  892   3.884   3.152   8.393  0.1030  0.1256  0.9478
   29C      C5'  893   3.760   3.090   8.418  0.2766 -0.3503  0.6542
   29C     H5'1  894   3.761   3.026   8.506  0.1754  0.0583  0.9569
   29C     H5'2  895   3.727   3.043   8.325 -2.9267  1.2683  0.8267
   29C      C4'  896   3.650   3.189   8.455  0.7617  0.4559 -0.0302
   29C      H4'  897   3.558   3.140   8.488  0.5948  1.3335  0.8669
   29C      O4'  898   3.703   3.275   8.554  0.5609  0.1178  0.3766
   29C      C1'  899   3.630   3.395   8.552  0.5610  0.1160 -0.2428
   29C      H1'  900   3.565   3.397   8.640  0.5159  0.1722 -0.2769
   29C       N1  901   3.716   3.515   8.542  0.3154  0.3541  0.3804
   29C       C6  902   3.846   3.496   8.504  0.1323 -0.0816 -0.0450
   29C       H6  903   3.879   3.397   8.476  1.2424 -0.1090  1.2619
   29C       C5  904   3.936   3.596   8.515  0.0562 -0.0078 -0.0907
   29C       H5  905   4.040   3.570   8.501  0.9833  0.3312  4.6100
   29C       C4  906   3.888   3.722   8.563  0.1604 -0.1753  0.4598
   29C       N4  907   3.963   3.833   8.569 -0.3243  0.1993 -0.3128
   29C      H41  908   4.051   3.834   8.520  0.0287  0.6283  0.3232
   29C      H42  909   3.920   3.919   8.602 -0.7775  0.3619 -1.2969
   29C       N3  910   3.762   3.739   8.605  0.1958  0.2295  0.4087
   29C       C2  911   3.674   3.636   8.592 -0.1061  0.5988 -0.5478
   29C       O2  912   3.564   3.649   8.646  0.1396  0.2227  0.0450
   29C      C3'  913   3.599   3.279   8.342  0.2597  0.4291  0.1713
   29C      H3'  914   3.682   3.321   8.286  1.6997 -1.2902  0.9299
   29C      C2'  915   3.534   3.382   8.434 -0.4209 -0.3547  0.5905
   29C     H2'1  916   3.526   3.478   8.382  2.0576 -1.0622 -1.2831
   29C      O2'  917   3.411   3.344   8.491 -0.5426 -0.0709  0.5192
   29C     HO'2  918   3.343   3.371   8.429  1.1431 -1.5049 -2.1328
   29C      O3'  919   3.514   3.202   8.261  0.7363  0.2680 -0.1741
   30A        P  920   3.462   3.268   8.123  0.3079 -0.0320 -0.1598
   30A      O1P  921   3.351   3.182   8.075  0.1240  0.3632 -0.4473
   30A      O2P  922   3.580   3.302   8.041  0.7453 -0.8438  0.1169
   30A      O5'  923   3.396   3.411   8.155 -0.1691 -0.1533 -0.6009
   30A      C5'  924   3.260   3.430   8.190  0.0126 -0.0047  0.0405
   30A     H5'1  925   3.240   3.356   8.268 -0.6048  0.9418  0.7999
   30A     H5'2  926   3.213   3.412   8.093  0.4262  2.8072 -0.7644
   30A      C4'  927   3.223   3.570   8.237  0.0626  0.1298 -0.3203
   30A      H4'  928   3.118   3.567   8.267  0.2204  1.7561  0.4901
   30A      O4'  929   3.318   3.608   8.333  0.2450 -0.1253 -0.3975
   30A      C1'  930   3.323   3.749   8.336  0.0501 -0.1202 -0.3209
   30A      H1'  931   3.292   3.800   8.428 -1.3387  3.3230 -2.4696
   30A       N9  932   3.466   3.783   8.326  0.0287  0.2523  0.5224
   30A       C8  933   3.565   3.711   8.265 -0.2981  0.1334  0.1288
   30A       H8  934   3.562   3.611   8.223 -0.6431 -0.0829  0.6667
   30A       N7  935   3.676   3.780   8.265 -0.2384  0.0366  0.1390
   30A       C5  936   3.651   3.900   8.331 -0.4046  0.1998 -0.2215
   30A       C6  937   3.718   4.020   8.359  0.2855 -0.1600 -0.3009
   30A       N6  938   3.851   4.025   8.374  0.2407 -0.0050  0.0471
   30A      H61  939   3.906   3.941   8.367  0.9770  0.3813  1.0683
   30A      H62  940   3.891   4.111   8.408  0.2830 -0.1617  0.3986
   30A       N1  941   3.650   4.127   8.402 -0.0669 -0.4576 -0.1052
   30A       C2  942   3.520   4.118   8.421 -0.0127 -0.1952  0.3982
   30A       H2  943   3.470   4.210   8.447 -1.7365 -0.6276 -1.1239
   30A       N3  944   3.443   4.013   8.397 -0.6375  0.2739  0.3240
   30A       C4  945   3.515   3.909   8.349 -0.2737  0.3317  0.7409
   30A      C3'  946   3.230   3.682   8.134  0.5609 -0.1918 -0.6400
   30A      H3'  947   3.314   3.663   8.067 -1.0963 -1.8577 -2.3549
   30A      C2'  948   3.238   3.806   8.223  0.1362 -0.2856 -0.4674
   30A     H2'1  949   3.282   3.894   8.175  0.9682 -0.8943 -0.8577
   30A      O2'  950   3.109   3.834   8.272  0.4997 -0.3535  0.5346
   30A     HO'2  951   3.048   3.806   8.204 -1.9831  1.4451  1.8454
   30A      O3'  952   3.107   3.680   8.066  0.0130  0.5342  0.3046
   31G        P  953   3.104   3.723   7.911  0.0110  0.0043  0.1568
   31G      O1P  954   2.969   3.701   7.854  0.1627 -0.2889 -0.0954
   31G      O2P  955   3.225   3.664   7.850  0.1751  0.2740  0.2214
   31G      O5'  956   3.127   3.882   7.919 -0.1351  0.0586 -0.4357
   31G      C5'  957   3.023   3.971   7.952 -0.0377 -0.0318  0.1193
   31G     H5'1  958   2.971   3.941   8.043 -0.0792 -2.5108 -0.6431
   31G     H5'2  959   2.957   3.962   7.866  1.6781 -0.2153 -1.2340
   31G      C4'  960   3.080   4.110   7.979 -0.0853 -0.0070  0.0889
   31G      H4'  961   2.999   4.176   8.010  0.4926  0.8137 -0.1031
   31G      O4'  962   3.180   4.099   8.077 -0.1671 -0.1020  0.1613
   31G      C1'  963   3.266   4.210   8.065 -0.1781 -0.0623  0.4417
   31G      H1'  964   3.263   4.280   8.149  3.7193 -1.6603  2.1783
   31G       N9  965   3.405   4.161   8.056 -0.2744 -0.2355 -0.1804
   31G       C8  966   3.462   4.042   8.021  0.6010  0.2116 -0.2982
   31G       H8  967   3.405   3.957   7.989 -2.6077  0.3776  4.1565
   31G       N7  968   3.593   4.047   8.014  0.5885  0.1805 -0.5762
   31G       C5  969   3.622   4.172   8.068  0.4775 -0.2708  0.5564
   31G       C6  970   3.748   4.232   8.095  0.4717  0.0564 -0.1199
   31G       O6  971   3.861   4.182   8.090  0.4269 -0.0389 -0.1960
   31G       N1  972   3.740   4.365   8.135  0.3153 -0.0122  0.0849
   31G       H1  973   3.824   4.418   8.153  0.0404  0.8142 -0.9714
   31G       C2  974   3.619   4.430   8.139  0.2534 -0.1479  0.4637
   31G       N2  975   3.618   4.563   8.158  0.5199  0.0298 -0.6683
   31G      H21  976   3.706   4.612   8.166 -0.5149  1.7519  1.3991
   31G      H22  977   3.528   4.608   8.166  0.7355  0.2419  1.0037
   31G       N3  978   3.497   4.374   8.129  0.5132 -0.6042 -0.1922
   31G       C4  979   3.509   4.246   8.089  0.0951 -0.4893 -0.6909
   31G      C3'  980   3.157   4.173   7.863  0.1040 -0.0291  0.2018
   31G      H3'  981   3.231   4.110   7.814  0.8130  0.7420  0.2436
   31G      C2'  982   3.231   4.285   7.937  0.2698 -0.1714  0.2521
   31G     H2'1  983   3.314   4.337   7.890 -0.4479  1.3783  0.6404
   31G      O2'  984   3.136   4.381   7.979  0.1864 -0.1804  0.0848
   31G     HO'2  985   3.086   4.395   7.898 -0.5825 -2.1150  0.1661
   31G      O3'  986   3.064   4.224   7.771  0.4159  0.0443 -0.0746
   32A        P  987   3.109   4.272   7.624 -0.0847 -0.0395 -0.2584
   32A      O1P  988   2.989   4.326   7.556 -0.1608 -0.0495 -0.1319
   32A      O2P  989   3.189   4.161   7.567 -0.0101 -0.0970 -0.0443
   32A      O5'  990   3.206   4.399   7.644 -0.1902  0.0889 -0.5542
   32A      C5'  991   3.152   4.526   7.676 -0.1148 -0.1582  0.6119
   32A     H5'1  992   3.099   4.532   7.771 -0.3204  2.1228  0.4095
   32A     H5'2  993   3.083   4.560   7.599 -0.0052  1.6110  1.2582
   32A      C4'  994   3.265   4.628   7.690  0.0025 -0.1777 -0.1605
   32A      H4'  995   3.215   4.719   7.723 -0.1247 -1.1989  2.7014
   32A      O4'  996   3.347   4.610   7.803  0.2181  0.0045 -0.2866
   32A      C1'  997   3.481   4.647   7.781  0.1707  0.1230 -0.3742
   32A      H1'  998   3.523   4.704   7.864  0.5697  0.4731 -0.8124
   32A       N9  999   3.565   4.527   7.766 -0.0079  0.0247 -0.5983
   32A       C8 1000   3.532   4.396   7.743 -0.1979 -0.0556  0.1146
   32A       H8 1001   3.429   4.372   7.719  0.2811 -0.1837 -1.9923
   32A       N7 1002   3.637   4.320   7.752  0.0772  0.3491  0.3411
   32A       C5 1003   3.745   4.404   7.780  0.2314  0.2418  0.0729
   32A       C6 1004   3.882   4.385   7.803  0.1355 -0.7384 -0.0982
   32A       N6 1005   3.946   4.268   7.814  0.2428 -0.6653  0.0693
   32A      H61 1006   3.898   4.182   7.793 -1.5479 -0.0958  1.4861
   32A      H62 1007   4.042   4.266   7.843  0.9636  2.6985 -1.5678
   32A       N1 1008   3.958   4.488   7.843 -0.8158 -0.2139  0.4208
   32A       C2 1009   3.899   4.606   7.855  0.0266  0.2478  0.1528
   32A       H2 1010   3.965   4.683   7.891 -0.8228  1.8613 -1.5723
   32A       N3 1011   3.775   4.641   7.822 -0.0350  0.0581  0.1820
   32A       C4 1012   3.702   4.534   7.783 -0.0955  0.1345  0.0846
   32A      C3' 1013   3.364   4.649   7.576 -0.0226  0.2386 -0.1074
   32A      H3' 1014   3.398   4.552   7.538  2.3563  1.0854 -0.3325
   32A      C2' 1015   3.477   4.722   7.648  0.2024  0.1462 -0.3623
   32A     H2'1 1016   3.575   4.707   7.603 -0.2504 -0.3250 -1.2255
   32A      O2' 1017   3.448   4.854   7.686 -0.0902 -0.0337  0.0482
   32A     HO'2 1018   3.521   4.901   7.726 -1.0527  2.4611 -0.9153
   32A      O3' 1019   3.310   4.720   7.468  0.0345 -0.1006 -0.3625
   33U        P 1020   3.379   4.728   7.323 -0.0430 -0.2168 -0.4063
   33U      O1P 1021   3.293   4.823   7.248 -0.1640 -0.1331 -0.1595
   33U      O2P 1022   3.401   4.590   7.273  0.1133 -0.2061 -0.3687
   33U      O5' 1023   3.525   4.791   7.348 -0.0533 -0.2295 -0.3161
   33U      C5' 1024   3.538   4.930   7.373  0.2415 -0.1806 -0.7247
   33U     H5'1 1025   3.476   4.958   7.458 -0.7309 -0.0621 -1.4566
   33U     H5'2 1026   3.510   4.991   7.288 -1.1935 -0.0262 -0.1859
   33U      C4' 1027   3.682   4.967   7.407 -0.0810  0.6834 -0.2831
   33U      H4' 1028   3.689   5.072   7.437  1.7080 -0.3600  3.5162
   33U      O4' 1029   3.728   4.882   7.509  0.1489 -0.1541 -1.0729
   33U      C1' 1030   3.865   4.850   7.499  0.2992 -0.1137  0.5575
   33U      H1' 1031   3.924   4.900   7.576  1.4186 -0.9590  0.2858
   33U       N1 1032   3.889   4.704   7.504  0.1284 -0.1455  0.4619
   33U       C6 1033   3.805   4.614   7.446  0.0650 -0.2680  0.7427
   33U       H6 1034   3.713   4.648   7.400 -0.0109 -1.6305 -0.1721
   33U       C5 1035   3.827   4.482   7.432 -0.0054 -0.1200 -1.0619
   33U       H5 1036   3.752   4.416   7.391 -0.8689  2.1013 -3.3099
   33U       C4 1037   3.948   4.421   7.484 -0.1057  0.0114 -0.6737
   33U       O4 1038   3.978   4.302   7.489  0.2526  0.1117 -0.3979
   33U       N3 1039   4.030   4.515   7.544 -0.2487 -0.1536 -0.2098
   33U       H3 1040   4.115   4.482   7.588 -0.6315  0.8074  1.3578
   33U       C2 1041   4.007   4.652   7.554  0.0330 -0.1619  0.6708
   33U       O2 1042   4.092   4.724   7.605  0.2591  0.0821 -0.0442
   33U      C3' 1043   3.777   4.941   7.291 -0.0574 -0.0150 -0.1125
   33U      H3' 1044   3.740   4.853   7.239  0.6777 -0.0222 -0.6359
   33U      C2' 1045   3.907   4.908   7.365 -0.3387  0.1758  0.4800
   33U     H2'1 1046   3.959   4.833   7.305  0.2272  0.8019  0.1694
   33U      O2' 1047   3.992   5.016   7.395 -0.2136  0.2583 -0.1524
   33U     HO'2 1048   3.948   5.090   7.355  0.2717 -0.1205 -1.4489
   33U      O3' 1049   3.792   5.045   7.197 -0.2187 -0.0328 -0.1573
   34G        P 1050   3.850   5.012   7.050  0.3619 -0.1996  0.1064
   34G      O1P 1051   3.852   5.140   6.976 -0.0870 -0.2626 -0.0169
   34G      O2P 1052   3.769   4.902   6.993 -0.1310  0.4481 -0.4583
   34G      O5' 1053   3.999   4.953   7.067  0.1696 -0.5922  0.4473
   34G      C5' 1054   4.098   5.053   7.063 -0.1604 -0.2941 -0.7514
   34G     H5'1 1055   4.065   5.120   7.143  1.9083  0.2077 -0.2404
   34G     H5'2 1056   4.113   5.101   6.967  2.2627 -0.0020 -0.2937
   34G      C4' 1057   4.236   4.997   7.100 -0.3780 -0.5974 -0.3945
   34G      H4' 1058   4.305   5.080   7.112  0.5099 -1.5513  1.5117
   34G      O4' 1059   4.220   4.910   7.210  0.3985  0.0480  0.2417
   34G      C1' 1060   4.311   4.804   7.192  0.0090 -0.2605  0.0833
   34G      H1' 1061   4.389   4.815   7.266 -0.0525  0.4108  0.0520
   34G       N9 1062   4.251   4.670   7.200 -0.2322 -0.1806 -0.3250
   34G       C8 1063   4.119   4.632   7.196 -0.3806  0.2828  0.0947
   34G       H8 1064   4.037   4.697   7.166 -0.6607  0.6026  1.4862
   34G       N7 1065   4.103   4.507   7.229  0.1100  0.2751  0.3047
   34G       C5 1066   4.230   4.459   7.258  0.1086 -0.3396 -0.6534
   34G       C6 1067   4.273   4.329   7.297 -0.2202 -0.4380 -0.6199
   34G       O6 1068   4.212   4.223   7.301 -0.2569 -0.3914  0.3685
   34G       N1 1069   4.410   4.320   7.315 -0.2012  0.2481 -0.3577
   34G       H1 1070   4.449   4.228   7.331 -1.2011  0.0650  1.1729
   34G       C2 1071   4.495   4.428   7.306 -0.1103  0.2181  0.1317
   34G       N2 1072   4.626   4.406   7.326 -0.2686 -0.5747  0.3147
   34G      H21 1073   4.651   4.309   7.319 -0.4784 -0.5577 -0.7938
   34G      H22 1074   4.688   4.479   7.295 -2.1948  1.1299  0.1952
   34G       N3 1075   4.455   4.548   7.262 -0.2636  0.2924  0.4686
   34G       C4 1076   4.321   4.562   7.249 -0.2731  0.0989  0.3633
   34G      C3' 1077   4.287   4.912   6.984  0.1755  0.0038 -0.5970
   34G      H3' 1078   4.201   4.857   6.944 -1.2103  0.2725  1.7856
   34G      C2' 1079   4.380   4.816   7.057 -0.1974  0.0914  0.0069
   34G     H2'1 1080   4.381   4.715   7.014  1.2013  0.5495 -1.1318
   34G      O2' 1081   4.510   4.866   7.075 -0.2552  0.1596  0.2295
   34G     HO'2 1082   4.565   4.813   7.017 -0.7282 -0.0970  0.0157
   34G      O3' 1083   4.348   4.994   6.886  0.4045  0.1266 -0.3532
   35C        P 1084   4.377   4.944   6.736 -0.0498 -0.3209 -0.2958
   35C      O1P 1085   4.439   5.058   6.665 -0.3763  0.1585  0.1787
   35C      O2P 1086   4.247   4.891   6.688 -0.3756 -0.1965  0.4397
   35C      O5' 1087   4.488   4.828   6.751  0.3570  0.1311  0.1873
   35C      C5' 1088   4.625   4.861   6.765  0.3256  0.1791  0.3869
   35C     H5'1 1089   4.640   4.934   6.844  0.5613  0.3710  0.1665
   35C     H5'2 1090   4.658   4.913   6.675  0.4908  0.1223  0.4153
   35C      C4' 1091   4.719   4.745   6.795  0.3282  0.0185 -0.2154
   35C      H4' 1092   4.818   4.790   6.809 -0.8717  2.5772  0.6526
   35C      O4' 1093   4.674   4.684   6.914  0.2930  0.3296 -0.0688
   35C      C1' 1094   4.695   4.546   6.900 -0.2165  0.2687 -0.2712
   35C      H1' 1095   4.762   4.509   6.978  1.1494  0.4118 -1.3399
   35C       N1 1096   4.569   4.469   6.902  0.0246 -0.1207  0.4121
   35C       C6 1097   4.448   4.527   6.876  0.1541  0.0570  0.2097
   35C       H6 1098   4.434   4.620   6.823 -3.2340 -0.1220  0.5934
   35C       C5 1099   4.336   4.458   6.903 -0.1694  0.1914 -0.7286
   35C       H5 1100   4.236   4.498   6.905 -0.5708 -0.6659  2.1267
   35C       C4 1101   4.351   4.323   6.949  0.0397  0.1678 -0.8681
   35C       N4 1102   4.241   4.247   6.961 -0.1064  0.5317  0.1605
   35C      H41 1103   4.150   4.283   6.937 -1.0274 -0.3285  2.1196
   35C      H42 1104   4.268   4.154   6.988 -0.0506 -0.1896 -2.1234
   35C       N3 1105   4.469   4.265   6.975 -0.0996  0.2403 -0.0450
   35C       C2 1106   4.580   4.338   6.946  0.2787  0.0586  0.9035
   35C       O2 1107   4.691   4.286   6.947  0.3532  0.1960  0.2707
   35C      C3' 1108   4.723   4.640   6.685  0.1524 -0.2248  0.0072
   35C      H3' 1109   4.620   4.624   6.655 -0.5124  0.2042  1.9354
   35C      C2' 1110   4.772   4.524   6.770  0.0253 -0.3101 -0.0352
   35C     H2'1 1111   4.749   4.433   6.715 -0.4623 -0.2722  0.1036
   35C      O2' 1112   4.911   4.523   6.795  0.0434  0.0925 -0.1211
   35C     HO'2 1113   4.955   4.546   6.713 -0.7285 -1.0457 -0.8817
   35C      O3' 1114   4.814   4.680   6.584  0.1668 -0.2663  0.0043
   36C        P 1115   4.821   4.618   6.436  0.0111 -0.0603 -0.0915
   36C      O1P 1116   4.933   4.683   6.365 -0.0875 -0.4482 -0.6111
   36C      O2P 1117   4.687   4.620   6.373 -0.1316 -0.0779  0.2080
   36C      O5' 1118   4.856   4.462   6.457 -0.2001 -0.0112  0.6651
   36C      C5' 1119   4.987   4.417   6.485 -0.1913 -0.2930  0.1973
   36C     H5'1 1120   5.017   4.471   6.575 -1.1572 -0.2324  0.4913
   36C     H5'2 1121   5.051   4.431   6.399 -1.6861 -1.3479 -1.1354
   36C      C4' 1122   4.990   4.268   6.515  0.2343 -0.2864  0.1930
   36C      H4' 1123   5.093   4.239   6.537 -0.1451 -2.5716 -0.7088
   36C      O4' 1124   4.909   4.241   6.628  0.0068  0.1968  0.1454
   36C      C1' 1125   4.860   4.110   6.619 -0.2115  0.2881  0.0165
   36C      H1' 1126   4.909   4.049   6.694 -1.7198 -2.6391 -1.2121
   36C       N1 1127   4.712   4.101   6.620 -0.2160  0.3193 -0.1528
   36C       C6 1128   4.635   4.210   6.593 -0.8019 -0.0249  0.1173
   36C       H6 1129   4.683   4.293   6.543 -1.4908 -0.6025 -1.5683
   36C       C5 1130   4.505   4.212   6.628 -0.9686  0.1148 -0.5004
   36C       H5 1131   4.442   4.294   6.595 -1.0382 -0.4126 -1.7314
   36C       C4 1132   4.454   4.098   6.699 -0.3017  0.0579 -0.1096
   36C       N4 1133   4.323   4.083   6.723 -0.2895  0.2130  0.0536
   36C      H41 1134   4.269   4.168   6.716  0.3077  0.6065  0.1702
   36C      H42 1135   4.286   4.006   6.776 -1.0954  0.3323 -0.3285
   36C       N3 1136   4.525   3.986   6.720  0.1626  0.3785  0.0478
   36C       C2 1137   4.656   3.991   6.683  0.1609  0.2211  0.0201
   36C       O2 1138   4.717   3.887   6.702  0.3785  0.3808  0.1993
   36C      C3' 1139   4.935   4.182   6.402  0.2708 -0.0144 -0.0312
   36C      H3' 1140   4.844   4.230   6.366  0.1254 -0.2265  0.0519
   36C      C2' 1141   4.912   4.056   6.486 -0.2796  0.1381  0.0502
   36C     H2'1 1142   4.835   3.998   6.434  0.5148  0.5922 -1.7005
   36C      O2' 1143   5.029   3.983   6.514 -0.3262 -0.0112 -0.1393
   36C     HO'2 1144   5.097   4.028   6.464 -1.5849 -0.4012 -2.3154
   36C      O3' 1145   5.030   4.153   6.303  0.1015 -0.4650 -0.0648
   37C        P 1146   4.985   4.093   6.160 -0.0904 -0.3357 -0.0595
   37C      O1P 1147   5.102   4.093   6.070  0.0759 -0.1690  0.1552
   37C      O2P 1148   4.871   4.176   6.117  0.1119 -0.4130 -0.7649
   37C      O5' 1149   4.923   3.945   6.171 -0.6119 -0.1030  0.1204
   37C      C5' 1150   5.009   3.836   6.195 -0.0832  0.4100  0.5835
   37C     H5'1 1151   5.084   3.861   6.270 -0.8970  0.8052  1.2796
   37C     H5'2 1152   5.074   3.805   6.113  0.2091 -2.1360  1.6714
   37C      C4' 1153   4.926   3.716   6.242  0.1779  0.0085  0.0259
   37C      H4' 1154   4.994   3.640   6.280 -1.1656  0.1454  2.9377
   37C      O4' 1155   4.847   3.748   6.354  0.1293 -0.0234  0.0007
   37C      C1' 1156   4.730   3.669   6.356 -0.1455  0.3742 -0.0825
   37C      H1' 1157   4.746   3.602   6.441  3.1553  0.0691 -0.8009
   37C       N1 1158   4.604   3.746   6.361 -0.1738  0.2982  0.5971
   37C       C6 1159   4.604   3.879   6.329  0.3447  0.1161 -0.1920
   37C       H6 1160   4.686   3.930   6.280  1.0270  0.0993  0.8894
   37C       C5 1161   4.498   3.953   6.366  0.4228  0.1990 -0.1350
   37C       H5 1162   4.497   4.061   6.361  2.4834  0.3654  1.5624
   37C       C4 1163   4.392   3.888   6.438  0.1192  0.5162 -0.2899
   37C       N4 1164   4.279   3.949   6.476 -0.4470 -0.6006 -0.1403
   37C      H41 1165   4.272   4.049   6.475 -0.5010 -0.5819  1.0833
   37C      H42 1166   4.203   3.894   6.514 -0.2000 -0.3023  0.7855
   37C       N3 1167   4.388   3.756   6.459  0.4320  0.5177 -0.2218
   37C       C2 1168   4.496   3.683   6.420 -0.1487 -0.4256 -0.1114
   37C       O2 1169   4.503   3.567   6.459  0.3191 -0.2777  0.2514
   37C      C3' 1170   4.829   3.656   6.141 -0.1542  0.3958  0.1114
   37C      H3' 1171   4.777   3.739   6.093  0.6422 -0.4174 -2.3424
   37C      C2' 1172   4.736   3.579   6.234  0.0549  0.1322  0.1034
   37C     H2'1 1173   4.636   3.580   6.190 -0.6867  1.7136  1.7102
   37C      O2' 1174   4.770   3.447   6.268  0.3016  0.0510 -0.4510
   37C     HO'2 1175   4.773   3.394   6.187  1.7811  0.1140 -0.4696
   37C      O3' 1176   4.896   3.582   6.041 -0.2497  0.6682 -0.1564
   38U        P 1177   4.837   3.551   5.895  0.2398 -0.1583 -0.1853
   38U      O1P 1178   4.929   3.459   5.825  0.3471  0.0652 -0.3371
   38U      O2P 1179   4.799   3.676   5.826  0.3404  0.0934  0.2109
   38U      O5' 1180   4.707   3.461   5.924  0.2022  0.0615  0.3409
   38U      C5' 1181   4.715   3.320   5.931 -0.0771  0.0256 -0.0192
   38U     H5'1 1182   4.794   3.298   6.003 -0.0046 -0.7092 -0.3131
   38U     H5'2 1183   4.719   3.273   5.832 -1.0949 -0.6469  0.2494
   38U      C4' 1184   4.584   3.263   5.984  0.3317 -0.5180  0.4170
   38U      H4' 1185   4.604   3.163   6.022  1.4863  0.1445  1.6463
   38U      O4' 1186   4.536   3.339   6.093  0.1483 -0.0745  0.0301
   38U      C1' 1187   4.398   3.314   6.096  0.0954  0.1923 -0.1094
   38U      H1' 1188   4.374   3.251   6.182 -0.3705 -0.5402 -0.7606
   38U       N1 1189   4.326   3.442   6.115  0.0682  0.1264  0.2400
   38U       C6 1190   4.386   3.562   6.089  0.1255  0.1486  0.4797
   38U       H6 1191   4.474   3.565   6.027 -0.4733 -3.1704 -0.7508
   38U       C5 1192   4.328   3.682   6.111 -0.2357  0.1188 -0.2992
   38U       H5 1193   4.367   3.777   6.076 -1.8499  0.5564 -1.0375
   38U       C4 1194   4.206   3.690   6.187  0.5340 -0.5066  1.0407
   38U       O4 1195   4.146   3.790   6.225 -0.4895 -0.4765 -0.5534
   38U       N3 1196   4.150   3.565   6.211 -0.0079 -0.4360  0.1997
   38U       H3 1197   4.059   3.565   6.255  0.4896  2.2277  1.3944
   38U       C2 1198   4.198   3.442   6.167 -0.3028 -0.2548 -0.6474
   38U       O2 1199   4.135   3.340   6.193  0.7157 -0.6329  0.4350
   38U      C3' 1200   4.471   3.260   5.881  0.3355 -0.3577  0.4075
   38U      H3' 1201   4.451   3.359   5.840  1.8542  0.0548  0.5904
   38U      C2' 1202   4.353   3.233   5.974  0.0548 -0.1323  0.1187
   38U     H2'1 1203   4.258   3.266   5.932  1.6255  0.6142 -3.1326
   38U      O2' 1204   4.350   3.095   6.003  0.1890 -0.1370  0.1105
   38U     HO'2 1205   4.368   3.056   5.917  0.6859  0.3258 -0.0024
   38U      O3' 1206   4.485   3.153   5.791  0.0990  0.2728 -0.3903
   39U        P 1207   4.413   3.154   5.647 -0.2639 -0.0501 -0.2154
   39U      O1P 1208   4.431   3.022   5.583  0.2343 -0.1166  0.0581
   39U      O2P 1209   4.454   3.277   5.575  0.3207 -0.0606  0.0907
   39U      O5' 1210   4.258   3.157   5.689  0.0542  0.1806  0.9850
   39U      C5' 1211   4.184   3.042   5.723  0.1087  0.0026  0.5118
   39U     H5'1 1212   4.236   2.986   5.802  0.5582  0.4538  0.5398
   39U     H5'2 1213   4.183   2.978   5.635 -1.1610  0.6470  0.0439
   39U      C4' 1214   4.038   3.077   5.748  0.0803 -0.1431  0.5503
   39U      H4' 1215   3.990   2.982   5.773 -0.6650 -0.3249 -1.3914
   39U      O4' 1216   4.036   3.171   5.853  0.4634  0.2453  0.2118
   39U      C1' 1217   3.917   3.246   5.838  0.3914  0.1227  0.1652
   39U      H1' 1218   3.853   3.226   5.923  1.2656 -0.9488  0.6008
   39U       N1 1219   3.932   3.393   5.836 -0.0125  0.1652  0.1488
   39U       C6 1220   4.045   3.448   5.781  0.0534 -0.2367 -0.1221
   39U       H6 1221   4.118   3.391   5.726  1.5624  3.3549 -2.1532
   39U       C5 1222   4.063   3.578   5.809 -0.2086 -0.2715  0.2235
   39U       H5 1223   4.151   3.629   5.772 -0.9057  2.6689  2.1986
   39U       C4 1224   3.975   3.670   5.878 -0.1590 -0.3216  0.3534
   39U       O4 1225   3.983   3.788   5.910 -0.5038 -0.2043  0.0102
   39U       N3 1226   3.861   3.603   5.919 -0.0504 -0.2788  0.7209
   39U       H3 1227   3.786   3.663   5.953  0.7122  0.9136  0.3716
   39U       C2 1228   3.835   3.468   5.899 -0.1877 -0.1926  0.3127
   39U       O2 1229   3.728   3.426   5.940 -0.1833 -0.4192  0.0951
   39U      C3' 1230   3.974   3.147   5.628  0.3470 -0.6037  0.1352
   39U      H3' 1231   4.030   3.229   5.584 -0.5154 -0.1221 -0.0705
   39U      C2' 1232   3.857   3.209   5.703  0.6277 -0.0304  0.0994
   39U     H2'1 1233   3.820   3.293   5.643  1.7343  0.3980 -0.0072
   39U      O2' 1234   3.760   3.112   5.734  0.4255  0.0588 -0.2421
   39U     HO'2 1235   3.672   3.151   5.732  0.7568  0.8678  0.4266
   39U      O3' 1236   3.919   3.072   5.522 -0.1436  0.0597 -0.0810
   40C        P 1237   3.872   3.137   5.382 -0.5107  0.0651  0.0419
   40C      O1P 1238   3.852   3.021   5.293  0.5400 -0.1311  0.0386
   40C      O2P 1239   3.966   3.247   5.349 -0.5723  0.1329  0.0935
   40C      O5' 1240   3.729   3.205   5.409 -0.4211  0.2175  0.1352
   40C      C5' 1241   3.623   3.121   5.450 -0.0073 -0.5191 -0.2913
   40C     H5'1 1242   3.663   3.058   5.529 -0.6627 -0.4551  0.0918
   40C     H5'2 1243   3.587   3.050   5.375  1.2082  1.2808 -2.7517
   40C      C4' 1244   3.505   3.205   5.497  0.2796 -0.1260 -0.2678
   40C      H4' 1245   3.420   3.139   5.515 -0.4090  0.9269  0.4472
   40C      O4' 1246   3.531   3.277   5.616 -0.0734 -0.6107  0.1060
   40C      C1' 1247   3.462   3.400   5.617 -0.1353 -0.6438 -0.0125
   40C      H1' 1248   3.398   3.403   5.705  1.2275 -1.4375  1.0441
   40C       N1 1249   3.561   3.508   5.631 -0.5867 -0.1355 -0.6790
   40C       C6 1250   3.674   3.505   5.555  0.0863 -0.2649  0.2977
   40C       H6 1251   3.695   3.416   5.498 -0.9261 -0.6706  0.5449
   40C       C5 1252   3.755   3.613   5.546 -0.2109 -0.0300  0.4559
   40C       H5 1253   3.850   3.610   5.495  0.5586 -0.2008  1.8522
   40C       C4 1254   3.720   3.733   5.617  0.0687 -0.0863  0.6879
   40C       N4 1255   3.806   3.833   5.641  0.4226 -0.0868 -0.5113
   40C      H41 1256   3.897   3.819   5.600  1.6345 -0.4865  2.0911
   40C      H42 1257   3.770   3.924   5.665 -1.2789 -1.0780  0.9062
   40C       N3 1258   3.603   3.736   5.682 -0.0804 -0.2877  0.4312
   40C       C2 1259   3.520   3.629   5.684 -0.1838 -0.2181 -0.1563
   40C       O2 1260   3.403   3.644   5.720 -0.2159 -0.3779 -0.1917
   40C      C3' 1261   3.455   3.307   5.395  0.3677  0.2917  0.1014
   40C      H3' 1262   3.539   3.363   5.356  1.9920  0.0296  2.9610
   40C      C2' 1263   3.387   3.410   5.485  0.1183  0.2954 -0.0889
   40C     H2'1 1264   3.393   3.509   5.440 -3.8904  0.8856  0.3299
   40C      O2' 1265   3.248   3.392   5.503  0.1060  0.2563 -0.2243
   40C     HO'2 1266   3.220   3.313   5.456 -0.2515  0.3492 -0.1635
   40C      O3' 1267   3.380   3.262   5.284  0.3368  0.5173  0.0307
   41C        P 1268   3.388   3.351   5.150  0.0628  0.1596 -0.2221
   41C      O1P 1269   3.307   3.278   5.050 -0.1751  0.2198 -0.0745
   41C      O2P 1270   3.529   3.378   5.117  0.2188 -0.0854  0.2312
   41C      O5' 1271   3.306   3.487   5.178  0.3224  0.2394  0.1577
   41C      C5' 1272   3.167   3.476   5.200  0.2007  0.9868 -0.2283
   41C     H5'1 1273   3.146   3.410   5.284  0.3004  0.8443 -0.3162
   41C     H5'2 1274   3.113   3.438   5.114 -1.5345  0.2114  1.1511
   41C      C4' 1275   3.108   3.610   5.244  0.3885  0.8206  0.5511
   41C      H4' 1276   3.002   3.598   5.267  0.6511 -1.7830  0.6706
   41C      O4' 1277   3.180   3.653   5.357  0.4560  0.1036  0.7840
   41C      C1' 1278   3.187   3.794   5.349 -0.0183  0.0708 -0.4256
   41C      H1' 1279   3.138   3.828   5.440 -0.6785  1.4390 -1.2578
   41C       N1 1280   3.326   3.842   5.351  0.0203 -0.0671  0.3641
   41C       C6 1281   3.431   3.762   5.315 -0.0707  0.1433 -0.3727
   41C       H6 1282   3.416   3.663   5.276 -3.8814  1.0299 -1.6117
   41C       C5 1283   3.557   3.810   5.329 -0.0094 -0.2849  0.6105
   41C       H5 1284   3.634   3.744   5.292 -0.6409 -0.2492 -0.8437
   41C       C4 1285   3.575   3.946   5.370  0.1471 -0.1124 -0.0137
   41C       N4 1286   3.701   3.991   5.371  0.0570  0.1449 -0.2421
   41C      H41 1287   3.780   3.933   5.348  0.5516  0.7636 -0.1376
   41C      H42 1288   3.720   4.075   5.425 -0.0180  0.4376 -0.6666
   41C       N3 1289   3.470   4.022   5.404  0.0633 -0.2017 -0.0726
   41C       C2 1290   3.344   3.973   5.392 -0.0461  0.0835 -0.0901
   41C       O2 1291   3.252   4.053   5.410 -0.0775  0.0722 -0.2021
   41C      C3' 1292   3.121   3.718   5.136  0.2359  0.1137 -0.1868
   41C      H3' 1293   3.211   3.705   5.076 -0.0085  0.0372 -0.5364
   41C      C2' 1294   3.123   3.845   5.220  0.2471  0.2991 -0.4665
   41C     H2'1 1295   3.176   3.930   5.178 -2.3605  1.3048 -1.9305
   41C      O2' 1296   2.994   3.892   5.253  0.0501 -0.5594  0.0102
   41C     HO'2 1297   2.927   3.835   5.213  1.3576 -1.4860 -0.9634
   41C      O3' 1298   3.008   3.723   5.053  0.1738 -0.1595 -0.1191
   42G        P 1299   3.022   3.792   4.908 -0.3644  0.0322 -0.0824
   42G      O1P 1300   2.896   3.768   4.834 -0.1971  0.3568 -0.4803
   42G      O2P 1301   3.154   3.754   4.854 -0.5021  0.3855 -0.6815
   42G      O5' 1302   3.042   3.951   4.925  0.5407 -0.1226  0.3481
   42G      C5' 1303   2.934   4.034   4.960  0.4498 -0.3063  0.5117
   42G     H5'1 1304   2.884   3.997   5.049 -0.6751  0.6040  0.2877
   42G     H5'2 1305   2.858   4.034   4.882  0.4060  1.6505  0.5016
   42G      C4' 1306   2.965   4.179   4.996 -0.2388 -0.0393  0.0637
   42G      H4' 1307   2.872   4.228   5.023  1.5815  3.0495  1.2308
   42G      O4' 1308   3.059   4.184   5.101  0.4564 -0.1574 -0.5395
   42G      C1' 1309   3.147   4.292   5.082  0.2177  0.1756  0.2047
   42G      H1' 1310   3.154   4.362   5.166  3.3445  0.7773 -0.4189
   42G       N9 1311   3.282   4.235   5.066  0.1722 -0.0988  0.7877
   42G       C8 1312   3.329   4.110   5.038  0.0241 -0.1868  0.9335
   42G       H8 1313   3.263   4.037   4.991 -0.7118  1.2310 -0.3202
   42G       N7 1314   3.457   4.092   5.054  0.2524  0.1378 -0.3686
   42G       C5 1315   3.497   4.215   5.105  0.0762  0.2995 -0.6248
   42G       C6 1316   3.625   4.263   5.142  0.0048  0.0079  0.0062
   42G       O6 1317   3.733   4.205   5.154 -0.3303 -0.5883  0.1793
   42G       N1 1318   3.629   4.402   5.147  0.3927  0.0051 -0.2188
   42G       H1 1319   3.723   4.436   5.159  0.3317  0.0225  0.2271
   42G       C2 1320   3.523   4.488   5.132 -0.2034 -0.6204  0.3351
   42G       N2 1321   3.554   4.618   5.143 -0.3982 -0.5211 -0.2486
   42G      H21 1322   3.648   4.652   5.155 -1.4403  2.1027  1.4524
   42G      H22 1323   3.481   4.687   5.156  1.5475  1.6638 -0.1654
   42G       N3 1324   3.399   4.440   5.115 -0.5351  0.4412 -0.3490
   42G       C4 1325   3.393   4.305   5.107  0.1660  0.3900 -0.0097
   42G      C3' 1326   3.023   4.263   4.882  0.4067  0.2353  0.5853
   42G      H3' 1327   3.101   4.204   4.834  0.6966  0.5893  0.6165
   42G      C2' 1328   3.103   4.369   4.958  0.7808  0.3103  0.0867
   42G     H2'1 1329   3.184   4.407   4.896 -0.3246  1.3655 -0.7650
   42G      O2' 1330   3.029   4.481   4.998 -0.0851 -0.3964  0.4868
   42G     HO'2 1331   2.948   4.443   5.035 -1.1367 -1.7915 -2.8961
   42G      O3' 1332   2.931   4.320   4.791  0.7113  0.1294  0.2134
   43U        P 1333   2.981   4.336   4.638 -0.3012 -0.2298 -0.1608
   43U      O1P 1334   2.858   4.369   4.563 -0.1875 -0.3103 -0.3806
   43U      O2P 1335   3.054   4.214   4.596 -0.0385 -0.3330  0.5686
   43U      O5' 1336   3.080   4.462   4.634 -0.1006 -0.3805  0.0372
   43U      C5' 1337   3.039   4.592   4.670  0.2091 -0.2717  0.0052
   43U     H5'1 1338   2.994   4.582   4.769  1.9765  1.5602  1.0646
   43U     H5'2 1339   2.979   4.633   4.588 -0.3897  0.2374  0.6816
   43U      C4' 1340   3.162   4.680   4.689 -0.0382  0.0270  0.2348
   43U      H4' 1341   3.133   4.782   4.713  0.5891 -0.1227  1.8058
   43U      O4' 1342   3.234   4.634   4.801  0.0094 -0.0404  0.1763
   43U      C1' 1343   3.371   4.664   4.787 -0.0034 -0.0651  0.0020
   43U      H1' 1344   3.402   4.726   4.871 -1.2843 -0.7041  0.9721
   43U       N1 1345   3.467   4.553   4.776  0.3153  0.2319 -0.2402
   43U       C6 1346   3.420   4.426   4.762  0.7261 -0.0362  0.6997
   43U       H6 1347   3.317   4.414   4.733  1.0252 -0.8576 -0.0872
   43U       C5 1348   3.503   4.319   4.764  0.0470 -0.6112 -0.4627
   43U       H5 1349   3.467   4.221   4.736 -1.9696  0.2642 -1.1430
   43U       C4 1350   3.642   4.341   4.798 -0.0509 -0.0901 -0.3880
   43U       O4 1351   3.716   4.245   4.814 -0.5656 -0.3384  0.5820
   43U       N3 1352   3.685   4.473   4.801  0.1383 -0.1702  0.3949
   43U       H3 1353   3.783   4.488   4.823  0.9105 -0.2365 -2.6057
   43U       C2 1354   3.601   4.583   4.796  0.2594 -0.0637  0.6442
   43U       O2 1355   3.647   4.696   4.811 -0.0373  0.2260 -0.5356
   43U      C3' 1356   3.258   4.693   4.572 -0.2547  0.2346  0.0809
   43U      H3' 1357   3.279   4.601   4.518 -0.6732  0.4458 -0.4515
   43U      C2' 1358   3.378   4.739   4.654 -0.0084 -0.1631 -0.0540
   43U     H2'1 1359   3.467   4.714   4.596 -1.4903 -2.9206 -1.3285
   43U      O2' 1360   3.368   4.871   4.703  0.3929 -0.1842  0.0889
   43U     HO'2 1361   3.343   4.923   4.626  0.0980 -1.7929 -0.9427
   43U      O3' 1362   3.222   4.790   4.476 -0.7366 -0.2519 -0.2335
   44A        P 1363   3.285   4.801   4.328 -0.0942 -0.0069  0.0565
   44A      O1P 1364   3.215   4.908   4.254  0.1580 -0.0030 -0.1787
   44A      O2P 1365   3.300   4.666   4.269 -0.3003 -0.1187  0.2626
   44A      O5' 1366   3.440   4.840   4.353  0.0311 -0.1691 -0.4482
   44A      C5' 1367   3.476   4.974   4.381  0.0155 -0.1935 -0.3122
   44A     H5'1 1368   3.429   5.008   4.473  0.6492 -0.7490  0.2296
   44A     H5'2 1369   3.452   5.039   4.298 -0.1980  0.7026  0.4396
   44A      C4' 1370   3.623   4.992   4.417  0.0698 -0.5351 -0.3549
   44A      H4' 1371   3.641   5.092   4.458  0.7250 -0.9093  0.2926
   44A      O4' 1372   3.659   4.900   4.517  0.4055  0.2060  0.2137
   44A      C1' 1373   3.791   4.858   4.490  0.1942 -0.3537  0.0272
   44A      H1' 1374   3.853   4.891   4.574  0.1834 -1.9708  0.7051
   44A       N9 1375   3.803   4.712   4.487 -0.0952 -0.3755 -0.0573
   44A       C8 1376   3.708   4.617   4.459 -0.1149 -0.1646 -0.7375
   44A       H8 1377   3.608   4.648   4.432 -0.1550 -2.3658 -3.6090
   44A       N7 1378   3.748   4.494   4.474 -0.3708 -0.1929 -0.2757
   44A       C5 1379   3.878   4.510   4.521 -0.5157 -0.0800  0.0905
   44A       C6 1380   3.983   4.421   4.551 -0.3710  0.1944  0.3998
   44A       N6 1381   3.975   4.288   4.563  0.3942 -0.0517 -1.5485
   44A      H61 1382   3.887   4.246   4.537  0.1738 -1.1662  0.7650
   44A      H62 1383   4.049   4.236   4.608 -0.7931 -0.1677  0.3671
   44A       N1 1384   4.107   4.470   4.568 -0.4112  0.1185  0.9255
   44A       C2 1385   4.128   4.600   4.562  0.5870 -0.0739 -0.1299
   44A       H2 1386   4.231   4.626   4.582  0.6797 -0.5066 -0.0275
   44A       N3 1387   4.039   4.694   4.534  0.0630 -0.4131  0.3630
   44A       C4 1388   3.919   4.639   4.506 -0.0502 -0.1860  0.4005
   44A      C3' 1389   3.714   4.961   4.298  0.4338  0.0460 -0.2333
   44A      H3' 1390   3.663   4.875   4.254 -0.8969  1.2158 -1.0762
   44A      C2' 1391   3.846   4.925   4.364  0.2002  0.0482  0.2388
   44A     H2'1 1392   3.908   4.859   4.303 -0.4858  1.2759 -1.8781
   44A      O2' 1393   3.928   5.033   4.400  0.4933 -0.0840 -0.0277
   44A     HO'2 1394   4.012   5.028   4.354  0.3417 -1.3491 -0.1952
   44A      O3' 1395   3.731   5.064   4.202 -0.6311  0.2930 -0.1809
   45G        P 1396   3.756   5.025   4.048  0.1932  0.2464 -0.0427
   45G      O1P 1397   3.744   5.152   3.972  0.2377  0.0992 -0.2985
   45G      O2P 1398   3.666   4.911   4.024  0.6119 -0.1193  0.1223
   45G      O5' 1399   3.911   4.983   4.054  0.1251  0.0238  0.1591
   45G      C5' 1400   4.003   5.089   4.068  0.3133 -0.1344  0.1224
   45G     H5'1 1401   3.967   5.156   4.146 -0.8279 -0.7973  0.1804
   45G     H5'2 1402   4.024   5.137   3.972  1.0797  0.1482  0.4184
   45G      C4' 1403   4.143   5.040   4.104  0.1989 -0.5852 -0.0447
   45G      H4' 1404   4.204   5.129   4.114 -3.1357  1.8026  0.6636
   45G      O4' 1405   4.147   4.968   4.226 -0.1758 -0.2011  0.1960
   45G      C1' 1406   4.232   4.857   4.210  0.0656  0.0123 -0.0149
   45G      H1' 1407   4.300   4.857   4.295  0.7868  1.2431 -0.5641
   45G       N9 1408   4.164   4.726   4.208 -0.3848  0.2305  0.4622
   45G       C8 1409   4.042   4.690   4.157 -0.2262 -0.0761  0.2921
   45G       H8 1410   3.973   4.755   4.106  0.0262  0.5825  0.7746
   45G       N7 1411   4.014   4.563   4.158 -0.1456 -0.0980 -0.0248
   45G       C5 1412   4.130   4.509   4.212 -0.0432 -0.0594 -0.2088
   45G       C6 1413   4.162   4.377   4.253  0.0152  0.0905  0.2229
   45G       O6 1414   4.098   4.272   4.251  0.1102  0.0348  0.1290
   45G       N1 1415   4.296   4.359   4.287  0.0709  0.1410  0.0283
   45G       H1 1416   4.327   4.267   4.317 -0.2835  0.2912  0.8964
   45G       C2 1417   4.385   4.463   4.300  0.1371  0.0688  0.1507
   45G       N2 1418   4.510   4.421   4.323  0.1525  0.1697  0.2492
   45G      H21 1419   4.538   4.326   4.343  0.6443  0.0958 -0.7428
   45G      H22 1420   4.571   4.502   4.327  0.5418 -0.0122 -1.4559
   45G       N3 1421   4.352   4.591   4.277 -0.1517 -0.1383 -0.6117
   45G       C4 1422   4.224   4.605   4.237 -0.2827  0.1411 -0.0902
   45G      C3' 1423   4.208   4.953   3.997  0.6013 -0.1438 -0.1582
   45G      H3' 1424   4.136   4.877   3.968  0.3042 -0.4080  1.2135
   45G      C2' 1425   4.312   4.880   4.082  0.4078 -0.0123  0.1919
   45G     H2'1 1426   4.334   4.784   4.035 -0.3512 -0.3936  0.5837
   45G      O2' 1427   4.434   4.945   4.105  0.5939 -0.1868 -0.2837
   45G     HO'2 1428   4.456   5.004   4.032  0.7112  1.2762  0.8794
   45G      O3' 1429   4.270   5.024   3.891  0.9403 -0.2201 -0.0129
   46A        P 1430   4.287   4.953   3.747 -0.0848  0.0235 -0.2605
   46A      O1P 1431   4.340   5.056   3.655 -0.2088  0.6247  0.3244
   46A      O2P 1432   4.153   4.900   3.712 -0.4331  0.8059 -0.1473
   46A      O5' 1433   4.397   4.836   3.756 -0.0043  0.1013 -0.2182
   46A      C5' 1434   4.533   4.861   3.781  0.1407  0.0363 -0.9202
   46A     H5'1 1435   4.540   4.940   3.855  1.2816 -0.9814  0.0997
   46A     H5'2 1436   4.578   4.900   3.689 -2.6489 -0.1752 -2.4818
   46A      C4' 1437   4.617   4.739   3.818 -0.0927  0.1197 -0.0937
   46A      H4' 1438   4.717   4.783   3.828  0.0786  0.0028 -1.1260
   46A      O4' 1439   4.578   4.681   3.940  0.3720 -0.1059 -0.0471
   46A      C1' 1440   4.598   4.542   3.924 -0.0194 -0.1586 -0.1086
   46A      H1' 1441   4.652   4.487   4.001  0.5162 -0.9854 -1.0585
   46A       N9 1442   4.470   4.469   3.922 -0.0441 -0.1431  0.6095
   46A       C8 1443   4.342   4.509   3.894  0.0944 -0.1901 -0.1155
   46A       H8 1444   4.322   4.608   3.855  0.5730 -0.3983 -0.8868
   46A       N7 1445   4.256   4.412   3.905  0.4813 -0.5282 -0.0431
   46A       C5 1446   4.327   4.298   3.940  0.4307 -0.5074  0.1300
   46A       C6 1447   4.295   4.167   3.979  0.1345 -0.5410 -0.2146
   46A       N6 1448   4.174   4.110   3.976 -0.0379 -0.2080  0.3288
   46A      H61 1449   4.095   4.156   3.933  1.5599  1.3465 -1.1420
   46A      H62 1450   4.163   4.014   4.005 -0.2035 -0.6196 -1.0243
   46A       N1 1451   4.392   4.086   4.023  0.0215 -0.5619 -0.0018
   46A       C2 1452   4.515   4.136   4.028 -0.0963 -0.1793 -0.7488
   46A       H2 1453   4.589   4.070   4.072  1.3991  1.8437 -0.0657
   46A       N3 1454   4.559   4.256   3.996  0.5920 -0.2818 -0.2173
   46A       C4 1455   4.458   4.336   3.956  0.5580 -0.5564 -0.7026
   46A      C3' 1456   4.624   4.634   3.707  0.0095  0.1418 -0.1084
   46A      H3' 1457   4.526   4.621   3.662  0.9409 -1.2048 -1.8427
   46A      C2' 1458   4.663   4.511   3.790  0.0954  0.1567 -0.1261
   46A     H2'1 1459   4.624   4.419   3.748  2.6654 -1.2373  0.3332
   46A      O2' 1460   4.802   4.500   3.811  0.0039 -0.1217  0.3354
   46A     HO'2 1461   4.837   4.479   3.724  0.8201  1.9576  0.1078
   46A      O3' 1462   4.711   4.656   3.598  0.0690  0.1446 -0.0609
   47G        P 1463   4.680   4.595   3.452  0.1215  0.3935 -0.1758
   47G      O1P 1464   4.771   4.651   3.349  0.5386 -0.5618 -0.3339
   47G      O2P 1465   4.535   4.605   3.428  0.1809  0.2020 -0.6127
   47G      O5' 1466   4.716   4.439   3.465  0.1966  0.4085 -0.2050
   47G      C5' 1467   4.845   4.394   3.499  0.2573  0.3832 -0.4654
   47G     H5'1 1468   4.886   4.455   3.579 -3.3811  2.7098 -0.1813
   47G     H5'2 1469   4.912   4.412   3.415  1.3967 -0.5498  0.2110
   47G      C4' 1470   4.861   4.246   3.535 -0.2624  0.3874 -0.2195
   47G      H4' 1471   4.962   4.215   3.560  0.4849  1.5884 -1.5973
   47G      O4' 1472   4.790   4.221   3.654  0.2815 -0.2213 -0.0175
   47G      C1' 1473   4.743   4.088   3.643  0.0576 -0.1659  0.2332
   47G      H1' 1474   4.777   4.035   3.732 -4.3692 -2.3052  0.9128
   47G       N9 1475   4.596   4.078   3.646  0.0700 -0.3989  0.0702
   47G       C8 1476   4.506   4.178   3.618  0.2725 -0.1638  0.2586
   47G       H8 1477   4.534   4.276   3.583  1.3034 -0.2094  0.8890
   47G       N7 1478   4.381   4.147   3.632  0.2646 -0.3009 -0.1127
   47G       C5 1479   4.386   4.013   3.667 -0.2334 -0.4457 -0.5767
   47G       C6 1480   4.281   3.920   3.690 -0.3575 -0.2245 -0.2443
   47G       O6 1481   4.161   3.944   3.690 -0.3114  0.0246  0.2145
   47G       N1 1482   4.321   3.788   3.710 -0.1982 -0.2111 -0.4789
   47G       H1 1483   4.253   3.716   3.728 -0.1007 -0.4999 -1.2186
   47G       C2 1484   4.456   3.762   3.726 -0.1704 -0.1953 -0.6747
   47G       N2 1485   4.481   3.637   3.769 -0.9312 -0.1308 -0.0126
   47G      H21 1486   4.408   3.572   3.793  0.2645 -2.3201 -2.0131
   47G      H22 1487   4.578   3.609   3.772  1.3839  6.0542 -1.5908
   47G       N3 1488   4.558   3.846   3.708 -0.0642 -0.1054  0.2714
   47G       C4 1489   4.516   3.971   3.675 -0.2049 -0.3252 -0.4025
   47G      C3' 1490   4.806   4.153   3.427 -0.1197 -0.0311  0.0659
   47G      H3' 1491   4.705   4.188   3.403  0.7347  1.2584 -1.9155
   47G      C2' 1492   4.799   4.028   3.515 -0.2194 -0.0361  0.0512
   47G     H2'1 1493   4.734   3.954   3.469  1.9513 -2.2243  0.2723
   47G      O2' 1494   4.927   3.977   3.545 -0.2407 -0.2769 -0.2584
   47G     HO'2 1495   4.941   3.897   3.494 -1.3430 -1.7857  1.6852
   47G      O3' 1496   4.885   4.142   3.311 -0.0074 -0.5104  0.1863
   48U        P 1497   4.822   4.089   3.172  0.1100 -0.0729 -0.0338
   48U      O1P 1498   4.924   4.100   3.066 -0.2285  0.0525 -0.3493
   48U      O2P 1499   4.702   4.170   3.142  0.1804 -0.1318 -0.4708
   48U      O5' 1500   4.762   3.941   3.187 -0.0984  0.0599  0.4783
   48U      C5' 1501   4.849   3.834   3.218  0.1422 -0.0461 -0.5154
   48U     H5'1 1502   4.910   3.864   3.303  1.5921  0.6903 -1.7638
   48U     H5'2 1503   4.900   3.804   3.127 -1.7970  1.3854 -2.1862
   48U      C4' 1504   4.781   3.707   3.268 -0.1945  0.3344  0.0133
   48U      H4' 1505   4.861   3.634   3.281 -1.1269 -1.1207 -1.8874
   48U      O4' 1506   4.716   3.721   3.392  0.1324  0.7068  0.1451
   48U      C1' 1507   4.595   3.648   3.398  0.4033  0.2696  0.3711
   48U      H1' 1508   4.588   3.582   3.484 -0.9679  0.4179  0.4052
   48U       N1 1509   4.474   3.733   3.394  0.2796  0.0855  0.2555
   48U       C6 1510   4.476   3.858   3.341 -0.2702 -0.0886 -0.1868
   48U       H6 1511   4.566   3.915   3.322 -1.0202  2.2056  2.3147
   48U       C5 1512   4.365   3.935   3.336 -0.2581 -0.0917 -0.4917
   48U       H5 1513   4.359   4.032   3.288  0.5832  0.3780  0.3204
   48U       C4 1514   4.240   3.890   3.393  0.1595 -0.4976  0.1120
   48U       O4 1515   4.130   3.945   3.386  0.3740 -0.0881 -0.0649
   48U       N3 1516   4.243   3.756   3.432  0.1690 -0.4706  0.2000
   48U       H3 1517   4.160   3.722   3.479 -0.1689 -0.6043 -0.4759
   48U       C2 1518   4.353   3.673   3.425  0.2437 -0.3102 -0.6353
   48U       O2 1519   4.343   3.557   3.466 -0.0353 -0.0445  0.0652
   48U      C3' 1520   4.681   3.639   3.175 -0.1429 -0.1910  0.3359
   48U      H3' 1521   4.617   3.717   3.135  0.0062  0.2246  0.9012
   48U      C2' 1522   4.590   3.564   3.271 -0.1205  0.0429  0.5398
   48U     H2'1 1523   4.488   3.559   3.234 -0.6450 -2.0560  2.0568
   48U      O2' 1524   4.656   3.442   3.297  0.0808  0.3124  1.3334
   48U     HO'2 1525   4.691   3.413   3.213  0.8240  2.5874  0.7955
   48U      O3' 1526   4.741   3.559   3.075 -0.3913 -0.1616  0.1629
   49C        P 1527   4.670   3.561   2.930  0.0801  0.3865 -0.0667
   49C      O1P 1528   4.764   3.499   2.833  0.3617  0.2823  0.2680
   49C      O2P 1529   4.623   3.699   2.907 -0.0347  0.4698  0.6385
   49C      O5' 1530   4.542   3.464   2.938  0.3720 -0.0465 -0.5134
   49C      C5' 1531   4.545   3.324   2.933 -0.7511 -0.0932 -0.3379
   49C     H5'1 1532   4.620   3.296   3.007 -0.1074  0.4261 -0.7853
   49C     H5'2 1533   4.578   3.289   2.834 -1.1175 -0.4588 -0.3301
   49C      C4' 1534   4.417   3.260   2.985 -0.4218 -0.3529  0.1595
   49C      H4' 1535   4.433   3.152   2.989 -0.4954 -0.3616  0.2259
   49C      O4' 1536   4.373   3.318   3.106 -0.3367 -0.1347  0.0862
   49C      C1' 1537   4.232   3.318   3.108 -0.3455 -0.4653 -0.4071
   49C      H1' 1538   4.198   3.253   3.188  0.3784 -1.2430 -0.7115
   49C       N1 1539   4.174   3.453   3.116 -0.1444 -0.3760 -0.4450
   49C       C6 1540   4.251   3.563   3.095 -0.0977 -0.3838 -0.3170
   49C       H6 1541   4.355   3.549   3.070  0.1207  0.5999 -0.0068
   49C       C5 1542   4.189   3.683   3.103 -0.0783 -0.4078  0.2335
   49C       H5 1543   4.246   3.772   3.078 -0.3281 -0.0956  0.7647
   49C       C4 1544   4.050   3.694   3.133 -0.0126  0.7165  0.1664
   49C       N4 1545   3.993   3.815   3.127  0.0565  0.7667  0.4965
   49C      H41 1546   4.044   3.899   3.105  3.7214 -1.0927  1.1488
   49C      H42 1547   3.901   3.815   3.170  0.0103 -0.1454  0.4211
   49C       N3 1548   3.980   3.586   3.170  0.2947  0.5111  0.1502
   49C       C2 1549   4.042   3.466   3.157  0.0309  0.3998 -0.1204
   49C       O2 1550   3.978   3.365   3.180  0.5571  0.1473  0.2700
   49C      C3' 1551   4.306   3.278   2.882 -0.2917 -0.3470  0.0184
   49C      H3' 1552   4.306   3.380   2.846 -1.8460 -0.9755 -1.9509
   49C      C2' 1553   4.191   3.248   2.978 -0.7057 -0.2088 -0.4307
   49C     H2'1 1554   4.099   3.298   2.946 -0.4592 -0.5444 -1.7098
   49C      O2' 1555   4.163   3.112   3.002 -0.0971 -0.2814 -0.1206
   49C     HO'2 1556   4.144   3.074   2.915 -1.0347 -1.5003  0.5789
   49C      O3' 1557   4.310   3.189   2.773  0.0427 -0.4391  0.1068
   50G        P 1558   4.221   3.204   2.640  0.0120  0.1097  0.1898
   50G      O1P 1559   4.243   3.087   2.554 -0.6219  0.3154 -0.2610
   50G      O2P 1560   4.249   3.340   2.588  0.0969  0.0331  0.0374
   50G      O5' 1561   4.065   3.208   2.680  0.0568  0.1581  0.3608
   50G      C5' 1562   3.995   3.088   2.708  0.3325 -0.1585 -0.2802
   50G     H5'1 1563   4.044   3.035   2.790  1.0732 -0.5117 -0.9470
   50G     H5'2 1564   4.000   3.021   2.623  0.9036  0.0591 -0.4204
   50G      C4' 1565   3.848   3.106   2.747  0.2722 -0.6018 -0.3049
   50G      H4' 1566   3.809   3.004   2.749 -0.3943 -0.3510 -0.5336
   50G      O4' 1567   3.833   3.180   2.866  0.0338 -0.3833 -0.4711
   50G      C1' 1568   3.716   3.259   2.871  0.2393 -0.1137  0.2572
   50G      H1' 1569   3.638   3.220   2.936  0.4774 -1.0513  0.0000
   50G       N9 1570   3.758   3.399   2.890  0.0834 -0.0747  0.3080
   50G       C8 1571   3.871   3.461   2.844  0.0611  0.0807  0.4633
   50G       H8 1572   3.943   3.395   2.798 -2.3580 -2.0787 -0.4994
   50G       N7 1573   3.873   3.590   2.862 -0.5231  0.1735 -0.1033
   50G       C5 1574   3.745   3.618   2.909 -0.7732 -0.2055 -0.5579
   50G       C6 1575   3.686   3.743   2.939 -0.1384 -0.0471  0.0642
   50G       O6 1576   3.733   3.856   2.941 -0.5918  0.1630 -0.6514
   50G       N1 1577   3.553   3.726   2.974 -0.1824  0.2323  0.0357
   50G       H1 1578   3.499   3.810   2.988  1.5272  1.4115 -0.1480
   50G       C2 1579   3.490   3.605   2.991 -0.0046  0.0195 -0.8101
   50G       N2 1580   3.357   3.599   3.013  0.0984 -0.1269 -0.2055
   50G      H21 1581   3.312   3.690   3.013  0.1018 -0.1230 -0.5784
   50G      H22 1582   3.312   3.509   3.012 -3.1129  1.3127  0.7805
   50G       N3 1583   3.546   3.485   2.966 -0.2265 -0.3809  0.5512
   50G       C4 1584   3.673   3.502   2.924 -0.5829 -0.3219 -0.5390
   50G      C3' 1585   3.769   3.195   2.651  0.7509  0.1462 -0.0145
   50G      H3' 1586   3.831   3.279   2.620  1.0691  0.4570  1.3724
   50G      C2' 1587   3.653   3.251   2.732  0.5476 -0.4736  0.1335
   50G     H2'1 1588   3.607   3.344   2.698 -0.5327  0.0162  2.6811
   50G      O2' 1589   3.553   3.151   2.728  0.2238 -0.1517  0.0960
   50G     HO'2 1590   3.541   3.119   2.639  0.3183  1.2554 -0.4495
   50G      O3' 1591   3.726   3.126   2.536  0.0908 -0.3583  0.5217
   50G      H3T 1592   3.688   3.191   2.477  0.6462  1.3522  1.9758
   51SOL     OW 1593   1.804   2.863   0.981 -0.0379  0.6494 -0.6357
   51SOL    HW1 1594   1.821   2.770   0.996  2.6282  1.1957  0.3482
   51SOL    HW2 1595   1.858   2.908   1.046 -2.1999  2.9084 -0.2456
   52SOL     OW 1596   5.192   3.345  10.901 -0.0420 -0.0065  0.0218
   52SOL    HW1 1597   5.147   3.429  10.911 -1.0814 -0.4728 -0.5752
   52SOL    HW2 1598   5.243   3.355  10.821  2.5391  1.1945  1.6713
   53SOL     OW 1599   0.409   0.347   5.465  0.0416 -0.3830  0.6992
   53SOL    HW1 1600   0.324   0.339   5.420  1.0934  1.7783 -1.9534
   53SOL    HW2 1601   0.406   0.432   5.508  1.5480  0.7935 -1.3229
   54SOL     OW 1602   0.734   4.022   0.721  0.2264 -0.5848  0.0412
   54SOL    HW1 1603   0.678   4.057   0.651 -0.0944 -0.7427  0.2164
   54SOL    HW2 1604   0.712   3.929   0.724 -2.5779  0.0265  2.8835
   55SOL     OW 1605   2.584   5.506   7.114 -0.1683  0.3554  0.0654
   55SOL    HW1 1606   2.634   5.453   7.176  1.0808  0.9723 -0.3745
   55SOL    HW2 1607   2.626   5.592   7.117 -2.3952  1.5128  1.0923
   56SOL     OW 1608   5.338   4.883   0.407  0.1066 -0.8315  0.6591
   56SOL    HW1 1609   5.251   4.870   0.445 -0.3513 -0.6050 -0.2910
   56SOL    HW2 1610   5.324   4.884   0.313  1.3563 -2.3927  0.4087
   57SOL     OW 1611   0.215   0.246   5.274 -0.0082 -0.3490 -0.6803
   57SOL    HW1 1612   0.197   0.295   5.193  0.6453 -0.9247 -1.1917
   57SOL    HW2 1613   0.210   0.154   5.248 -1.2536 -0.5743  0.2796
   58SOL     OW 1614   3.219   0.291   7.042 -0.1266  0.2343 -0.4161
   58SOL    HW1 1615   3.256   0.311   7.128 -0.7681 -1.1768  0.2202
   58SOL    HW2 1616   3.127   0.318   7.048 -0.1385  0.2697 -0.7140
   59SOL     OW 1617   5.607   0.072   3.804 -0.0285 -0.0557 -0.2701
   59SOL    HW1 1618   5.529   0.116   3.770  0.3163 -1.4467 -3.1677
   59SOL    HW2 1619   5.680   0.120   3.764  0.5942  0.4878  1.4615
   60SOL     OW 1620   4.600   0.979  10.801  0.3646 -0.2538 -0.8730
   60SOL    HW1 1621   4.559   0.894  10.820  0.1531 -0.3181 -1.5708
   60SOL    HW2 1622   4.527   1.040  10.796  0.4401 -0.1859 -1.1653
   61SOL     OW 1623   1.539   5.747   6.954  0.3199 -0.2072  0.4146
   61SOL    HW1 1624   1.533   5.654   6.975 -0.9296 -0.2210  0.1215
   61SOL    HW2 1625   1.448   5.773   6.937  0.7644  0.8371 -0.4864
   62SOL     OW 1626   4.038   5.365   0.414 -0.1442 -0.2542 -0.4760
   62SOL    HW1 1627   4.069   5.388   0.326  0.2228 -1.4206 -0.6749
   62SOL    HW2 1628   4.116   5.373   0.469  0.3047 -2.0724 -0.7667
   63SOL     OW 1629   2.231   3.235  10.447 -0.0083 -0.0336  0.3032
   63SOL    HW1 1630   2.209   3.295  10.519  0.0748  2.2825 -1.4775
   63SOL    HW2 1631   2.326   3.223  10.454 -0.1418 -0.6972  1.1742
   64SOL     OW 1632   0.357   4.452   0.294 -0.0525  0.3156 -0.6972
   64SOL    HW1 1633   0.286   4.447   0.230 -0.6426 -0.0933 -0.0252
   64SOL    HW2 1634   0.429   4.405   0.253  0.1118  1.3911 -1.7168
   65SOL     OW 1635   5.513   3.767   7.668  0.4300  0.1825 -0.1493
   65SOL    HW1 1636   5.459   3.753   7.745  1.2470  0.3925  0.4711
   65SOL    HW2 1637   5.581   3.699   7.673 -1.4140 -2.0858 -2.5082
   66SOL     OW 1638   1.977   1.325  10.755  0.0179  0.4145  0.1870
   66SOL    HW1 1639   1.892   1.284  10.737  0.4569 -0.2059 -0.4952
   66SOL    HW2 1640   1.989   1.313  10.849 -0.3746 -0.0226  0.1879
   67SOL     OW 1641   4.804   6.393   1.100 -0.1053 -0.2120  0.5480
   67SOL    HW1 1642   4.771   6.481   1.120  1.5050  0.4249  0.5462
   67SOL    HW2 1643   4.750   6.335   1.154 -0.9814  0.7944  0.7978
   68SOL     OW 1644   4.320   1.099   7.021 -0.1868 -0.3519 -0.1652
   68SOL    HW1 1645   4.276   1.087   7.105 -0.0571 -0.7745 -0.1526
   68SOL    HW2 1646   4.404   1.052   7.031  0.3816  0.6456 -0.1029
   69SOL     OW 1647   2.324   7.498  11.029 -0.4790  0.3416  0.0854
   69SOL    HW1 1648   2.418   7.483  11.023 -0.6099 -0.3481 -0.3246
   69SOL    HW2 1649   2.316   7.593  11.043  0.2783  0.3642  0.4211
   70SOL     OW 1650   3.249   3.795   1.783  0.3368 -0.0671  0.0963
   70SOL    HW1 1651   3.238   3.886   1.811 -0.0105  0.2899 -1.1614
   70SOL    HW2 1652   3.241   3.797   1.688  2.2280 -1.1316 -0.1442
   71SOL     OW 1653   7.095   1.854   2.434 -0.2892 -0.4383  0.4756
   71SOL    HW1 1654   7.053   1.938   2.454  0.1714 -0.2062  0.4919
   71SOL    HW2 1655   7.042   1.817   2.363  0.9011  1.0267 -1.2740
   72SOL     OW 1656   6.290   7.353   2.504 -0.0564 -0.4751 -0.2844
   72SOL    HW1 1657   6.367   7.354   2.447  0.2879 -0.0182  0.1711
   72SOL    HW2 1658   6.271   7.446   2.519 -1.6302 -0.5492 -1.6038
   73SOL     OW 1659   2.345   2.826  12.016  0.6842  0.2165  0.1465
   73SOL    HW1 1660   2.406   2.754  11.999  0.1556  0.0006 -0.9483
   73SOL    HW2 1661   2.291   2.795  12.089 -0.1897 -0.9430 -0.9545
   74SOL     OW 1662   2.054   5.837  10.453 -0.2788  0.0647  0.2036
   74SOL    HW1 1663   1.970   5.828  10.498 -0.2061 -1.0972  0.1401
   74SOL    HW2 1664   2.035   5.810  10.363  0.1005  0.0504  0.1288
   75SOL     OW 1665   1.576   6.295   5.419 -0.0032 -0.3876  0.0843
   75SOL    HW1 1666   1.539   6.383   5.413  0.6109 -0.0229  1.2749
   75SOL    HW2 1667   1.670   6.308   5.405  0.0102 -0.9542 -0.3998
   76SOL     OW 1668   2.996   6.898   1.191  0.0096  0.4274 -0.2153
   76SOL    HW1 1669   3.038   6.948   1.121  0.6728 -1.2155 -1.0616
   76SOL    HW2 1670   3.069   6.863   1.242 -0.1334 -2.6036 -1.7948
   77SOL     OW 1671   3.808   2.091   7.976 -0.3182 -0.0300  0.0389
   77SOL    HW1 1672   3.775   2.104   8.065 -2.2599 -0.4762 -0.5533
   77SOL    HW2 1673   3.735   2.119   7.920  1.0861  0.8352 -1.4445
   78SOL     OW 1674   6.923   2.864   4.306  0.0200 -0.2436 -0.6673
   78SOL    HW1 1675   6.975   2.832   4.232  3.0090  0.0631  1.1376
   78SOL    HW2 1676   6.935   2.797   4.374 -0.9987  0.4502  0.2294
   79SOL     OW 1677   6.979   6.898   4.439  0.5739 -0.2270 -0.0461
   79SOL    HW1 1678   7.042   6.883   4.510 -1.3970 -0.9809  1.6215
   79SOL    HW2 1679   7.018   6.853   4.364  1.2973 -2.1115  1.3521
   80SOL     OW 1680   3.697   4.584   6.126  0.1246 -0.5175  0.2480
   80SOL    HW1 1681   3.733   4.575   6.038  2.6686 -1.0048  1.2643
   80SOL    HW2 1682   3.658   4.671   6.127 -0.2762 -0.6456 -1.4407
   81SOL     OW 1683   5.591   4.392  12.290 -0.4773  0.0058 -0.5745
   81SOL    HW1 1684   5.575   4.472  12.340  2.3290  0.6362 -0.5116
   81SOL    HW2 1685   5.528   4.329  12.324  1.6345  0.1319  4.4171
   82SOL     OW 1686   0.794   3.956   9.396  0.1499 -0.5686 -0.1733
   82SOL    HW1 1687   0.798   3.973   9.490  0.9684 -0.3856 -0.2376
   82SOL    HW2 1688   0.749   3.871   9.390 -1.1260  0.0529  0.2980
   83SOL     OW 1689   0.223   1.992   2.545 -0.1826  0.0784 -0.0174
   83SOL    HW1 1690   0.203   2.085   2.557 -0.8125 -0.1103  0.5033
   83SOL    HW2 1691   0.137   1.951   2.530  0.0700 -0.4353 -0.0807
   84SOL     OW 1692   1.612   1.209   4.033 -0.5678  0.6588 -0.7840
   84SOL    HW1 1693   1.649   1.281   4.084 -0.4855  0.6630 -0.8501
   84SOL    HW2 1694   1.542   1.249   3.982 -0.5094  0.6964 -0.8353
   85SOL     OW 1695   4.579   7.198   0.407  0.0508 -1.3219 -1.0951
   85SOL    HW1 1696   4.500   7.155   0.373 -0.2219 -0.2043 -1.9288
   85SOL    HW2 1697   4.574   7.288   0.374 -0.9936  0.3855  3.0332
   86SOL     OW 1698   0.001   3.118   1.986 -0.0029  0.1787 -0.5597
   86SOL    HW1 1699  -0.011   3.145   1.894  1.8736 -1.7786 -1.4571
   86SOL    HW2 1700   0.087   3.152   2.009 -0.6166  0.9690  0.6572
   87SOL     OW 1701   4.242   2.517   0.272 -0.2349  0.1193  0.1533
   87SOL    HW1 1702   4.309   2.449   0.270  0.1813  0.5432 -0.9850
   87SOL    HW2 1703   4.173   2.486   0.215  1.1116  1.7425 -2.5689
   88SOL     OW 1704   4.451   4.042   5.299 -0.7141 -0.0021  0.1600
   88SOL    HW1 1705   4.508   4.030   5.223  1.9356 -1.6076  2.2378
   88SOL    HW2 1706   4.379   4.095   5.266  0.4849 -0.2981 -3.3560
   89SOL     OW 1707   5.371   0.448   9.407 -0.0632  0.1654  0.2562
   89SOL    HW1 1708   5.390   0.539   9.384  0.2932  0.5075  1.8397
   89SOL    HW2 1709   5.448   0.400   9.377 -0.5586  0.2463 -1.2384
   90SOL     OW 1710   1.642   1.722   2.978 -0.4829 -0.1358 -0.3975
   90SOL    HW1 1711   1.729   1.728   2.938 -0.9273  0.1351 -1.3370
   90SOL    HW2 1712   1.622   1.811   3.006 -0.2032 -0.3115  0.3785
   91SOL     OW 1713   3.090   4.497   1.865 -0.5023 -0.3134 -0.3255
   91SOL    HW1 1714   3.063   4.575   1.914 -1.0527 -0.6371 -0.1059
   91SOL    HW2 1715   3.136   4.532   1.789 -1.2224  0.2531 -0.5177
   92SOL     OW 1716   0.743   2.860  10.309  0.0444 -0.7135  0.1232
   92SOL    HW1 1717   0.819   2.810  10.279  0.2345 -1.3585  1.5999
   92SOL    HW2 1718   0.759   2.875  10.403 -1.1068  0.1401  0.2109
   93SOL     OW 1719   2.293   1.722   0.499 -0.0323 -0.0515  0.2152
   93SOL    HW1 1720   2.297   1.811   0.464  1.1539  0.0715  0.6128
   93SOL    HW2 1721   2.326   1.667   0.428  0.9883  0.0415  0.5986
   94SOL     OW 1722   5.159   4.850   8.623 -0.4274 -0.2616  0.2079
   94SOL    HW1 1723   5.208   4.910   8.679 -2.2389  0.5752  0.9968
   94SOL    HW2 1724   5.149   4.771   8.676  2.4481 -1.5728 -1.0457
   95SOL     OW 1725   3.697   7.387  10.237  0.3229 -0.4818  0.0272
   95SOL    HW1 1726   3.701   7.320  10.305 -2.3381 -2.0286 -1.1789
   95SOL    HW2 1727   3.738   7.346  10.161  1.2271  0.3840  0.0255
   96SOL     OW 1728   5.225   1.160   4.099 -0.6693  0.2772  0.0877
   96SOL    HW1 1729   5.152   1.106   4.067 -0.3709  0.0779 -0.2586
   96SOL    HW2 1730   5.211   1.164   4.194 -0.6193 -0.5282  0.1356
   97SOL     OW 1731   1.338   2.110  10.446 -0.3681  0.1473 -0.7815
   97SOL    HW1 1732   1.388   2.029  10.447  0.3141  0.5516  0.6054
   97SOL    HW2 1733   1.327   2.131  10.353 -0.0026 -1.1800 -1.1441
   98SOL     OW 1734   3.288   3.013   4.172 -0.6642 -0.2707 -0.5922
   98SOL    HW1 1735   3.292   3.105   4.196 -1.0509 -1.1712  3.8751
   98SOL    HW2 1736   3.372   2.977   4.200 -2.1804 -1.9696  2.2687
   99SOL     OW 1737   0.146   6.660   8.699 -0.0806 -0.0416  0.0253
   99SOL    HW1 1738   0.107   6.657   8.786  0.2540 -0.2535  0.1692
   99SOL    HW2 1739   0.072   6.671   8.640 -0.2851  0.3817  0.3560
  100SOL     OW 1740   0.644   7.750   4.399  0.6774 -0.5849  0.4161
  100SOL    HW1 1741   0.578   7.688   4.369 -1.8386  0.4074  3.3332
  100SOL    HW2 1742   0.653   7.813   4.327  1.1083 -2.6074 -1.3988
  101SOL     OW 1743   3.169   1.862   6.466  0.3247  0.1321 -0.3366
  101SOL    HW1 1744   3.077   1.888   6.462 -0.2479 -1.5782  0.6694
  101SOL    HW2 1745   3.183   1.836   6.557  2.0186  1.0358 -0.2980
  102SOL     OW 1746   4.179   7.809  11.892 -0.5172  0.3184 -0.1598
  102SOL    HW1 1747   4.228   7.834  11.814 -1.4794  0.6167 -0.6818
  102SOL    HW2 1748   4.091   7.843  11.877 -1.0352 -0.6843  0.5219
  103SOL     OW 1749   4.213   2.626   8.008  0.2150  1.0549 -0.0519
  103SOL    HW1 1750   4.162   2.585   8.078  2.6074  1.3629  1.9863
  103SOL    HW2 1751   4.257   2.700   8.050  1.3096  1.6059 -2.0238
  104SOL     OW 1752   0.691   2.889  11.667  0.0297  0.2215 -0.1324
  104SOL    HW1 1753   0.714   2.799  11.642  0.4689  0.2932  0.0044
  104SOL    HW2 1754   0.648   2.880  11.751  0.0303  0.1327 -0.1402
  105SOL     OW 1755   1.972   1.862   5.735 -0.4404 -0.3191 -0.4411
  105SOL    HW1 1756   1.937   1.921   5.668  1.1362  1.5151  0.2315
  105SOL    HW2 1757   2.037   1.809   5.689 -0.3218 -0.0132 -0.6277
  106SOL     OW 1758   0.521   1.485   4.622 -0.1359 -0.2681 -0.0077
  106SOL    HW1 1759   0.457   1.462   4.554 -0.1099 -2.3005  0.5925
  106SOL    HW2 1760   0.473   1.544   4.680 -0.6320  0.2957 -0.9487
  107SOL     OW 1761   3.126   6.213   2.384 -0.2159 -0.1547  0.1345
  107SOL    HW1 1762   3.090   6.295   2.349 -0.2629 -0.0147  0.5145
  107SOL    HW2 1763   3.161   6.236   2.470 -1.3480 -0.8008  0.7828
  108SOL     OW 1764   7.585   1.670   6.086 -0.9456 -0.4572  0.5543
  108SOL    HW1 1765   7.493   1.687   6.105 -0.9767 -0.9679  0.8826
  108SOL    HW2 1766   7.622   1.756   6.066 -1.3917 -0.1884  0.8752
  109SOL     OW 1767   2.315   6.922   0.990  0.2452  0.3715  0.2129
  109SOL    HW1 1768   2.388   6.885   1.041 -1.0045  0.8827  2.5302
  109SOL    HW2 1769   2.262   6.968   1.055 -2.1723  0.0064 -1.3920
  110SOL     OW 1770   4.110   0.975   7.349 -0.4877  0.3185  0.7093
  110SOL    HW1 1771   4.070   0.946   7.267  1.4198 -1.4314  0.3179
  110SOL    HW2 1772   4.076   1.064   7.362  0.0489  1.1571 -2.6295
  111SOL     OW 1773   2.618   3.259   6.835  0.2646 -0.5187  0.0133
  111SOL    HW1 1774   2.708   3.253   6.803  1.2373  1.0557  2.2147
  111SOL    HW2 1775   2.597   3.171   6.864  1.4958 -0.7031  0.4092
  112SOL     OW 1776   5.566   4.151   4.674  0.1464 -0.4155 -0.5397
  112SOL    HW1 1777   5.524   4.201   4.744 -1.1483 -0.2843 -1.3684
  112SOL    HW2 1778   5.634   4.100   4.718  2.8025  3.3337  0.1451
  113SOL     OW 1779   0.474   4.998   1.935  0.3853  0.0754  0.0597
  113SOL    HW1 1780   0.427   4.977   2.015  0.1501  0.5779  0.0599
  113SOL    HW2 1781   0.516   5.082   1.953 -0.7825  0.8678 -0.7930
  114SOL     OW 1782   0.081   0.665   8.833 -0.4727 -0.0243 -0.2635
  114SOL    HW1 1783   0.073   0.756   8.805 -0.4080  0.1310  0.2101
  114SOL    HW2 1784   0.007   0.652   8.893  0.0930  0.0207  0.4567
  115SOL     OW 1785   7.458   4.557  11.250  0.0351 -0.1548  0.1015
  115SOL    HW1 1786   7.377   4.581  11.206  0.3369  0.6700 -0.0087
  115SOL    HW2 1787   7.493   4.484  11.198 -0.4664 -0.3066 -0.0321
  116SOL     OW 1788   7.320   6.476   7.428  0.3403 -0.6543 -0.2687
  116SOL    HW1 1789   7.235   6.501   7.393  0.6096 -1.3645 -1.5052
  116SOL    HW2 1790   7.348   6.552   7.480 -1.5728 -0.8982  1.2245
  117SOL     OW 1791   0.108   5.200   0.158 -0.2438 -0.0006 -0.1209
  117SOL    HW1 1792   0.091   5.113   0.193 -2.0315  0.8080  1.1834
  117SOL    HW2 1793   0.131   5.253   0.234  0.4707  0.7582 -0.8391
  118SOL     OW 1794   1.556   0.486   4.396  0.4706  0.1725  0.0506
  118SOL    HW1 1795   1.610   0.557   4.431  0.8946  0.2971 -0.8280
  118SOL    HW2 1796   1.618   0.414   4.382  0.6832  0.6932 -2.0579
  119SOL     OW 1797   5.282   6.526   9.525  0.2750 -0.6472 -0.6190
  119SOL    HW1 1798   5.290   6.613   9.564  0.9619 -1.3716  0.9165
  119SOL    HW2 1799   5.304   6.539   9.433 -1.2360  1.0868 -0.7887
  120SOL     OW 1800   6.252   7.389  10.414 -0.1617 -0.2655 -0.0649
  120SOL    HW1 1801   6.264   7.441  10.334 -0.2746  0.8867  0.6472
  120SOL    HW2 1802   6.248   7.298  10.383 -1.7518  0.2594 -1.5161
  121SOL     OW 1803   7.164   4.800   5.251 -1.2776  0.5284 -0.1264
  121SOL    HW1 1804   7.100   4.735   5.222 -1.3003 -0.4586  1.9910
  121SOL    HW2 1805   7.212   4.757   5.321  0.2854  2.0123 -0.2271
  122SOL     OW 1806   4.368   3.501  11.197 -0.6135  0.1015  0.4007
  122SOL    HW1 1807   4.282   3.511  11.155 -0.4284 -0.4860 -0.1296
  122SOL    HW2 1808   4.393   3.411  11.179  0.9571  0.7715 -1.0961
  123SOL     OW 1809   6.411   7.971  11.187 -0.1849  0.6100 -0.3735
  123SOL    HW1 1810   6.338   7.995  11.244 -0.8914 -0.3558 -0.8466
  123SOL    HW2 1811   6.424   8.048  11.131 -1.4239  0.4867 -0.8602
  124SOL     OW 1812   0.205   1.092   1.062 -0.2739 -0.2545 -0.1099
  124SOL    HW1 1813   0.264   1.116   1.133 -0.4842  0.8965 -0.2982
  124SOL    HW2 1814   0.240   1.139   0.986 -2.3972  1.9593  0.1493
  125SOL     OW 1815   1.251   6.752   1.678 -0.3073  0.1554 -0.4698
  125SOL    HW1 1816   1.265   6.819   1.745  0.5122  0.5211 -1.0015
  125SOL    HW2 1817   1.290   6.788   1.599  0.8080 -1.2634 -0.5949
  126SOL     OW 1818   5.800   6.977   8.580  0.0211 -0.3298  0.3717
  126SOL    HW1 1819   5.881   7.021   8.554 -0.0565  0.4418  1.3817
  126SOL    HW2 1820   5.818   6.884   8.566  0.5907 -0.0805 -0.7072
  127SOL     OW 1821   2.051   3.455   1.993  0.1202  0.5669  0.9510
  127SOL    HW1 1822   2.147   3.458   1.997  0.1697  0.3640  0.2088
  127SOL    HW2 1823   2.030   3.361   2.000 -0.0881  0.6877  2.0924
  128SOL     OW 1824   4.277   2.823  10.816  0.4205  0.4205 -0.6728
  128SOL    HW1 1825   4.217   2.756  10.781 -0.2888  0.7403 -0.0689
  128SOL    HW2 1826   4.352   2.819  10.756  0.4400 -0.9808 -0.6063
  129SOL     OW 1827   5.026   7.152   3.122  0.4219  0.1630  0.2140
  129SOL    HW1 1828   5.067   7.164   3.036  2.3103  0.1430  1.0643
  129SOL    HW2 1829   4.991   7.063   3.120 -1.0146  0.7161 -1.0838
  130SOL     OW 1830   6.385   4.833   5.618  0.2021 -0.0766 -0.1927
  130SOL    HW1 1831   6.296   4.814   5.586  0.1583  1.4186 -1.0410
  130SOL    HW2 1832   6.419   4.748   5.645 -2.1248 -0.4792  1.8744
  131SOL     OW 1833   4.039   1.244   5.513  0.3347 -0.4894 -0.0430
  131SOL    HW1 1834   4.131   1.242   5.489  0.3943 -1.0310  0.2345
  131SOL    HW2 1835   4.038   1.260   5.607  0.1344 -0.1130 -0.1052
  132SOL     OW 1836   1.809   0.567   7.127  0.9164 -0.6189 -0.1557
  132SOL    HW1 1837   1.774   0.595   7.042 -0.8321 -2.4512 -0.1306
  132SOL    HW2 1838   1.835   0.648   7.170 -1.4831  0.7327 -1.0368
  133SOL     OW 1839   0.407   6.844   4.094 -0.4206  0.2995 -0.4869
  133SOL    HW1 1840   0.349   6.788   4.043 -0.2857 -1.8286  1.5022
  133SOL    HW2 1841   0.477   6.786   4.123  1.4758  2.2613 -0.8708
  134SOL     OW 1842   5.096   1.530  11.123 -0.1010  0.1045 -0.0779
  134SOL    HW1 1843   5.038   1.577  11.063  0.4988  0.8138 -0.1094
  134SOL    HW2 1844   5.166   1.591  11.142  0.8603 -0.8826 -0.3669
  135SOL     OW 1845   1.399   2.108   0.868 -0.0354  0.3560  0.1900
  135SOL    HW1 1846   1.475   2.065   0.828 -0.5252 -0.3525 -0.0024
  135SOL    HW2 1847   1.430   2.138   0.953 -0.0040 -1.4946  0.8708
  136SOL     OW 1848   0.579   1.022  12.043 -0.6365 -0.4041  0.1496
  136SOL    HW1 1849   0.543   0.952  12.098  0.8760 -2.7005 -1.6038
  136SOL    HW2 1850   0.523   1.022  11.965 -1.0828  0.9284  0.4460
  137SOL     OW 1851   0.139   7.449  12.463  0.1170 -0.0329  0.0608
  137SOL    HW1 1852   0.119   7.532  12.505  0.2676  0.4716 -0.8316
  137SOL    HW2 1853   0.054   7.405  12.454  0.2557 -0.8703  2.2955
  138SOL     OW 1854   6.349   7.763   7.110 -0.1395 -0.5482 -0.1032
  138SOL    HW1 1855   6.434   7.768   7.067  1.0966 -2.3396  1.9469
  138SOL    HW2 1856   6.326   7.855   7.127  1.2445 -0.0178 -0.8876
  139SOL     OW 1857   3.909   1.039  10.405  0.0580  0.1507  0.5415
  139SOL    HW1 1858   3.982   1.047  10.466 -1.0673 -0.4100  2.0368
  139SOL    HW2 1859   3.837   1.006  10.458 -1.1171  0.0730 -1.0157
  140SOL     OW 1860   5.480   6.704   1.208 -0.4141  0.0187  0.3076
  140SOL    HW1 1861   5.461   6.789   1.249 -0.6755  0.3711 -0.5178
  140SOL    HW2 1862   5.425   6.703   1.129  0.3795 -0.4692 -0.2468
  141SOL     OW 1863   5.622   7.343   6.756  0.1802  0.4604  0.4221
  141SOL    HW1 1864   5.648   7.395   6.680  0.7199 -2.6599 -1.7071
  141SOL    HW2 1865   5.614   7.254   6.723 -1.0501 -0.8307  3.7544
  142SOL     OW 1866   3.083   2.717  11.165 -0.3765 -0.1150  0.0739
  142SOL    HW1 1867   3.002   2.684  11.126  0.4731  1.0976 -2.9961
  142SOL    HW2 1868   3.148   2.650  11.144  0.1242  0.6221 -0.7682
  143SOL     OW 1869   6.488   7.165   7.066 -0.0312  0.0721 -0.7869
  143SOL    HW1 1870   6.431   7.202   6.998  0.5077  0.2325 -1.1549
  143SOL    HW2 1871   6.539   7.239   7.097 -0.9262  0.1994  0.4703
  144SOL     OW 1872   7.769   5.072   1.442 -0.3200 -0.1073 -0.6321
  144SOL    HW1 1873   7.839   5.096   1.381  3.0974 -0.7173  2.6886
  144SOL    HW2 1874   7.780   5.130   1.517 -2.3252 -1.3744  0.7706
  145SOL     OW 1875   6.535   3.976   3.264  0.1359  0.1212  0.1646
  145SOL    HW1 1876   6.499   4.062   3.287  1.0858  0.1916  1.5528
  145SOL    HW2 1877   6.560   3.939   3.349 -1.8027 -2.2555 -0.2098
  146SOL     OW 1878   0.197   0.608  11.698 -0.0325  0.3423 -0.1147
  146SOL    HW1 1879   0.120   0.610  11.641 -0.0150 -1.2217 -0.2416
  146SOL    HW2 1880   0.208   0.516  11.720  0.8509  0.7423  1.2348
  147SOL     OW 1881   0.816   0.883  11.699 -0.4761 -0.4474 -0.4185
  147SOL    HW1 1882   0.833   0.905  11.791  0.6253 -0.6922 -0.5521
  147SOL    HW2 1883   0.853   0.956  11.650 -2.6512  0.5702 -0.6258
  148SOL     OW 1884   2.369   1.290   4.625 -0.5088 -0.3736  0.3985
  148SOL    HW1 1885   2.319   1.211   4.609  0.2576 -1.0955  1.3966
  148SOL    HW2 1886   2.460   1.264   4.609 -0.2666  0.3460  0.5680
  149SOL     OW 1887   7.589   0.009   3.020  0.0869 -0.1300 -0.1864
  149SOL    HW1 1888   7.642  -0.036   3.085 -0.6900  0.6142  0.9955
  149SOL    HW2 1889   7.606  -0.038   2.938  0.5669 -1.5068  0.6759
  150SOL     OW 1890   6.844   6.371   4.411  0.3411  0.5898 -0.4123
  150SOL    HW1 1891   6.752   6.386   4.387  0.8327  0.8291 -2.2869
  150SOL    HW2 1892   6.873   6.455   4.447  0.3191  1.1154 -1.5705
  151SOL     OW 1893   5.414   0.298  10.083  0.6634  0.1779  0.1183
  151SOL    HW1 1894   5.320   0.310  10.098  0.9681  1.5958  1.0712
  151SOL    HW2 1895   5.450   0.386  10.086  2.2118 -0.4567  1.0647
  152SOL     OW 1896   3.801   4.858   0.392 -0.3743  0.8423  0.2081
  152SOL    HW1 1897   3.756   4.810   0.461 -0.7520 -0.9683 -1.2267
  152SOL    HW2 1898   3.892   4.862   0.421  0.0449 -2.3386 -0.3615
  153SOL     OW 1899   3.047   4.870   2.305  0.3753  0.5052  0.5211
  153SOL    HW1 1900   3.078   4.949   2.350  0.3443  0.6716  0.2549
  153SOL    HW2 1901   3.123   4.838   2.257  2.3426 -3.1164  5.2760
  154SOL     OW 1902   1.380   2.396   3.672 -0.3242  0.7964 -0.0255
  154SOL    HW1 1903   1.324   2.330   3.631  1.2130 -0.3902 -0.3096
  154SOL    HW2 1904   1.395   2.363   3.761 -1.3056  1.8960  0.5727
  155SOL     OW 1905   1.417   3.493  11.543 -0.1686  0.1712  0.0890
  155SOL    HW1 1906   1.493   3.546  11.518 -0.8246  0.8710 -0.4408
  155SOL    HW2 1907   1.431   3.473  11.636 -0.0441  1.5044  0.3710
  156SOL     OW 1908   1.387   3.141  11.759 -0.0411  0.2656 -0.3445
  156SOL    HW1 1909   1.389   3.049  11.785 -1.2576  0.1247 -0.6744
  156SOL    HW2 1910   1.296   3.156  11.732  0.3250  1.3537 -1.0369
  157SOL     OW 1911   6.638   6.084   9.576 -0.1471  0.0643 -0.4585
  157SOL    HW1 1912   6.634   6.089   9.481  1.9760  1.4371 -0.5452
  157SOL    HW2 1913   6.728   6.055   9.595  0.3043  2.2398  1.1132
  158SOL     OW 1914   1.815   5.720   5.120  0.4682  0.6544 -0.3179
  158SOL    HW1 1915   1.774   5.806   5.107 -0.1405  0.5275  0.6434
  158SOL    HW2 1916   1.750   5.658   5.086 -0.9979  0.3386  2.7439
  159SOL     OW 1917   2.373   4.127  10.545  0.0549 -0.4351  0.0341
  159SOL    HW1 1918   2.376   4.162  10.456 -1.3406  1.9893  0.8445
  159SOL    HW2 1919   2.309   4.055  10.540 -2.1835  1.4724 -0.4536
  160SOL     OW 1920   4.087   3.695   7.126  0.4237  0.6800  0.4407
  160SOL    HW1 1921   4.089   3.670   7.033 -0.7664 -0.3464  0.6601
  160SOL    HW2 1922   4.179   3.710   7.149  0.7833  0.4850 -0.7789
  161SOL     OW 1923   1.066   6.304   1.893 -0.0120  0.7122  0.0595
  161SOL    HW1 1924   0.981   6.341   1.915 -0.0150  0.7182  0.0376
  161SOL    HW2 1925   1.095   6.352   1.815 -0.5267 -0.0972 -0.6470
  162SOL     OW 1926   2.050   5.395  10.267 -0.1147  0.3431 -0.0002
  162SOL    HW1 1927   2.069   5.305  10.293 -0.6656  0.6016  1.3640
  162SOL    HW2 1928   1.956   5.404  10.279  0.0364  1.3050  0.5266
  163SOL     OW 1929   3.016   6.269   4.129  0.0301 -0.6101 -0.6857
  163SOL    HW1 1930   2.941   6.321   4.158 -0.0148 -1.6949  1.2207
  163SOL    HW2 1931   2.977   6.195   4.082  0.0457  0.1301 -1.9344
  164SOL     OW 1932   1.994   4.663   5.624 -0.1592  0.3856 -0.0083
  164SOL    HW1 1933   2.077   4.646   5.668 -0.3509 -1.2752 -0.2090
  164SOL    HW2 1934   1.928   4.628   5.684 -0.5354 -0.3916 -0.8473
  165SOL     OW 1935   3.883   1.044   5.400 -0.6792 -0.5832  0.0207
  165SOL    HW1 1936   3.943   1.102   5.448 -0.3357 -0.8071 -0.1396
  165SOL    HW2 1937   3.839   0.994   5.469 -1.7287  0.5763  0.2336
  166SOL     OW 1938   6.370   4.544   5.064  0.7151  0.4352 -0.6277
  166SOL    HW1 1939   6.301   4.544   5.130  1.4611  1.7262  0.2027
  166SOL    HW2 1940   6.380   4.452   5.039 -0.5990  0.1116 -0.0480
  167SOL     OW 1941   0.702   7.692   5.541  0.0847 -0.6681  0.3788
  167SOL    HW1 1942   0.773   7.714   5.602  2.1915 -1.1787 -1.7519
  167SOL    HW2 1943   0.662   7.614   5.579  1.4810 -1.1021  1.0433
  168SOL     OW 1944   2.378   4.262   3.550 -0.2883 -0.1357 -0.4020
  168SOL    HW1 1945   2.363   4.300   3.637 -0.3303  0.4236 -0.6515
  168SOL    HW2 1946   2.464   4.221   3.556  0.0793  0.6407 -0.3518
  169SOL     OW 1947   5.767   6.853   7.186  0.0705 -0.1438 -0.4088
  169SOL    HW1 1948   5.813   6.820   7.108  0.4226 -1.2215  0.2409
  169SOL    HW2 1949   5.679   6.875   7.155 -0.1914 -1.7375 -0.8648
  170SOL     OW 1950   0.826   5.793   9.256  0.5814  0.0783 -0.7316
  170SOL    HW1 1951   0.794   5.710   9.221  1.3672 -1.2538  1.5297
  170SOL    HW2 1952   0.764   5.858   9.223 -0.3574 -1.4371 -2.1330
  171SOL     OW 1953   0.485   1.941   6.713 -0.0529  0.5449  0.1479
  171SOL    HW1 1954   0.564   1.943   6.658 -0.0138  0.7065  0.2096
  171SOL    HW2 1955   0.494   2.017   6.771 -0.8207  1.2599 -0.6425
  172SOL     OW 1956   5.978   0.887   5.351 -0.1005 -0.5599 -0.0719
  172SOL    HW1 1957   5.961   0.904   5.444  1.1110 -2.2491  0.4901
  172SOL    HW2 1958   5.903   0.835   5.322 -0.0954 -0.6937  0.1588
  173SOL     OW 1959   2.761   0.367   0.076  0.3189  0.1117 -0.0815
  173SOL    HW1 1960   2.799   0.282   0.053 -0.7453 -1.1136  2.3426
  173SOL    HW2 1961   2.695   0.383   0.008 -0.4555 -1.7244  0.1957
  174SOL     OW 1962   7.028   1.812  10.143  0.0184 -0.5801 -0.0266
  174SOL    HW1 1963   6.961   1.858  10.093 -1.9712 -0.6852  2.3229
  174SOL    HW2 1964   6.997   1.721  10.146 -0.0334 -0.5453  1.4632
  175SOL     OW 1965   4.744   6.133   7.390 -0.1674 -0.4888 -0.1559
  175SOL    HW1 1966   4.772   6.075   7.461 -0.7578  1.8595  2.1849
  175SOL    HW2 1967   4.699   6.076   7.328  2.3718 -3.0166  0.1464
  176SOL     OW 1968   2.016   6.848   8.976 -0.1697  0.2157  0.2750
  176SOL    HW1 1969   2.083   6.914   8.993 -0.0630 -0.0778  1.0169
  176SOL    HW2 1970   1.933   6.890   9.000 -0.0323 -0.1548  1.4708
  177SOL     OW 1971   2.174   3.192   3.997  0.1915  0.3092  0.7926
  177SOL    HW1 1972   2.254   3.164   3.951 -0.9294 -1.1534 -0.3738
  177SOL    HW2 1973   2.136   3.259   3.940  0.2424  0.5141  1.0006
  178SOL     OW 1974   4.954   1.812   0.974  0.2089 -0.3420 -0.0133
  178SOL    HW1 1975   4.911   1.753   0.912 -2.3414  0.1326  1.1662
  178SOL    HW2 1976   4.888   1.829   1.040  2.2786  0.5172  1.9549
  179SOL     OW 1977   1.887   4.948   8.665 -0.8917 -0.4437 -1.0952
  179SOL    HW1 1978   1.939   4.987   8.735 -0.9627 -1.6228 -0.3641
  179SOL    HW2 1979   1.929   4.864   8.648 -2.1720 -1.1424 -0.9124
  180SOL     OW 1980   2.891   6.540   7.936 -0.4586  0.0548 -0.2196
  180SOL    HW1 1981   2.851   6.454   7.920 -0.8811 -0.2472  2.1728
  180SOL    HW2 1982   2.985   6.523   7.939 -0.6407 -0.8194  2.5620
  181SOL     OW 1983   7.639   2.408   6.582  0.0843  0.0198 -0.2186
  181SOL    HW1 1984   7.639   2.324   6.628 -1.7586 -0.1371 -0.4092
  181SOL    HW2 1985   7.658   2.473   6.649 -0.1993 -0.4152  0.2874
  182SOL     OW 1986   2.223   5.904   6.330  0.0496 -0.3693 -0.0692
  182SOL    HW1 1987   2.267   5.836   6.381  0.7898  0.1807  0.0381
  182SOL    HW2 1988   2.203   5.973   6.393 -0.9498 -0.5853 -0.1225
  183SOL     OW 1989   4.269   5.129   9.994  0.0432  0.4974 -0.1824
  183SOL    HW1 1990   4.234   5.146  10.081 -1.1977  1.5034 -0.8327
  183SOL    HW2 1991   4.298   5.038   9.996  2.6376  1.2443  2.0938
  184SOL     OW 1992   5.838   5.310   5.763 -0.5055  0.3963 -0.3817
  184SOL    HW1 1993   5.862   5.385   5.818  1.2001  0.6305 -1.3742
  184SOL    HW2 1994   5.913   5.252   5.769 -0.2404  0.4611 -2.4945
  185SOL     OW 1995   5.560   6.868   4.802  0.2078 -0.0628  0.0741
  185SOL    HW1 1996   5.570   6.869   4.707  0.2600 -0.1798  0.0776
  185SOL    HW2 1997   5.488   6.807   4.819  0.4028 -0.2799  0.1261
  186SOL     OW 1998   5.185   0.856   7.318  0.0510  0.0606 -0.7381
  186SOL    HW1 1999   5.225   0.804   7.387 -0.5442  1.4917  0.7545
  186SOL    HW2 2000   5.242   0.933   7.311 -1.1615  1.0459 -0.1597
  187SOL     OW 2001   7.598   4.468  12.398 -0.2498  0.5144  0.3085
  187SOL    HW1 2002   7.513   4.425  12.403 -0.7762  1.1007 -2.1695
  187SOL    HW2 2003   7.593   4.520  12.317  2.1680  1.2080  0.5477
  188SOL     OW 2004   7.857   2.063  10.928  0.1465 -0.3299 -0.2142
  188SOL    HW1 2005   7.782   2.121  10.920 -1.7811 -2.5883  0.5961
  188SOL    HW2 2006   7.875   2.035  10.838 -1.2011 -1.2063 -0.2285
  189SOL     OW 2007   3.613   6.579   3.124  0.7084 -0.1498  0.5377
  189SOL    HW1 2008   3.568   6.602   3.206  1.6699  0.3059  0.9561
  189SOL    HW2 2009   3.702   6.613   3.135  0.9129 -0.2637 -0.6215
  190SOL     OW 2010   1.849   7.072   8.357  0.5675 -0.0294 -0.1505
  190SOL    HW1 2011   1.790   7.048   8.286  0.4522  1.0281 -0.4268
  190SOL    HW2 2012   1.906   6.996   8.367 -0.8379 -1.0965  0.1445
  191SOL     OW 2013   7.631   1.728   8.676  0.4251 -0.4560 -0.4472
  191SOL    HW1 2014   7.705   1.676   8.707  0.1415 -0.2238  0.6608
  191SOL    HW2 2015   7.554   1.676   8.697  0.1449  0.3458  0.5927
  192SOL     OW 2016   5.672   6.132   5.950  0.3381  0.7647 -0.3681
  192SOL    HW1 2017   5.625   6.094   6.024  0.8389  2.4843  0.8776
  192SOL    HW2 2018   5.608   6.189   5.908 -0.8509 -2.1773 -3.0496
  193SOL     OW 2019   7.437   1.543   5.764  0.9383 -0.3915 -0.0063
  193SOL    HW1 2020   7.383   1.599   5.819  1.1824  2.0532 -2.0416
  193SOL    HW2 2021   7.476   1.480   5.824 -1.9197 -0.5019  1.9468
  194SOL     OW 2022   2.528   0.334   2.669  0.4495  0.1698 -0.5810
  194SOL    HW1 2023   2.590   0.396   2.706  1.1041 -1.1283  0.5585
  194SOL    HW2 2024   2.538   0.344   2.574 -0.4268  2.7184 -0.4533
  195SOL     OW 2025   1.251   3.414  10.580 -0.5728 -0.4536  0.5669
  195SOL    HW1 2026   1.200   3.437  10.502  0.3056 -0.8777 -0.1425
  195SOL    HW2 2027   1.202   3.342  10.620 -0.9915 -0.2780  0.3805
  196SOL     OW 2028   4.147   0.260   8.240  0.4235  0.6260 -0.0170
  196SOL    HW1 2029   4.059   0.295   8.249 -0.5131 -1.8733  1.4047
  196SOL    HW2 2030   4.141   0.197   8.168  0.3813 -1.2855  1.5895
  197SOL     OW 2031   6.255   0.042   2.084  0.0071 -0.4933 -0.1881
  197SOL    HW1 2032   6.343   0.078   2.095 -0.0132  0.7807 -3.2440
  197SOL    HW2 2033   6.204   0.079   2.156  1.5511  0.2081  0.5878
  198SOL     OW 2034   7.836   1.453   6.722 -0.4779 -0.3006  0.1216
  198SOL    HW1 2035   7.919   1.408   6.738  0.2466  0.6954 -0.6530
  198SOL    HW2 2036   7.809   1.423   6.635 -0.0562  0.6174 -0.3432
  199SOL     OW 2037   5.367   4.811   5.840 -0.1396  0.4871 -0.5156
  199SOL    HW1 2038   5.462   4.824   5.844 -0.1400  0.1807  1.2720
  199SOL    HW2 2039   5.334   4.852   5.920 -1.4201 -0.3036 -0.6140
  200SOL     OW 2040   2.002   2.480  11.162  0.5046  0.0611 -0.2410
  200SOL    HW1 2041   1.941   2.554  11.165 -0.2995 -0.6099  1.4454
  200SOL    HW2 2042   2.058   2.493  11.238  2.0159  0.2577 -1.3531
  201SOL     OW 2043   1.466   5.321   5.139 -0.0923  0.3925 -0.3858
  201SOL    HW1 2044   1.435   5.263   5.209 -1.0816  2.1129  0.7101
  201SOL    HW2 2045   1.406   5.304   5.066  0.7091 -1.1538 -0.7111
  202SOL     OW 2046   2.164   6.866   1.561  0.0499 -0.0655 -0.4341
  202SOL    HW1 2047   2.082   6.883   1.514  1.0291  0.9566 -1.8428
  202SOL    HW2 2048   2.222   6.828   1.496  1.5074  1.5310 -0.1469
  203SOL     OW 2049   0.027   3.462   2.604 -0.3493  0.2465  0.4065
  203SOL    HW1 2050   0.111   3.440   2.566 -0.4913  0.4940 -0.0587
  203SOL    HW2 2051   0.042   3.543   2.652 -1.2453  2.9458 -3.3900
  204SOL     OW 2052   1.281   6.249   6.894  0.0834 -0.5637  0.0379
  204SOL    HW1 2053   1.226   6.322   6.923  1.7378  0.3867  0.9345
  204SOL    HW2 2054   1.299   6.269   6.802 -1.4223 -1.1568 -0.4209
  205SOL     OW 2055   6.168   1.965   1.686  0.5603  0.1113  0.3857
  205SOL    HW1 2056   6.163   1.873   1.710 -1.7581 -0.1044 -0.6239
  205SOL    HW2 2057   6.136   1.969   1.596  0.4796  1.9089  0.4432
  206SOL     OW 2058   0.464   1.726   9.342 -0.0657 -0.4942 -0.2426
  206SOL    HW1 2059   0.490   1.683   9.260 -0.3535  1.4152 -1.4035
  206SOL    HW2 2060   0.460   1.819   9.320 -0.2984  0.0633  1.9317
  207SOL     OW 2061   1.708   6.626   9.248 -0.0163 -0.2726  0.1022
  207SOL    HW1 2062   1.800   6.651   9.245 -0.1315  0.0980 -0.8294
  207SOL    HW2 2063   1.686   6.624   9.341  0.5528  1.0222  0.2775
  208SOL     OW 2064   5.204   5.620   1.365 -0.5924  0.1276 -0.1960
  208SOL    HW1 2065   5.271   5.619   1.296  0.7447  0.2159  1.0447
  208SOL    HW2 2066   5.205   5.709   1.399 -1.0062  0.0064  0.1453
  209SOL     OW 2067   1.318   7.632   5.567 -0.3789  0.0704 -0.2525
  209SOL    HW1 2068   1.254   7.631   5.496 -0.5965 -0.3306 -0.0546
  209SOL    HW2 2069   1.291   7.560   5.625  1.6313 -1.7159 -1.3995
  210SOL     OW 2070   5.837   0.784  10.324  0.5520 -0.3995  0.1041
  210SOL    HW1 2071   5.873   0.869  10.301 -0.2861 -0.0051  0.1922
  210SOL    HW2 2072   5.790   0.799  10.406 -0.0678 -0.8054 -0.1619
  211SOL     OW 2073   4.237   2.160   1.617 -0.3766  0.0190 -0.1681
  211SOL    HW1 2074   4.144   2.164   1.638 -0.0877 -1.9844  1.7863
  211SOL    HW2 2075   4.279   2.215   1.683 -0.1222  0.8325 -0.9792
  212SOL     OW 2076   3.042   4.064   2.812 -0.0387 -0.1621 -0.3073
  212SOL    HW1 2077   3.016   3.973   2.797  0.3703 -0.2168 -0.7358
  212SOL    HW2 2078   2.974   4.100   2.868  0.5355 -1.1245  1.0433
  213SOL     OW 2079   0.589   7.229   8.877 -0.1482  0.0656  0.5512
  213SOL    HW1 2080   0.523   7.186   8.932  1.5454 -1.1160  1.7738
  213SOL    HW2 2081   0.617   7.162   8.816 -0.7522  0.8601 -0.6308
  214SOL     OW 2082   7.328   5.222  10.612  0.8267  0.8989  0.2070
  214SOL    HW1 2083   7.375   5.151  10.657  0.2492  0.4291  0.0854
  214SOL    HW2 2084   7.298   5.279  10.683 -1.3958 -0.6432  0.5937
  215SOL     OW 2085   1.024   3.534  10.874 -0.1734  0.0223  0.3025
  215SOL    HW1 2086   1.026   3.455  10.928 -0.2439  0.0083  0.2847
  215SOL    HW2 2087   1.012   3.606  10.936 -0.0089  0.0272  0.3271
  216SOL     OW 2088   6.307   7.019   7.988 -0.0572  0.1437  0.3109
  216SOL    HW1 2089   6.398   7.047   7.990  0.0350  0.2264 -2.2164
  216SOL    HW2 2090   6.272   7.056   7.907 -1.5144 -2.2763 -0.2715
  217SOL     OW 2091   2.825   3.952   1.209 -0.1661  0.6542  0.1334
  217SOL    HW1 2092   2.876   3.957   1.289 -1.7201  1.3066  1.1390
  217SOL    HW2 2093   2.734   3.948   1.239 -0.8242  1.5835 -1.5932
  218SOL     OW 2094   4.792   6.447   1.698 -0.0530  0.1554  0.1977
  218SOL    HW1 2095   4.823   6.429   1.787 -0.9284 -1.2756  0.2528
  218SOL    HW2 2096   4.854   6.401   1.642 -0.5194 -0.4605  0.1752
  219SOL     OW 2097   3.449   5.237   5.490 -0.2370  0.7014  0.4876
  219SOL    HW1 2098   3.452   5.212   5.398  0.8756  1.5120  0.2877
  219SOL    HW2 2099   3.486   5.325   5.492 -1.6128  1.3029  1.5181
  220SOL     OW 2100   1.933   5.497  11.920 -0.5629 -0.2944  0.5843
  220SOL    HW1 2101   1.889   5.510  12.004 -0.4299 -0.0358  0.6175
  220SOL    HW2 2102   1.863   5.472  11.860 -0.5805 -0.9721  0.8834
  221SOL     OW 2103   4.564   2.482   4.539  0.0078  0.0492  0.8372
  221SOL    HW1 2104   4.581   2.518   4.626  0.8421 -0.4593  0.8927
  221SOL    HW2 2105   4.477   2.443   4.546 -0.0041  0.1710  1.3908
  222SOL     OW 2106   2.932   4.580   5.615 -0.6105  0.5964 -0.0597
  222SOL    HW1 2107   2.911   4.641   5.544 -0.2397  1.0663  0.2273
  222SOL    HW2 2108   2.906   4.625   5.695  0.4446  0.7446  0.2222
  223SOL     OW 2109   5.559   7.160   4.630  0.1476  0.5680 -0.2174
  223SOL    HW1 2110   5.525   7.141   4.718 -1.8475  1.7667 -0.6584
  223SOL    HW2 2111   5.601   7.078   4.603 -0.3224 -0.2495  1.3436
  224SOL     OW 2112   0.850   7.843  12.188 -0.5592  0.1484  0.1085
  224SOL    HW1 2113   0.914   7.776  12.209 -2.2779 -2.1407 -1.4707
  224SOL    HW2 2114   0.771   7.795  12.165 -1.6080  2.6506 -2.1706
  225SOL     OW 2115   6.978   6.716   3.119 -0.3300 -0.1754  0.4494
  225SOL    HW1 2116   6.936   6.775   3.181 -0.1091 -0.7126  1.1231
  225SOL    HW2 2117   7.042   6.668   3.171 -1.1226 -1.6602  0.1268
  226SOL     OW 2118   0.770   0.101  12.069  0.0067  0.4230 -0.3070
  226SOL    HW1 2119   0.804   0.024  12.115  0.5594  0.9896  0.2516
  226SOL    HW2 2120   0.793   0.086  11.977  0.9969  0.3767 -0.0677
  227SOL     OW 2121   7.783   3.158   9.037 -0.0414 -0.0225  0.9770
  227SOL    HW1 2122   7.793   3.249   9.066  0.0915  0.5887 -0.8595
  227SOL    HW2 2123   7.692   3.137   9.058 -0.9534  1.5332 -1.0837
  228SOL     OW 2124   3.551   6.545  10.257 -0.3119  0.2074  0.1393
  228SOL    HW1 2125   3.483   6.608  10.234 -1.0184  0.0456  1.7247
  228SOL    HW2 2126   3.510   6.486  10.319  1.3557  0.2872  1.3810
  229SOL     OW 2127   3.783   7.677   7.893  0.1134  0.0779 -0.0581
  229SOL    HW1 2128   3.798   7.605   7.832  1.1137  0.3973 -0.2046
  229SOL    HW2 2129   3.713   7.646   7.951  0.1567 -0.7879 -0.4649
  230SOL     OW 2130   3.242   0.384   9.611  0.0206 -0.0830 -0.4287
  230SOL    HW1 2131   3.223   0.451   9.545  0.7022 -0.2565 -0.8101
  230SOL    HW2 2132   3.271   0.434   9.687  2.1417  0.0282 -1.2472
  231SOL     OW 2133   0.348   1.860  11.781 -0.7727  0.2966  0.2370
  231SOL    HW1 2134   0.426   1.805  11.778 -0.4144  0.5767  2.6224
  231SOL    HW2 2135   0.379   1.946  11.753 -0.1356  0.4744  1.4448
  232SOL     OW 2136   5.324   7.901   9.586 -0.4453  0.2806  0.3759
  232SOL    HW1 2137   5.377   7.978   9.563 -0.5487  0.6061  1.2026
  232SOL    HW2 2138   5.240   7.915   9.542 -0.6472  0.9061  0.9454
  233SOL     OW 2139   1.176   4.979  10.951 -0.7271 -0.2378  0.3928
  233SOL    HW1 2140   1.261   4.935  10.941 -1.2210 -1.3938  1.0185
  233SOL    HW2 2141   1.194   5.070  10.929  0.8677 -0.2806  1.2958
  234SOL     OW 2142   0.508   0.942   6.910  0.4684 -0.4927 -0.3260
  234SOL    HW1 2143   0.413   0.937   6.901  0.4160 -0.4551  0.1565
  234SOL    HW2 2144   0.530   0.875   6.975  0.9819 -1.7359 -1.7365
  235SOL     OW 2145   5.269   4.627   7.465  0.6795  0.0796  0.6429
  235SOL    HW1 2146   5.230   4.625   7.552 -0.8224 -1.5298 -0.0108
  235SOL    HW2 2147   5.324   4.549   7.461 -0.7075 -0.8811 -0.4468
  236SOL     OW 2148   2.663   6.209  12.075 -0.4680 -0.5415  0.0244
  236SOL    HW1 2149   2.571   6.187  12.063 -0.7510  0.5507  0.0376
  236SOL    HW2 2150   2.703   6.130  12.110 -1.1294 -1.4424 -1.2044
  237SOL     OW 2151   7.320   5.340  12.207  0.4052  0.0925 -0.0466
  237SOL    HW1 2152   7.318   5.415  12.266  1.2155  0.1457 -0.0638
  237SOL    HW2 2153   7.385   5.364  12.141  1.5869 -1.0845  0.6191
  238SOL     OW 2154   7.575   4.945   9.539  0.3189 -0.7161 -0.1995
  238SOL    HW1 2155   7.596   5.014   9.602  0.4590  0.4232 -1.4285
  238SOL    HW2 2156   7.604   4.864   9.580 -0.3598 -0.1161  1.5258
  239SOL     OW 2157   1.342   7.517   8.913  0.0993  0.5357  0.7612
  239SOL    HW1 2158   1.313   7.428   8.935 -0.5435  0.5244 -0.0693
  239SOL    HW2 2159   1.406   7.539   8.981 -1.5391  0.4007  2.4174
  240SOL     OW 2160   7.394   7.851   7.020  0.1598 -0.4226  0.1384
  240SOL    HW1 2161   7.357   7.762   7.029  0.3815 -0.5347 -0.0674
  240SOL    HW2 2162   7.488   7.839   7.032  0.1027 -0.0864  1.0160
  241SOL     OW 2163   1.060   3.799   0.023 -0.4905 -0.0108  0.8465
  241SOL    HW1 2164   1.020   3.835  -0.056 -0.8170 -0.1866  0.9310
  241SOL    HW2 2165   1.033   3.859   0.093 -0.1952  0.1495  0.8244
  242SOL     OW 2166   3.426   7.663   8.838 -0.7026 -0.0565  0.0128
  242SOL    HW1 2167   3.454   7.611   8.762 -2.0186  0.2308 -0.6983
  242SOL    HW2 2168   3.448   7.608   8.913  1.9889  0.2681 -0.4326
  243SOL     OW 2169   3.558   7.185   9.910  0.3301 -0.4043  0.5728
  243SOL    HW1 2170   3.566   7.102   9.862 -1.0705 -2.2138  3.2286
  243SOL    HW2 2171   3.637   7.190   9.963 -0.4031 -1.0189  1.7595
  244SOL     OW 2172   2.528   5.355   0.011 -0.3272 -0.3072 -0.2893
  244SOL    HW1 2173   2.585   5.371  -0.065  0.9836 -0.8392  0.5524
  244SOL    HW2 2174   2.468   5.286  -0.018  0.3696 -0.7276 -0.7414
  245SOL     OW 2175   6.279   0.326   7.665 -0.4190  0.4476  0.0960
  245SOL    HW1 2176   6.354   0.295   7.717 -1.1288  1.3057  1.7082
  245SOL    HW2 2177   6.204   0.319   7.724 -1.2340  1.6359 -0.7487
  246SOL     OW 2178   1.626   1.555  10.332  0.2547  0.5258 -0.3348
  246SOL    HW1 2179   1.692   1.487  10.348  0.3373  0.4547 -0.9256
  246SOL    HW2 2180   1.660   1.633  10.376 -0.5046 -0.1433  1.5257
  247SOL     OW 2181   6.436   2.494   9.471  0.1703  0.4805 -0.2619
  247SOL    HW1 2182   6.420   2.418   9.415  0.8719 -0.7576  1.1534
  247SOL    HW2 2183   6.379   2.562   9.435 -0.2001 -0.5813 -1.8015
  248SOL     OW 2184   2.009   6.868   9.794 -0.3473  0.1974  0.4260
  248SOL    HW1 2185   1.997   6.807   9.867  2.6102  1.6571  2.3086
  248SOL    HW2 2186   2.060   6.819   9.730  0.7069  0.1765  1.2583
  249SOL     OW 2187   0.816   1.911   4.527 -0.3965 -0.4467 -0.0144
  249SOL    HW1 2188   0.807   1.829   4.576 -0.4060 -0.6810 -0.4089
  249SOL    HW2 2189   0.860   1.886   4.446 -1.4776 -0.2652 -0.6724
  250SOL     OW 2190   2.685   6.340  11.610 -0.4070  0.5878 -0.1579
  250SOL    HW1 2191   2.654   6.250  11.623  0.5482  0.4315  1.3618
  250SOL    HW2 2192   2.609   6.395  11.631 -0.2041  0.1735  1.8491
  251SOL     OW 2193   6.515   5.965   8.795 -0.3722  0.4259 -0.4663
  251SOL    HW1 2194   6.425   5.942   8.820  0.0166 -0.5649  0.1048
  251SOL    HW2 2195   6.547   5.886   8.751  0.3298  0.6459 -0.3487
  252SOL     OW 2196   1.951   1.655   6.060  0.7542  0.5351  0.1611
  252SOL    HW1 2197   1.866   1.691   6.035 -0.3028 -0.4444  2.1539
  252SOL    HW2 2198   1.991   1.629   5.977 -1.4176 -0.1252 -0.7470
  253SOL     OW 2199   0.104   1.891  10.764  0.5614  0.1119  0.2929
  253SOL    HW1 2200   0.050   1.954  10.715  1.8857  0.6875 -0.4708
  253SOL    HW2 2201   0.041   1.825  10.794 -0.2901 -0.4972 -2.5037
  254SOL     OW 2202   1.032   1.338   1.479  0.7681 -0.2548 -0.0121
  254SOL    HW1 2203   1.118   1.358   1.515  0.8787  1.3866 -1.1150
  254SOL    HW2 2204   0.995   1.274   1.540  2.3346 -0.1947  1.0480
  255SOL     OW 2205   7.902   2.035   2.282 -0.0341 -0.1978 -0.7662
  255SOL    HW1 2206   7.879   1.956   2.233 -3.5304  0.3932 -0.3668
  255SOL    HW2 2207   7.906   2.008   2.373 -3.1357  0.2099 -0.3747
  256SOL     OW 2208   5.648   7.423   4.346  0.0021  0.2632 -0.1645
  256SOL    HW1 2209   5.739   7.393   4.337 -0.0933  0.0504 -0.4166
  256SOL    HW2 2210   5.624   7.400   4.436 -0.0647 -0.3946 -0.3506
  257SOL     OW 2211   0.438   5.257  10.929 -0.0615 -0.7745 -0.0913
  257SOL    HW1 2212   0.454   5.339  10.882  2.5209 -1.3432 -0.3335
  257SOL    HW2 2213   0.372   5.212  10.877  0.0480  0.2152 -1.1272
  258SOL     OW 2214   2.158   3.386   3.784 -0.0686 -0.0764  0.4192
  258SOL    HW1 2215   2.101   3.458   3.812 -0.8694 -0.2465 -0.6555
  258SOL    HW2 2216   2.236   3.429   3.749 -0.7381  0.3228 -0.6452
  259SOL     OW 2217   4.259   4.158  11.979 -0.9255  0.2900  0.6875
  259SOL    HW1 2218   4.178   4.207  11.964 -0.5683  1.3553  1.9618
  259SOL    HW2 2219   4.300   4.152  11.893 -1.8413  0.6728  0.2054
  260SOL     OW 2220   1.375   2.044   2.776  0.4090  0.1264 -0.2135
  260SOL    HW1 2221   1.359   2.136   2.755 -0.1994  0.4245  1.3764
  260SOL    HW2 2222   1.308   1.995   2.729 -0.8727  0.7467  0.9135
  261SOL     OW 2223   7.728   2.215   3.076 -0.1567  0.2974 -0.1909
  261SOL    HW1 2224   7.660   2.271   3.112 -1.5920 -0.9971 -0.7992
  261SOL    HW2 2225   7.791   2.276   3.037 -0.1582  1.5815  1.6698
  262SOL     OW 2226   2.428   3.863   5.410  0.4524 -0.5493 -0.1317
  262SOL    HW1 2227   2.506   3.846   5.463 -0.0653 -0.1977  0.7784
  262SOL    HW2 2228   2.411   3.956   5.423  0.1056 -0.5432 -0.6357
  263SOL     OW 2229   7.304   2.625   1.990 -0.1070 -0.1771 -0.0710
  263SOL    HW1 2230   7.258   2.707   1.977 -0.7667 -0.5256  0.0447
  263SOL    HW2 2231   7.392   2.651   2.019 -0.4984  0.4741  0.5552
  264SOL     OW 2232   0.177   3.691   5.522 -0.3539  0.2687 -0.0855
  264SOL    HW1 2233   0.180   3.742   5.603 -1.0885  0.8455 -0.4056
  264SOL    HW2 2234   0.089   3.706   5.488 -0.7890 -1.6552  0.0668
  265SOL     OW 2235   1.419   6.265   0.997  0.0767 -0.3976 -0.0775
  265SOL    HW1 2236   1.377   6.348   1.021 -1.3151 -1.1483  0.1774
  265SOL    HW2 2237   1.480   6.247   1.069 -0.4424 -0.1451  0.4374
  266SOL     OW 2238   5.196   3.726   3.968  0.1241  0.1672 -0.3460
  266SOL    HW1 2239   5.229   3.781   3.896  1.7168  0.4328  0.5335
  266SOL    HW2 2240   5.111   3.763   3.990  0.8524  1.8490 -0.2523
  267SOL     OW 2241   0.856   5.566   7.140  0.2261 -0.2212 -0.1798
  267SOL    HW1 2242   0.844   5.473   7.120  0.7862 -0.3927  0.2682
  267SOL    HW2 2243   0.841   5.572   7.235 -0.7564  0.3085 -0.3563
  268SOL     OW 2244   0.720   1.928   2.594  0.4421 -0.2851  0.2630
  268SOL    HW1 2245   0.688   1.882   2.672  1.2055 -1.0581  0.1378
  268SOL    HW2 2246   0.643   1.973   2.560  0.1779  0.3889  1.6747
  269SOL     OW 2247   3.629   7.095   2.024 -0.2393 -0.6405 -0.3014
  269SOL    HW1 2248   3.575   7.056   2.094 -0.5857  0.8711  0.3110
  269SOL    HW2 2249   3.670   7.020   1.982 -0.1349 -1.6231  1.4330
  270SOL     OW 2250   0.600   6.804   4.464 -0.3005 -0.5932  0.0648
  270SOL    HW1 2251   0.609   6.736   4.397  0.0510 -1.6838  1.1669
  270SOL    HW2 2252   0.625   6.760   4.546  0.4134  1.0073  0.7537
  271SOL     OW 2253   5.043   0.276   0.262 -0.4924  0.1658  0.0606
  271SOL    HW1 2254   5.099   0.333   0.314 -0.0665 -1.0232  0.9352
  271SOL    HW2 2255   5.041   0.194   0.310  1.4535 -1.6458 -2.6774
  272SOL     OW 2256   7.230   1.527   6.656  0.4104  0.1540 -0.0663
  272SOL    HW1 2257   7.168   1.486   6.717  0.2047  2.8038  1.6858
  272SOL    HW2 2258   7.174   1.578   6.597  0.7694 -0.0262 -0.5625
  273SOL     OW 2259   7.753   3.227   3.941  0.0898  0.1705  0.2917
  273SOL    HW1 2260   7.707   3.288   3.883 -0.6231  0.3714  1.0532
  273SOL    HW2 2261   7.769   3.150   3.887 -1.6869 -0.1429  0.1555
  274SOL     OW 2262   6.005   5.071  10.045  0.1702 -0.2461  0.2683
  274SOL    HW1 2263   6.024   5.091  10.136 -0.0388 -1.4188  0.5953
  274SOL    HW2 2264   5.933   5.007  10.049  0.4559 -0.6498 -0.6884
  275SOL     OW 2265   3.557   2.121   3.574  0.4308 -0.0053  0.3317
  275SOL    HW1 2266   3.616   2.194   3.590  0.6445  0.1111 -0.8932
  275SOL    HW2 2267   3.551   2.115   3.478 -3.0106  1.1625  0.3473
  276SOL     OW 2268   1.952   6.386  10.407 -0.4443  0.2098  0.2701
  276SOL    HW1 2269   1.967   6.381  10.502  0.5440  0.7397  0.1567
  276SOL    HW2 2270   2.027   6.436  10.374 -0.1223 -1.0229 -0.9458
  277SOL     OW 2271   4.717   2.754   9.266 -0.5077  0.3583 -0.3949
  277SOL    HW1 2272   4.695   2.812   9.193 -0.4278  0.1361 -0.5954
  277SOL    HW2 2273   4.668   2.789   9.341 -0.5460  0.6177 -0.5404
  278SOL     OW 2274   7.440   1.908  10.709  0.0296 -0.1930  0.2996
  278SOL    HW1 2275   7.377   1.839  10.731  0.8511 -1.0737 -0.0658
  278SOL    HW2 2276   7.498   1.912  10.785 -0.9277  1.1844  0.9927
  279SOL     OW 2277   5.634   1.217   9.097  0.6069 -0.6234 -0.1354
  279SOL    HW1 2278   5.609   1.182   9.183  0.5731 -1.5088 -0.4974
  279SOL    HW2 2279   5.705   1.161   9.067 -1.2999 -2.2381 -1.9690
  280SOL     OW 2280   7.256   3.987   8.941  0.3615 -0.0697 -0.0649
  280SOL    HW1 2281   7.311   3.916   8.906 -0.0818 -1.6379  2.1776
  280SOL    HW2 2282   7.313   4.064   8.938  2.2742 -1.3429  0.8905
  281SOL     OW 2283   5.541   3.796   9.667  0.6213  1.0784 -0.2322
  281SOL    HW1 2284   5.541   3.710   9.626 -1.5683  1.5624 -1.4000
  281SOL    HW2 2285   5.623   3.800   9.716  1.3020 -1.2019 -1.0960
  282SOL     OW 2286   1.204   7.464   2.972 -0.2271 -0.1082  0.0042
  282SOL    HW1 2287   1.131   7.442   2.914 -0.2862  2.4155 -1.0027
  282SOL    HW2 2288   1.277   7.482   2.913  0.7110 -0.8249  0.9142
  283SOL     OW 2289   0.479   6.831   1.650  0.3520  0.2822 -0.2176
  283SOL    HW1 2290   0.568   6.863   1.668  0.6230 -0.5043 -0.1118
  283SOL    HW2 2291   0.422   6.891   1.698  0.9117 -0.1062  0.9599
  284SOL     OW 2292   6.183   0.084   1.101  0.1519  0.1439 -0.4992
  284SOL    HW1 2293   6.247   0.155   1.105 -0.3006  0.5126  0.3907
  284SOL    HW2 2294   6.098   0.129   1.109 -0.1173 -0.5378  0.5891
  285SOL     OW 2295   1.738   5.038   6.660 -0.6684 -0.0350 -0.3103
  285SOL    HW1 2296   1.759   5.109   6.720 -3.2193  1.7756 -1.3972
  285SOL    HW2 2297   1.749   5.076   6.573  0.7904 -1.9269 -1.0364
  286SOL     OW 2298   0.671   1.207  11.768  0.2955  0.0944 -0.2783
  286SOL    HW1 2299   0.763   1.222  11.790  0.8262 -0.4793 -1.9390
  286SOL    HW2 2300   0.661   1.248  11.682 -1.1322  0.5086  0.0683
  287SOL     OW 2301   0.633   1.347   1.409  0.0886 -0.2747 -0.0886
  287SOL    HW1 2302   0.569   1.281   1.438 -0.7505  0.0247 -1.1719
  287SOL    HW2 2303   0.677   1.306   1.334  2.0557 -0.9473  1.3551
  288SOL     OW 2304   3.941   0.891   0.608 -0.2536  0.2938 -0.2181
  288SOL    HW1 2305   4.012   0.955   0.609 -0.5833  0.6651  0.3288
  288SOL    HW2 2306   3.943   0.851   0.695 -1.1375  0.7987  0.0514
  289SOL     OW 2307   1.635   4.844   1.323 -0.1772  0.0719  0.7105
  289SOL    HW1 2308   1.709   4.843   1.262 -0.2004  1.5793  0.6188
  289SOL    HW2 2309   1.658   4.780   1.390  0.1463 -1.1576 -0.5182
  290SOL     OW 2310   2.653   3.000   1.358 -0.1459  0.6522 -0.1583
  290SOL    HW1 2311   2.661   3.059   1.433 -0.3041  0.0841  0.3178
  290SOL    HW2 2312   2.677   3.054   1.282 -2.5750  1.9949 -0.0583
  291SOL     OW 2313   3.724   3.323  10.196  0.3503 -0.2058  0.4236
  291SOL    HW1 2314   3.764   3.289  10.276 -1.5530 -2.0608  0.6929
  291SOL    HW2 2315   3.647   3.268  10.183 -0.5167  1.3545 -1.5996
  292SOL     OW 2316   3.321   7.824   5.900  0.3867 -0.0995 -0.1247
  292SOL    HW1 2317   3.322   7.734   5.869  0.0715 -0.3310  0.5265
  292SOL    HW2 2318   3.356   7.820   5.989 -2.4001 -0.0395  1.0877
  293SOL     OW 2319   6.728   0.751   6.229 -0.4451  0.2762  0.0693
  293SOL    HW1 2320   6.793   0.790   6.170 -0.7537 -0.6751 -0.9294
  293SOL    HW2 2321   6.650   0.806   6.217 -0.1383  0.8200  0.5220
  294SOL     OW 2322   0.844   1.641   6.411  0.7274 -0.0302 -0.0300
  294SOL    HW1 2323   0.871   1.659   6.321  3.6556 -2.4370  0.2186
  294SOL    HW2 2324   0.794   1.560   6.405 -0.0583  0.4117  0.4110
  295SOL     OW 2325   2.751   3.334  11.299 -0.3613 -0.1522  0.0139
  295SOL    HW1 2326   2.663   3.339  11.261 -0.8365  1.4740  1.1918
  295SOL    HW2 2327   2.810   3.329  11.224 -1.3694  0.8178 -0.8708
  296SOL     OW 2328   6.531   0.697   7.209  0.0355 -0.5727  0.1910
  296SOL    HW1 2329   6.518   0.766   7.274  0.3825  0.5187 -0.8686
  296SOL    HW2 2330   6.451   0.646   7.213  0.1093 -0.6244  1.5744
  297SOL     OW 2331   0.302   3.423   5.630  0.6079  0.6649 -0.0319
  297SOL    HW1 2332   0.316   3.515   5.654 -1.1114  0.8275  0.4239
  297SOL    HW2 2333   0.343   3.374   5.701  0.0484  1.1062  0.6066
  298SOL     OW 2334   7.174   0.539   3.958 -0.3198  0.2444  0.1074
  298SOL    HW1 2335   7.120   0.589   3.896  0.6874  0.7084 -0.4187
  298SOL    HW2 2336   7.121   0.534   4.037 -1.0684  0.8402 -0.3420
  299SOL     OW 2337   2.753   0.337   4.662  0.0373  0.0669 -0.1610
  299SOL    HW1 2338   2.766   0.315   4.569  1.5774  1.4749 -0.3191
  299SOL    HW2 2339   2.691   0.272   4.693  1.8084 -2.4008 -1.4136
  300SOL     OW 2340   0.416   3.359   9.227 -0.2541  0.4711 -0.6211
  300SOL    HW1 2341   0.409   3.453   9.240 -0.6404  0.2515  0.8940
  300SOL    HW2 2342   0.371   3.320   9.302  2.1117 -0.9338  0.1791
  301SOL     OW 2343   2.600   1.921  11.791  0.2754 -0.1755 -0.6048
  301SOL    HW1 2344   2.623   1.945  11.881 -1.2308 -0.5290 -0.1058
  301SOL    HW2 2345   2.656   1.977  11.737 -0.7362  2.1047  0.5327
  302SOL     OW 2346   5.486   0.515   3.089 -0.0835 -0.1484 -0.6289
  302SOL    HW1 2347   5.506   0.494   3.180  0.4480 -0.2481 -0.7655
  302SOL    HW2 2348   5.436   0.597   3.094 -1.5904 -1.0515 -0.1333
  303SOL     OW 2349   2.674   4.055   5.293 -0.0933  0.1491 -0.0674
  303SOL    HW1 2350   2.631   4.103   5.223  1.4527  1.7915  0.0339
  303SOL    HW2 2351   2.676   3.964   5.263 -0.9406  0.5401 -1.3800
  304SOL     OW 2352   7.354   5.867   6.648  0.0908 -0.0656  0.0513
  304SOL    HW1 2353   7.390   5.898   6.731 -0.6856  0.0448  0.3513
  304SOL    HW2 2354   7.263   5.897   6.648 -0.1933 -0.8948 -0.4038
  305SOL     OW 2355   2.759   2.627  11.821 -0.1315 -0.3186 -0.0402
  305SOL    HW1 2356   2.812   2.583  11.753 -0.2708 -1.6611  0.6744
  305SOL    HW2 2357   2.743   2.714  11.786  1.7439 -0.1966 -0.7221
  306SOL     OW 2358   7.386   6.364   4.504 -0.1985 -0.5412 -0.1888
  306SOL    HW1 2359   7.469   6.317   4.492  0.1650 -0.3559  1.3638
  306SOL    HW2 2360   7.401   6.419   4.581 -0.6818  1.9764 -1.7773
  307SOL     OW 2361   5.361   3.739   4.714  0.2938  0.2005 -0.4823
  307SOL    HW1 2362   5.305   3.818   4.717 -0.4694 -0.2423 -1.9398
  307SOL    HW2 2363   5.394   3.737   4.624  2.1838  0.0877  0.1775
  308SOL     OW 2364   2.937   5.941   4.448 -0.2975 -0.2442  0.2044
  308SOL    HW1 2365   2.894   6.003   4.389 -1.1129  0.1412  1.1711
  308SOL    HW2 2366   3.026   5.933   4.413 -0.2264  1.3349 -0.0536
  309SOL     OW 2367   3.565   3.797   1.573 -0.0830 -0.5305 -0.0339
  309SOL    HW1 2368   3.526   3.866   1.519 -2.5185 -1.3579  0.5536
  309SOL    HW2 2369   3.507   3.722   1.563  0.0086 -1.0980  2.7532
  310SOL     OW 2370   0.719   1.188   9.534  0.4041  0.1483  0.4958
  310SOL    HW1 2371   0.664   1.227   9.466 -2.4628 -0.1277  2.4857
  310SOL    HW2 2372   0.772   1.260   9.567 -0.0996  0.8697 -0.2303
  311SOL     OW 2373   6.586   5.048   3.695 -0.3295  0.1392 -0.0508
  311SOL    HW1 2374   6.520   5.008   3.638 -0.8039 -0.8680  1.1690
  311SOL    HW2 2375   6.669   5.013   3.662 -0.4577  0.7290 -1.0438
  312SOL     OW 2376   2.488   3.521  10.561  0.3558 -0.0811  0.4326
  312SOL    HW1 2377   2.401   3.507  10.600  0.9102  0.1270  1.7967
  312SOL    HW2 2378   2.470   3.551  10.472 -0.9856  0.5394  0.8941
  313SOL     OW 2379   3.796   3.333  10.651  0.2808 -0.1367  0.2182
  313SOL    HW1 2380   3.711   3.357  10.689 -1.0932 -1.8777 -1.5174
  313SOL    HW2 2381   3.803   3.385  10.571  1.3753  0.7536  0.8670
  314SOL     OW 2382   7.001   0.177  11.659  0.5012 -0.7817 -0.0883
  314SOL    HW1 2383   6.988   0.236  11.585  2.3508  0.4365  0.4778
  314SOL    HW2 2384   6.924   0.191  11.714  0.0568 -0.2155 -0.8343
  315SOL     OW 2385   3.004   0.329   7.736 -0.1578  0.3769 -0.2121
  315SOL    HW1 2386   3.024   0.245   7.695  0.6501  1.2149 -1.6366
  315SOL    HW2 2387   2.915   0.320   7.768  0.0487 -1.1410  0.0194
  316SOL     OW 2388   0.792   2.591  12.180  0.4573 -0.1359 -0.0494
  316SOL    HW1 2389   0.833   2.512  12.144  0.0260 -0.0078 -0.8387
  316SOL    HW2 2390   0.707   2.561  12.212 -0.0083  0.1237 -0.9962
  317SOL     OW 2391   3.253   7.360   5.048 -0.2673 -0.2166 -0.7959
  317SOL    HW1 2392   3.262   7.285   4.989 -0.5988 -0.3948 -0.6228
  317SOL    HW2 2393   3.309   7.428   5.010 -0.6387 -0.2567 -1.4406
  318SOL     OW 2394   6.290   3.832   9.565 -0.1428  0.4186 -0.7482
  318SOL    HW1 2395   6.232   3.788   9.628 -0.1564 -2.1331 -2.4080
  318SOL    HW2 2396   6.272   3.788   9.482  2.9640  0.7184 -1.6752
  319SOL     OW 2397   3.909   7.476   0.621  0.7731  0.3472  0.1740
  319SOL    HW1 2398   3.822   7.461   0.658  0.0688 -0.1458 -1.5804
  319SOL    HW2 2399   3.935   7.390   0.586 -0.3479  1.4357 -3.9147
  320SOL     OW 2400   0.279   5.015   2.819  0.1565 -0.0522 -0.3385
  320SOL    HW1 2401   0.266   5.093   2.765  1.6844  0.9897  0.7167
  320SOL    HW2 2402   0.303   4.946   2.757  0.8450  0.8539 -1.1093
  321SOL     OW 2403   5.866   5.125   3.859 -0.6099 -0.1104  0.1712
  321SOL    HW1 2404   5.961   5.113   3.852 -0.4099  1.6837 -0.8665
  321SOL    HW2 2405   5.831   5.037   3.871  1.1827 -0.8001  0.6538
  322SOL     OW 2406   6.952   3.959   2.082 -0.3022  0.0542  0.0529
  322SOL    HW1 2407   7.022   4.010   2.041 -0.5930  1.3086  1.0597
  322SOL    HW2 2408   6.888   4.024   2.109 -1.8139 -1.0531 -0.7072
  323SOL     OW 2409   1.092   6.233   8.079 -0.1269  0.1322  0.4069
  323SOL    HW1 2410   1.157   6.303   8.082  1.5409 -1.2676 -0.4983
  323SOL    HW2 2411   1.082   6.205   8.170  1.5625 -0.4382  0.4614
  324SOL     OW 2412   0.945   2.016   9.404  0.2084  0.7630  0.0577
  324SOL    HW1 2413   0.981   2.093   9.447 -0.0868  2.0158 -1.7866
  324SOL    HW2 2414   1.021   1.963   9.379  0.3816  0.0944  1.8922
  325SOL     OW 2415   2.748   2.976  11.986  0.2138  0.7785 -0.7520
  325SOL    HW1 2416   2.726   3.067  11.964  0.4903  0.9173 -0.4665
  325SOL    HW2 2417   2.707   2.924  11.916 -2.4573  0.8710  0.6152
  326SOL     OW 2418   4.236   3.633  12.291 -0.6635  0.4604 -0.2453
  326SOL    HW1 2419   4.188   3.711  12.320 -0.2473 -0.1741  2.3479
  326SOL    HW2 2420   4.317   3.668  12.253 -1.0445  1.3219 -0.2981
  327SOL     OW 2421   2.346   2.916   3.821 -0.3935 -0.3130  0.2362
  327SOL    HW1 2422   2.371   2.872   3.903 -0.1435 -0.3129  0.1623
  327SOL    HW2 2423   2.377   3.006   3.833 -0.3930 -0.3032  0.1569
  328SOL     OW 2424   2.220   6.011   0.269  0.3046  0.4582  0.0622
  328SOL    HW1 2425   2.255   6.009   0.180 -0.9811  0.4214 -0.4638
  328SOL    HW2 2426   2.231   5.921   0.300  0.1518  0.3084 -0.3054
  329SOL     OW 2427   1.317   7.941   3.793  0.1804 -0.1405  0.4683
  329SOL    HW1 2428   1.313   7.857   3.748 -1.6343  0.6264 -0.9486
  329SOL    HW2 2429   1.361   7.999   3.731  1.0973  0.0567  1.2851
  330SOL     OW 2430   7.907   4.539   8.431 -0.4123 -0.4557  0.6330
  330SOL    HW1 2431   7.825   4.520   8.386 -0.4018 -0.4034  0.5904
  330SOL    HW2 2432   7.914   4.635   8.427  2.0069 -0.5921 -3.6457
  331SOL     OW 2433   3.470   1.905  10.275  0.2664 -0.1981 -0.2958
  331SOL    HW1 2434   3.526   1.836  10.309  0.1799  0.5294  1.4382
  331SOL    HW2 2435   3.386   1.862  10.258  0.7886 -0.9115 -1.1949
  332SOL     OW 2436   1.619   3.136   7.801  0.0548 -0.2413  0.6121
  332SOL    HW1 2437   1.632   3.049   7.764 -0.4427 -0.1337  0.1770
  332SOL    HW2 2438   1.707   3.170   7.814  0.3285  0.7265 -2.8523
  333SOL     OW 2439   3.189   7.698  12.047 -0.2106 -0.1203 -0.4306
  333SOL    HW1 2440   3.192   7.767  11.982  1.2136 -0.0381 -0.3047
  333SOL    HW2 2441   3.177   7.617  11.997  0.8728 -0.0575 -0.8120
  334SOL     OW 2442   3.272   7.631   3.889  0.0606 -0.1648  0.1170
  334SOL    HW1 2443   3.242   7.714   3.926  1.8998  1.3150 -1.4732
  334SOL    HW2 2444   3.203   7.604   3.829 -1.5318 -0.9857  2.1992
  335SOL     OW 2445   1.891   1.062   2.844  0.1071 -0.2815 -0.4976
  335SOL    HW1 2446   1.938   1.061   2.761 -0.6438 -0.5430 -0.9330
  335SOL    HW2 2447   1.811   1.012   2.827 -0.1236 -0.2183  0.3429
  336SOL     OW 2448   7.093   7.284   2.781 -0.3222  0.0665  0.0035
  336SOL    HW1 2449   7.110   7.376   2.804 -0.8815 -0.6527  4.0732
  336SOL    HW2 2450   6.998   7.276   2.784 -0.2669 -0.6808 -0.0440
  337SOL     OW 2451   5.851   4.558  10.602 -0.8593  0.0543  0.2268
  337SOL    HW1 2452   5.903   4.565  10.522 -1.8519 -0.9093 -0.5420
  337SOL    HW2 2453   5.889   4.485  10.650  1.2938  2.1210  1.9044
  338SOL     OW 2454   5.587   1.746   0.051  0.5245  0.2868  0.1554
  338SOL    HW1 2455   5.517   1.793   0.005 -2.6470 -1.0982  3.0928
  338SOL    HW2 2456   5.588   1.659   0.011 -0.5429 -0.1497  1.0193
  339SOL     OW 2457   4.326   2.348   2.180 -0.4045 -0.1570  0.0598
  339SOL    HW1 2458   4.389   2.277   2.167 -0.5187  0.1092 -2.4789
  339SOL    HW2 2459   4.380   2.427   2.188 -0.1294  0.5247 -4.9162
  340SOL     OW 2460   1.884   3.394   0.592  0.2517  0.0691 -0.5373
  340SOL    HW1 2461   1.856   3.463   0.652  1.4942 -0.0976  0.2787
  340SOL    HW2 2462   1.828   3.404   0.515  0.3419  1.8989 -0.3934
  341SOL     OW 2463   6.539   4.677   3.718  0.2562 -0.1914  0.0378
  341SOL    HW1 2464   6.544   4.582   3.727 -1.4903 -0.3016  0.0814
  341SOL    HW2 2465   6.554   4.711   3.806  2.4479 -0.2960 -0.2259
  342SOL     OW 2466   5.368   4.749   4.286  0.2095  0.2520  0.7182
  342SOL    HW1 2467   5.386   4.816   4.352 -0.6927  2.2670 -0.9668
  342SOL    HW2 2468   5.448   4.747   4.232  0.3882 -0.3439  0.9955
  343SOL     OW 2469   3.525   7.477  12.440 -0.0165  0.1998 -0.2122
  343SOL    HW1 2470   3.486   7.390  12.445  0.7000 -0.1714 -0.7571
  343SOL    HW2 2471   3.487   7.516  12.361 -0.2890  0.3599 -0.0037
  344SOL     OW 2472   5.101   7.154   0.796  0.1567 -0.3895 -0.0353
  344SOL    HW1 2473   5.145   7.073   0.768 -0.9638 -1.3441  0.8427
  344SOL    HW2 2474   5.172   7.209   0.829  1.4130  0.3921 -3.6420
  345SOL     OW 2475   4.503   1.286   5.260  0.1445  0.2273 -0.0985
  345SOL    HW1 2476   4.451   1.207   5.275  1.1012 -0.2070  1.0690
  345SOL    HW2 2477   4.562   1.262   5.189  0.2008  0.0085  0.0222
  346SOL     OW 2478   7.846   4.333  12.043  0.1552 -0.4958  0.2768
  346SOL    HW1 2479   7.903   4.280  12.100 -0.8750 -0.9065  0.9491
  346SOL    HW2 2480   7.871   4.424  12.062  2.1141 -0.6964 -1.0704
  347SOL     OW 2481   0.934   7.735   4.490  0.3293 -0.3310 -0.4899
  347SOL    HW1 2482   0.952   7.828   4.484  0.6583 -0.2481  1.2934
  347SOL    HW2 2483   0.839   7.728   4.479  0.2490  0.2547 -0.1697
  348SOL     OW 2484   0.477   0.949   4.713  0.0854 -0.1157  0.0883
  348SOL    HW1 2485   0.409   0.995   4.763 -0.3918 -0.7942  0.0696
  348SOL    HW2 2486   0.497   1.009   4.640 -0.3234  0.1910  0.2222
  349SOL     OW 2487   0.425   4.862   2.993 -0.4278  0.1414  0.8561
  349SOL    HW1 2488   0.358   4.827   3.051 -2.3931 -1.1571 -1.9558
  349SOL    HW2 2489   0.378   4.927   2.940  1.2719  1.2742  0.6704
  350SOL     OW 2490   1.154   0.077  10.888  0.5115  0.3238  0.2846
  350SOL    HW1 2491   1.136   0.113  10.800  0.9806 -0.5138 -0.1628
  350SOL    HW2 2492   1.191  -0.010  10.871  0.5673  0.1399  1.3205
  351SOL     OW 2493   6.525   3.460   5.740 -0.3673  0.2140 -0.5513
  351SOL    HW1 2494   6.612   3.429   5.763 -0.6542 -0.4794 -0.3950
  351SOL    HW2 2495   6.470   3.382   5.742 -0.8982  0.5642 -1.1134
  352SOL     OW 2496   2.895   5.802   1.590 -0.3569 -0.0753  0.3811
  352SOL    HW1 2497   2.814   5.810   1.541 -0.9277 -2.7650  0.7117
  352SOL    HW2 2498   2.876   5.737   1.657  1.9297 -0.4229  0.7782
  353SOL     OW 2499   4.793   2.502   3.995  0.3825 -0.3547 -0.1857
  353SOL    HW1 2500   4.864   2.560   4.022  0.0492 -0.1959  0.3759
  353SOL    HW2 2501   4.782   2.442   4.069 -0.9464  0.4636  0.3287
  354SOL     OW 2502   5.039   2.351   7.796 -0.7728  0.3318 -0.1007
  354SOL    HW1 2503   5.012   2.326   7.884  1.7400 -0.3097  0.5732
  354SOL    HW2 2504   5.037   2.447   7.797  0.6309  0.3811  1.1929
  355SOL     OW 2505   7.726   2.327   9.991 -0.1995 -0.2668  0.4924
  355SOL    HW1 2506   7.802   2.386   9.991  0.8284 -1.5354  0.7108
  355SOL    HW2 2507   7.689   2.336   9.904 -0.0247  0.6557  0.5051
  356SOL     OW 2508   6.635   4.309   9.506  0.2310  0.3259 -0.5458
  356SOL    HW1 2509   6.667   4.220   9.518  0.4276  0.5481  0.7798
  356SOL    HW2 2510   6.663   4.333   9.418 -0.0115 -0.9898 -0.9912
  357SOL     OW 2511   0.400   4.518   3.373 -0.4176 -0.0600 -0.5086
  357SOL    HW1 2512   0.376   4.433   3.411  0.7147 -0.1527  0.0228
  357SOL    HW2 2513   0.334   4.532   3.305 -1.5425 -0.6403  0.4087
  358SOL     OW 2514   0.761   2.571   0.373 -0.3013  0.0411  0.1302
  358SOL    HW1 2515   0.785   2.658   0.341  1.9463 -1.0862 -1.5565
  358SOL    HW2 2516   0.714   2.531   0.301 -1.7225 -0.0487  1.0652
  359SOL     OW 2517   1.419   3.602   2.771 -0.1803 -0.0933 -0.1768
  359SOL    HW1 2518   1.447   3.615   2.680 -0.1944  1.9373  0.0790
  359SOL    HW2 2519   1.465   3.670   2.820 -0.2343 -1.1208  1.3508
  360SOL     OW 2520   6.353   4.964   7.405  0.4096 -0.4858  0.4846
  360SOL    HW1 2521   6.262   4.992   7.416  1.3209  2.2501  2.0243
  360SOL    HW2 2522   6.348   4.869   7.400 -2.5355 -0.4294  0.3286
  361SOL     OW 2523   0.910   5.282  11.686 -0.5182  0.2588 -0.3208
  361SOL    HW1 2524   0.934   5.294  11.594 -0.8992  0.6289 -0.3706
  361SOL    HW2 2525   0.821   5.314  11.693 -0.0604  1.4204  0.4544
  362SOL     OW 2526   1.097   5.981   9.223 -1.0293 -0.2355  0.4712
  362SOL    HW1 2527   1.118   5.897   9.182 -1.6000  0.6188 -1.6932
  362SOL    HW2 2528   1.180   6.029   9.223 -1.1804  0.0422 -0.4240
  363SOL     OW 2529   3.849   3.408   4.507 -0.4886  0.3360  0.2618
  363SOL    HW1 2530   3.937   3.371   4.502 -0.4062  0.3097  1.5113
  363SOL    HW2 2531   3.825   3.400   4.600 -1.1055  1.9666  0.2756
  364SOL     OW 2532   2.035   0.340  11.224 -0.1428  0.3889  0.0697
  364SOL    HW1 2533   1.967   0.273  11.224 -0.0459  0.2881 -0.3609
  364SOL    HW2 2534   2.061   0.349  11.132  0.1093  0.7474  0.1693
  365SOL     OW 2535   7.742   0.339   5.672 -0.3032 -0.1419 -0.0347
  365SOL    HW1 2536   7.795   0.395   5.730 -1.2002 -0.0663  0.7471
  365SOL    HW2 2537   7.806   0.291   5.620  0.5082  0.7674  0.0943
  366SOL     OW 2538   4.414   5.564   4.677  0.4774 -0.6652  0.4606
  366SOL    HW1 2539   4.400   5.603   4.763  1.1243 -1.5498  0.9777
  366SOL    HW2 2540   4.477   5.494   4.692 -0.9289 -2.1622 -0.3940
  367SOL     OW 2541   1.668   7.047  12.416 -0.2570 -0.3028  0.6380
  367SOL    HW1 2542   1.716   6.966  12.432 -0.1486 -0.2440  0.6143
  367SOL    HW2 2543   1.736   7.114  12.410 -0.2300 -0.4282 -0.8442
  368SOL     OW 2544   1.752   0.825   7.439  0.3061  0.2256 -0.2815
  368SOL    HW1 2545   1.662   0.812   7.410  0.1667  0.6646 -0.0534
  368SOL    HW2 2546   1.804   0.823   7.358 -0.1782  2.2965 -0.6940
  369SOL     OW 2547   2.762   6.393   7.645  0.5534 -0.0882 -0.2561
  369SOL    HW1 2548   2.852   6.421   7.657  1.0901 -0.9385 -1.9335
  369SOL    HW2 2549   2.739   6.350   7.727  2.1446 -1.0380 -0.2590
  370SOL     OW 2550   4.075   6.974   1.011 -0.1198  0.1367 -0.0281
  370SOL    HW1 2551   4.058   7.063   0.978  0.6083  0.2290 -0.1558
  370SOL    HW2 2552   4.169   6.962   1.002  0.0948  0.1012  1.8616
  371SOL     OW 2553   2.670   1.258   3.398 -0.3231 -0.1199 -0.3668
  371SOL    HW1 2554   2.613   1.202   3.346  0.5054  0.3928 -1.8796
  371SOL    HW2 2555   2.741   1.200   3.427 -0.5436 -0.3010 -0.1876
  372SOL     OW 2556   3.159   6.146   8.800 -0.1048  0.5589  0.4114
  372SOL    HW1 2557   3.085   6.087   8.814  0.6089 -0.3222  0.5579
  372SOL    HW2 2558   3.129   6.230   8.835 -1.3729  0.4693 -0.3930
  373SOL     OW 2559   7.969   0.557   2.040 -0.5322 -0.2588  0.3025
  373SOL    HW1 2560   7.964   0.461   2.036  0.5613 -0.3164  0.0610
  373SOL    HW2 2561   8.004   0.576   2.127  1.0844 -0.1800 -0.3390
  374SOL     OW 2562   0.277   1.686   1.824 -0.1718 -0.2884 -0.2630
  374SOL    HW1 2563   0.276   1.758   1.888 -3.2685  1.1685 -1.7132
  374SOL    HW2 2564   0.281   1.607   1.878 -0.7821  0.8923  1.6449
  375SOL     OW 2565   4.775   4.400   1.675  0.0790  0.1638 -0.6964
  375SOL    HW1 2566   4.688   4.437   1.690 -0.5990 -0.4813 -2.6830
  375SOL    HW2 2567   4.791   4.344   1.750 -1.2624  0.2444 -0.3313
  376SOL     OW 2568   6.588   6.915  11.745  0.2774  0.3035 -0.5059
  376SOL    HW1 2569   6.662   6.866  11.781 -0.4213  0.6932  1.5729
  376SOL    HW2 2570   6.618   7.006  11.744 -0.4392  0.6096  1.2830
  377SOL     OW 2571   5.916   1.118   6.934  0.2720  0.7498  0.6034
  377SOL    HW1 2572   5.900   1.089   7.023 -0.1290 -0.3412  0.1887
  377SOL    HW2 2573   6.009   1.102   6.920 -0.1433 -1.5654 -0.0042
  378SOL     OW 2574   7.862   4.890   5.164 -0.2648 -0.7120 -0.1240
  378SOL    HW1 2575   7.770   4.893   5.191 -0.3101  0.0995 -0.3378
  378SOL    HW2 2576   7.861   4.849   5.078 -0.4792 -0.3279 -0.3084
  379SOL     OW 2577   6.666   1.841   3.909 -0.8359  0.3011  0.2933
  379SOL    HW1 2578   6.681   1.811   3.999  0.0639  0.1438  0.1023
  379SOL    HW2 2579   6.671   1.761   3.856  1.8888  0.7348 -0.2579
  380SOL     OW 2580   0.135   2.387   1.820 -0.1315 -0.0187 -0.0783
  380SOL    HW1 2581   0.167   2.452   1.883 -2.5624 -0.1349  1.3851
  380SOL    HW2 2582   0.191   2.311   1.833 -0.5954 -0.0490  2.0154
  381SOL     OW 2583   6.712   3.545   7.188 -0.1840 -0.4121 -0.1301
  381SOL    HW1 2584   6.697   3.565   7.096 -0.8540  2.7758  0.5472
  381SOL    HW2 2585   6.631   3.568   7.232  0.5447 -0.6331  1.4162
  382SOL     OW 2586   2.492   0.461   4.812  0.4354 -0.2954  0.3745
  382SOL    HW1 2587   2.457   0.496   4.893 -0.4353 -0.3151  0.0145
  382SOL    HW2 2588   2.548   0.532   4.777 -3.6127  2.1710 -1.8923
  383SOL     OW 2589   7.084   3.710   1.354 -0.2925  0.2262  0.1899
  383SOL    HW1 2590   7.172   3.737   1.325 -0.0497 -0.0834  0.6173
  383SOL    HW2 2591   7.072   3.755   1.438  0.0229 -0.7954  0.8001
  384SOL     OW 2592   3.972   5.118   5.059  0.3215  0.0872 -0.1327
  384SOL    HW1 2593   3.889   5.072   5.044 -0.8819  1.7454  1.1288
  384SOL    HW2 2594   3.996   5.154   4.974  1.1569 -2.5177 -1.0984
  385SOL     OW 2595   4.278   4.530   8.890 -0.2182  0.1045  0.0411
  385SOL    HW1 2596   4.248   4.583   8.964 -0.5259  0.4034 -0.2934
  385SOL    HW2 2597   4.288   4.593   8.819  1.1072 -0.0034  0.1099
  386SOL     OW 2598   5.245   6.849   8.835  0.2564 -0.7127 -0.3460
  386SOL    HW1 2599   5.159   6.806   8.828  0.7704 -1.6858 -0.9073
  386SOL    HW2 2600   5.276   6.826   8.922 -0.2872  0.0916  0.0602
  387SOL     OW 2601   5.253   4.746   3.154 -0.2222  0.5434  0.0362
  387SOL    HW1 2602   5.193   4.681   3.192 -0.1747 -0.2457 -1.1846
  387SOL    HW2 2603   5.338   4.724   3.192 -0.3949  0.5698  0.4471
  388SOL     OW 2604   7.136   6.557   8.606 -0.2513  0.2148  0.4466
  388SOL    HW1 2605   7.123   6.462   8.613  1.5678  0.0135  1.6944
  388SOL    HW2 2606   7.105   6.592   8.689  1.8074  0.3344  1.2114
  389SOL     OW 2607   7.397   6.285   6.436 -0.5092  0.0418  0.4803
  389SOL    HW1 2608   7.419   6.301   6.528 -0.5421 -1.1693  0.7189
  389SOL    HW2 2609   7.479   6.254   6.398 -0.5585  0.3102  0.1559
  390SOL     OW 2610   3.968   4.213  11.968  0.1107  0.4453  0.0467
  390SOL    HW1 2611   3.934   4.124  11.974 -0.5298  0.6154 -0.8332
  390SOL    HW2 2612   3.898   4.267  12.005 -1.1038  0.8978 -2.7065
  391SOL     OW 2613   0.718   6.650   8.485 -0.4281 -0.7986  0.1302
  391SOL    HW1 2614   0.747   6.650   8.394 -3.4704 -0.0234 -0.9700
  391SOL    HW2 2615   0.643   6.591   8.487  0.0774 -1.5013  2.3952
  392SOL     OW 2616   1.240   0.652   7.361 -0.1016  0.0837  0.6556
  392SOL    HW1 2617   1.259   0.661   7.268  1.8850  0.2869  1.0298
  392SOL    HW2 2618   1.206   0.563   7.370  0.7778 -0.3575 -0.1329
  393SOL     OW 2619   6.453   4.306   8.200  0.9123 -0.3047 -0.1163
  393SOL    HW1 2620   6.440   4.312   8.294 -0.6894  1.1508 -0.3697
  393SOL    HW2 2621   6.384   4.247   8.170 -0.8238  1.8721 -0.6892
  394SOL     OW 2622   4.610   7.082   5.213  0.2709  0.3072  0.1403
  394SOL    HW1 2623   4.651   6.996   5.204  1.3916  0.8916 -0.4909
  394SOL    HW2 2624   4.587   7.088   5.306  1.1141 -0.2469  0.3935
  395SOL     OW 2625   6.578   5.692   3.984 -0.4887  0.1064  0.0762
  395SOL    HW1 2626   6.503   5.673   4.042 -0.5454 -0.1436 -0.0750
  395SOL    HW2 2627   6.553   5.652   3.900 -0.4533  0.5609 -0.1501
  396SOL     OW 2628   6.962   0.198   4.720 -0.5541  0.5090  0.1577
  396SOL    HW1 2629   6.957   0.189   4.815 -0.3853 -0.1952  0.1030
  396SOL    HW2 2630   7.056   0.206   4.702 -0.4918 -0.5108 -0.0406
  397SOL     OW 2631   3.940   6.575   0.264  0.3296  0.3858 -0.7761
  397SOL    HW1 2632   4.009   6.626   0.308 -0.4699 -0.4902  1.6061
  397SOL    HW2 2633   3.874   6.640   0.240  0.4111  0.7916  0.0706
  398SOL     OW 2634   1.570   4.090   7.560  0.0270  0.0001 -0.4720
  398SOL    HW1 2635   1.578   4.067   7.467 -0.1057  1.1845 -0.7918
  398SOL    HW2 2636   1.514   4.168   7.561  1.1229  0.8136  0.4735
  399SOL     OW 2637   6.602   6.837   3.568 -0.4722 -0.0368 -0.2579
  399SOL    HW1 2638   6.608   6.862   3.475 -2.4668  1.2572 -0.0759
  399SOL    HW2 2639   6.534   6.770   3.570  0.5703 -1.1115  0.1118
  400SOL     OW 2640   7.115   0.341   8.013  0.2842 -0.0058  0.0062
  400SOL    HW1 2641   7.124   0.268   7.951 -0.6332 -0.0732 -0.0630
  400SOL    HW2 2642   7.125   0.300   8.099  0.9769 -0.0103 -0.0747
  401SOL     OW 2643   2.684   1.298   6.492  0.0834  0.3867  0.5763
  401SOL    HW1 2644   2.747   1.232   6.464  1.5287  1.1665  1.8342
  401SOL    HW2 2645   2.604   1.249   6.511  0.0936 -0.5576 -1.5571
  402SOL     OW 2646   2.353   2.902   6.583 -0.2245 -0.3702 -0.2630
  402SOL    HW1 2647   2.384   2.898   6.673  2.0351  0.4791 -0.9314
  402SOL    HW2 2648   2.381   2.819   6.544  0.7268  0.1468 -0.7141
  403SOL     OW 2649   2.389   3.782   5.799  0.6035 -0.3144  0.4967
  403SOL    HW1 2650   2.355   3.869   5.821 -0.6826 -0.8441  0.6562
  403SOL    HW2 2651   2.362   3.727   5.873  0.3860 -1.0967 -0.1567
  404SOL     OW 2652   0.403   0.882   6.347  0.2808  0.0638  0.4451
  404SOL    HW1 2653   0.450   0.951   6.299  0.9868  0.3221  1.4592
  404SOL    HW2 2654   0.465   0.855   6.415 -0.0084 -1.5599  0.0885
  405SOL     OW 2655   6.698   3.519   8.149  0.3261  0.0610  0.0573
  405SOL    HW1 2656   6.647   3.518   8.230  1.3553  0.8993  0.7255
  405SOL    HW2 2657   6.783   3.483   8.173  0.0113 -1.5453 -1.1102
  406SOL     OW 2658   4.412   3.605   1.477  0.4673 -0.0160 -0.4550
  406SOL    HW1 2659   4.495   3.560   1.493  1.0821  0.9139 -0.9293
  406SOL    HW2 2660   4.364   3.547   1.417 -0.0260 -1.4256  1.2135
  407SOL     OW 2661   1.674   1.359   7.753 -0.0433 -0.3315  0.2482
  407SOL    HW1 2662   1.633   1.370   7.667  0.0723 -0.8895  0.1188
  407SOL    HW2 2663   1.678   1.265   7.765  1.9848 -0.3355 -0.1237
  408SOL     OW 2664   6.052   2.711   2.602 -0.2699  0.0905 -0.4689
  408SOL    HW1 2665   6.069   2.671   2.517  0.7477  0.4897 -0.4682
  408SOL    HW2 2666   6.138   2.739   2.633 -0.7317  0.6711  0.3300
  409SOL     OW 2667   7.162   2.860   1.902 -0.3051  0.6127 -0.0110
  409SOL    HW1 2668   7.124   2.855   1.990  0.5167  1.0701  0.3865
  409SOL    HW2 2669   7.188   2.952   1.893  0.5321  0.3593 -0.3302
  410SOL     OW 2670   3.092   2.193   3.366  0.6889  0.3091 -0.1638
  410SOL    HW1 2671   3.073   2.287   3.364  3.0118  0.8306 -1.3306
  410SOL    HW2 2672   3.144   2.180   3.445  2.6445  0.5713 -1.3481
  411SOL     OW 2673   1.423   2.120   3.533 -0.2074 -0.4392  0.3026
  411SOL    HW1 2674   1.473   2.134   3.452 -1.1482 -1.0663 -0.4117
  411SOL    HW2 2675   1.469   2.049   3.578 -1.4548 -2.3636 -1.2759
  412SOL     OW 2676   1.454   4.304   2.734 -0.0101 -0.7133  0.3899
  412SOL    HW1 2677   1.367   4.307   2.695  0.1486  0.9110  0.0627
  412SOL    HW2 2678   1.447   4.357   2.814  0.7634 -0.1940  0.1324
  413SOL     OW 2679   1.323   0.482  10.936 -0.7526  0.0661  0.1675
  413SOL    HW1 2680   1.271   0.547  10.984  0.4431  2.2418 -1.3057
  413SOL    HW2 2681   1.260   0.436  10.882 -1.6017  0.2164  1.0095
  414SOL     OW 2682   7.876   7.339  12.444 -0.6683  0.4375 -0.0668
  414SOL    HW1 2683   7.853   7.337  12.537 -1.2909 -2.0004 -0.2044
  414SOL    HW2 2684   7.794   7.324  12.398 -0.3180  1.3341 -1.0166
  415SOL     OW 2685   6.720   2.871  10.885 -0.0318 -0.3610 -0.2321
  415SOL    HW1 2686   6.752   2.923  10.811 -1.7003  0.8266 -0.1889
  415SOL    HW2 2687   6.690   2.936  10.949 -1.1990 -1.3561  0.2852
  416SOL     OW 2688   5.200   6.069   2.671 -0.0848  0.1609 -0.2038
  416SOL    HW1 2689   5.289   6.046   2.699  0.3971  1.9497 -0.1511
  416SOL    HW2 2690   5.193   6.033   2.583  0.3584 -0.7868  0.1348
  417SOL     OW 2691   5.375   5.150   6.370  0.1317 -0.6796  0.2972
  417SOL    HW1 2692   5.391   5.056   6.361 -1.7432 -0.9627 -0.5393
  417SOL    HW2 2693   5.341   5.160   6.459  0.8021 -0.7167  0.5579
  418SOL     OW 2694   6.333   2.832  12.130  0.0152  0.3052 -1.1400
  418SOL    HW1 2695   6.238   2.834  12.116  0.0344  1.9794 -1.2671
  418SOL    HW2 2696   6.343   2.854  12.223  0.2898  0.9197 -1.3091
  419SOL     OW 2697   1.378   7.591   2.831 -0.2363  0.3772 -0.7819
  419SOL    HW1 2698   1.446   7.641   2.877 -1.0945  0.0885  0.8793
  419SOL    HW2 2699   1.325   7.657   2.787 -1.2529  0.9797  1.2451
  420SOL     OW 2700   2.228   6.039   4.553  0.1327 -0.4691  0.2978
  420SOL    HW1 2701   2.161   6.107   4.543  1.3002  0.3455 -3.0852
  420SOL    HW2 2702   2.281   6.069   4.627 -2.5045 -0.6354  2.4319
  421SOL     OW 2703   4.785   5.400  11.314  0.0797  0.9493  0.9543
  421SOL    HW1 2704   4.880   5.394  11.317  0.2124  0.2717 -1.6503
  421SOL    HW2 2705   4.755   5.310  11.296 -0.5686  1.7582 -3.1523
  422SOL     OW 2706   4.949   7.484   6.078 -0.1280  0.2645 -0.5168
  422SOL    HW1 2707   5.031   7.478   6.127 -0.4467 -1.5420 -0.1446
  422SOL    HW2 2708   4.977   7.507   5.989  0.8378 -0.7841 -0.5061
  423SOL     OW 2709   7.899   5.278   0.525  0.1020 -0.0260  0.1393
  423SOL    HW1 2710   7.910   5.185   0.504  0.8378 -0.3430  1.7510
  423SOL    HW2 2711   7.806   5.294   0.515  0.0694 -0.7434 -0.8558
  424SOL     OW 2712   2.890   5.595   4.264 -0.0756  0.3998  0.3304
  424SOL    HW1 2713   2.842   5.633   4.191  2.3207 -0.4994 -1.8880
  424SOL    HW2 2714   2.875   5.500   4.256  1.2297  0.1897  0.2013
  425SOL     OW 2715   2.201   1.244   2.792 -0.3149 -0.3068 -0.4715
  425SOL    HW1 2716   2.173   1.241   2.884 -1.0799  0.4845 -0.6570
  425SOL    HW2 2717   2.266   1.314   2.789 -0.5674 -0.0777 -0.6007
  426SOL     OW 2718   0.364   2.245   2.970 -0.1300 -0.8450  0.0753
  426SOL    HW1 2719   0.388   2.332   3.003  0.7248 -0.8038 -0.6256
  426SOL    HW2 2720   0.379   2.250   2.876 -1.6487 -1.2498 -0.2206
  427SOL     OW 2721   0.774   2.233   0.087  0.3911  0.3850 -0.4359
  427SOL    HW1 2722   0.743   2.158   0.036 -1.9299 -0.3954  1.8676
  427SOL    HW2 2723   0.822   2.194   0.160  1.6994  1.3491 -0.7450
  428SOL     OW 2724   4.486   0.238  10.857  0.5997 -0.0272 -0.4906
  428SOL    HW1 2725   4.443   0.290  10.789 -0.1447  1.3125  0.9427
  428SOL    HW2 2726   4.492   0.150  10.819  1.0622  0.8737 -2.6255
  429SOL     OW 2727   5.136   6.606   5.195  0.7275  0.3016 -0.0675
  429SOL    HW1 2728   5.067   6.544   5.219  1.2992  0.2340  1.5436
  429SOL    HW2 2729   5.111   6.688   5.238  1.6257  0.2781  0.5241
  430SOL     OW 2730   1.648   6.532   3.461 -0.1924  0.0719 -0.2880
  430SOL    HW1 2731   1.553   6.521   3.471 -0.0305 -0.6834  0.5169
  430SOL    HW2 2732   1.686   6.468   3.520  0.8332  0.0193 -0.9813
  431SOL     OW 2733   5.830   2.928   0.165  0.1308  0.4908 -0.7124
  431SOL    HW1 2734   5.777   2.921   0.244  2.6091  1.5982  1.1965
  431SOL    HW2 2735   5.894   2.996   0.185  1.0027  0.6646 -3.6321
  432SOL     OW 2736   4.112   7.604   1.012  0.0177  0.2219 -0.0410
  432SOL    HW1 2737   4.131   7.600   0.918  0.8247  0.9946  0.0744
  432SOL    HW2 2738   4.168   7.537   1.050 -0.3597 -0.1384 -0.1115
  433SOL     OW 2739   3.053   0.190   8.492 -0.6391 -0.0442  0.5207
  433SOL    HW1 2740   3.133   0.227   8.529  0.6030 -0.1183 -1.8718
  433SOL    HW2 2741   3.061   0.096   8.505 -1.3713  0.0902  2.1164
  434SOL     OW 2742   2.500   1.533  10.799 -0.4343  0.0702 -0.2255
  434SOL    HW1 2743   2.562   1.489  10.857 -1.1852 -0.1685  0.4210
  434SOL    HW2 2744   2.426   1.473  10.793 -0.7204  0.4697 -0.7682
  435SOL     OW 2745   3.857   0.395  12.216 -0.0796  0.5806 -0.0287
  435SOL    HW1 2746   3.870   0.487  12.193  0.4514  0.0841 -1.9378
  435SOL    HW2 2747   3.945   0.357  12.213 -0.0540  0.3213  2.4412
  436SOL     OW 2748   2.984   0.626   7.153 -0.4337  0.5439 -0.4333
  436SOL    HW1 2749   2.905   0.639   7.101 -0.8782 -0.3333 -0.0054
  436SOL    HW2 2750   2.989   0.531   7.166  0.2278  0.6583  0.2662
  437SOL     OW 2751   6.932   1.095   3.992 -0.1836 -0.4411  0.3638
  437SOL    HW1 2752   6.847   1.133   3.969  0.2868 -0.9800 -2.6445
  437SOL    HW2 2753   6.995   1.144   3.940  1.2543 -0.8250  1.6747
  438SOL     OW 2754   2.530   7.196   2.666  0.1011  0.3444 -0.3073
  438SOL    HW1 2755   2.516   7.110   2.626  1.4943  0.0689 -0.2307
  438SOL    HW2 2756   2.505   7.258   2.598 -1.7336 -0.0876 -0.0790
  439SOL     OW 2757   0.264   0.377   1.914  0.2148 -0.2208  0.3784
  439SOL    HW1 2758   0.175   0.347   1.931  0.0220  0.3859  0.4617
  439SOL    HW2 2759   0.297   0.402   2.000  0.8531 -1.4492  0.5173
  440SOL     OW 2760   5.858   7.360   5.258 -0.1927 -0.6985 -0.3024
  440SOL    HW1 2761   5.857   7.326   5.168 -1.8510  1.8846 -1.3920
  440SOL    HW2 2762   5.766   7.371   5.280  0.1994 -1.0903  1.6845
  441SOL     OW 2763   7.660   0.089   0.337 -0.9616 -0.0372  0.2638
  441SOL    HW1 2764   7.604   0.139   0.395 -0.1096 -1.9969  3.0125
  441SOL    HW2 2765   7.600   0.035   0.286 -1.6862  0.2278  0.8254
  442SOL     OW 2766   2.652   6.239   9.800 -0.0744 -0.0613  0.0715
  442SOL    HW1 2767   2.681   6.167   9.856 -0.2375  0.0988  0.3660
  442SOL    HW2 2768   2.688   6.317   9.842 -1.4674  0.2119  0.8220
  443SOL     OW 2769   6.868   1.719   1.543 -0.0260 -0.1950 -0.1773
  443SOL    HW1 2770   6.795   1.782   1.546  0.4235  0.2908  1.9441
  443SOL    HW2 2771   6.921   1.749   1.469 -1.0653  0.4809 -0.6873
  444SOL     OW 2772   7.503   3.538   9.250 -0.2433  0.3324 -0.1293
  444SOL    HW1 2773   7.558   3.542   9.329 -0.7813 -1.1190  0.3626
  444SOL    HW2 2774   7.563   3.559   9.178  0.2356  1.7952  0.6597
  445SOL     OW 2775   4.333   7.246   1.813  0.7579 -0.6171 -0.0698
  445SOL    HW1 2776   4.319   7.258   1.719  1.8258 -0.8722 -0.2779
  445SOL    HW2 2777   4.248   7.261   1.852  0.5189  0.5468 -0.9838
  446SOL     OW 2778   1.065   7.163   5.910  0.1149  0.7998  0.4686
  446SOL    HW1 2779   1.031   7.101   5.845 -0.2247  0.6449  0.7845
  446SOL    HW2 2780   1.038   7.249   5.878  1.3975  0.8718 -0.4598
  447SOL     OW 2781   3.439   2.001  12.205 -0.1855  0.3247 -0.1244
  447SOL    HW1 2782   3.448   2.061  12.280  0.8332 -0.8328  0.7315
  447SOL    HW2 2783   3.527   1.964  12.195 -0.5231 -0.1533 -1.3787
  448SOL     OW 2784   7.984   7.496   2.255 -0.6187 -0.0941 -0.0539
  448SOL    HW1 2785   7.937   7.527   2.333 -0.3692  0.1283  0.0080
  448SOL    HW2 2786   8.071   7.474   2.287 -1.1315 -1.9584  0.1263
  449SOL     OW 2787   2.681   6.908   5.047  0.9880  0.0830  0.2163
  449SOL    HW1 2788   2.661   6.814   5.046  0.4380  0.1976 -0.1575
  449SOL    HW2 2789   2.760   6.915   5.101  2.2085 -0.8199 -1.3841
  450SOL     OW 2790   7.802   1.278   9.195  0.1217 -0.2768 -0.4921
  450SOL    HW1 2791   7.832   1.350   9.251 -0.0495  0.4595 -1.3112
  450SOL    HW2 2792   7.865   1.276   9.123  0.3337 -1.2012 -0.2846
  451SOL     OW 2793   7.923   0.195   5.547 -0.3211  0.4610  0.1139
  451SOL    HW1 2794   8.006   0.211   5.592 -0.9134  2.0067  0.7402
  451SOL    HW2 2795   7.924   0.102   5.527  1.3368  0.3493  0.5581
  452SOL     OW 2796   4.625   5.148   8.158 -0.0418  0.5406 -0.8305
  452SOL    HW1 2797   4.531   5.165   8.150 -0.1564  0.6489  0.4414
  452SOL    HW2 2798   4.630   5.063   8.202  0.3735  1.8143  1.7850
  453SOL     OW 2799   4.728   1.822   6.753 -0.2398 -0.1999  0.3276
  453SOL    HW1 2800   4.655   1.839   6.812  0.5514  0.7434  1.0880
  453SOL    HW2 2801   4.727   1.897   6.692 -0.7487 -0.9101 -0.5539
  454SOL     OW 2802   2.776   2.703   4.815  0.0952  0.0074  0.2303
  454SOL    HW1 2803   2.701   2.651   4.786  0.1930 -0.3521  0.6019
  454SOL    HW2 2804   2.758   2.791   4.784 -0.5531 -0.0448  0.4311
  455SOL     OW 2805   1.358   3.760   7.518  0.1891  0.2237  0.0747
  455SOL    HW1 2806   1.410   3.738   7.441 -0.6343 -1.1113 -0.1356
  455SOL    HW2 2807   1.410   3.729   7.592  0.5298  0.6029 -0.0022
  456SOL     OW 2808   3.306   0.094   6.069  0.4723  0.1965 -0.2978
  456SOL    HW1 2809   3.277   0.038   5.997 -2.5668  0.8281  0.2765
  456SOL    HW2 2810   3.348   0.035   6.131 -2.0140 -1.4148 -0.0231
  457SOL     OW 2811   1.370   1.840   7.617 -0.0558 -0.0907 -0.3236
  457SOL    HW1 2812   1.401   1.908   7.677 -1.6246 -0.8780  1.4862
  457SOL    HW2 2813   1.449   1.810   7.573  1.0753  1.0286  0.8268
  458SOL     OW 2814   6.321   6.950   3.237  0.2823 -0.6199  0.3746
  458SOL    HW1 2815   6.335   7.021   3.299  0.0154  0.1342 -0.3950
  458SOL    HW2 2816   6.243   6.905   3.268 -1.7388  1.6473 -1.0223
  459SOL     OW 2817   0.657   6.484  11.238 -0.2428 -0.1327  0.2421
  459SOL    HW1 2818   0.684   6.495  11.329 -0.0097  1.1297  0.0453
  459SOL    HW2 2819   0.561   6.486  11.241 -0.2410  1.4949  0.3272
  460SOL     OW 2820   0.055   4.520   6.737 -0.2169 -0.9359  0.0863
  460SOL    HW1 2821   0.104   4.600   6.755 -0.3298 -1.0696  1.0110
  460SOL    HW2 2822   0.120   4.450   6.741 -0.3420 -1.0287  0.5632
  461SOL     OW 2823   0.550   0.537  12.222 -0.0963 -0.2426 -0.5732
  461SOL    HW1 2824   0.565   0.531  12.316 -1.6894 -1.2574 -0.3551
  461SOL    HW2 2825   0.632   0.508  12.182 -0.4158 -2.9103  0.5381
  462SOL     OW 2826   7.258   0.746   1.133 -0.1080 -0.1537 -0.0865
  462SOL    HW1 2827   7.204   0.754   1.212  0.2507 -0.4611  0.1921
  462SOL    HW2 2828   7.321   0.678   1.154  1.7790  1.6521  0.4034
  463SOL     OW 2829   6.822   0.799   6.708  0.1859 -0.0532 -0.3400
  463SOL    HW1 2830   6.826   0.777   6.615  0.9502  0.5287 -0.4489
  463SOL    HW2 2831   6.906   0.839   6.728 -0.1405  0.2483  0.5015
  464SOL     OW 2832   6.472   3.865   5.205  0.0053  0.2755 -0.2068
  464SOL    HW1 2833   6.435   3.803   5.141  2.5326  0.2802 -1.8016
  464SOL    HW2 2834   6.497   3.810   5.279  2.0318 -0.7314 -1.5209
  465SOL     OW 2835   4.516   1.603   6.093 -0.1711  0.0573  0.1049
  465SOL    HW1 2836   4.601   1.561   6.074  0.2551  1.5009 -1.4181
  465SOL    HW2 2837   4.536   1.667   6.161 -0.7883 -1.9642  2.3028
  466SOL     OW 2838   7.369   1.946   7.258 -0.4674 -0.3959 -0.2193
  466SOL    HW1 2839   7.330   1.866   7.224 -0.6386 -0.7368  0.7472
  466SOL    HW2 2840   7.460   1.924   7.275 -0.3258 -0.1609 -0.6722
  467SOL     OW 2841   7.379   0.849   9.635 -0.7219  0.4064 -0.5219
  467SOL    HW1 2842   7.343   0.771   9.592  2.0550 -0.1598 -2.0048
  467SOL    HW2 2843   7.370   0.918   9.570  0.4225  0.3600 -0.7356
  468SOL     OW 2844   0.489   0.454   4.949  0.8460  0.2831  0.6405
  468SOL    HW1 2845   0.583   0.440   4.933  1.1785  2.9753 -0.2212
  468SOL    HW2 2846   0.461   0.512   4.879 -1.5417 -0.5165  0.8299
  469SOL     OW 2847   2.907   5.421   6.354 -0.1644  0.1602 -0.2395
  469SOL    HW1 2848   2.844   5.356   6.385  1.4602 -1.9644 -1.1598
  469SOL    HW2 2849   2.992   5.379   6.363  0.8956  1.8567 -1.6358
  470SOL     OW 2850   2.882   7.710   0.102 -0.1012  0.4704 -0.2025
  470SOL    HW1 2851   2.795   7.716   0.142  0.5977  0.5984  1.3903
  470SOL    HW2 2852   2.865   7.693   0.010 -1.8096 -0.1863  0.1941
  471SOL     OW 2853   2.884   5.586   7.678 -0.5839  0.6566 -0.3570
  471SOL    HW1 2854   2.971   5.586   7.717 -0.7695  0.6865  0.0662
  471SOL    HW2 2855   2.829   5.540   7.741 -1.0795  1.5051 -0.1527
  472SOL     OW 2856   5.616   5.426   7.978  0.2226  0.1890  0.5026
  472SOL    HW1 2857   5.531   5.429   8.022 -0.2583 -1.6033 -0.2372
  472SOL    HW2 2858   5.614   5.500   7.917 -0.4775  0.6207  1.0281
  473SOL     OW 2859   3.677   3.804  11.368 -0.2502 -0.3807  0.4844
  473SOL    HW1 2860   3.602   3.830  11.421 -0.8534  0.9489 -0.9421
  473SOL    HW2 2861   3.638   3.772  11.286  0.7091 -0.3519  0.0032
  474SOL     OW 2862   4.023   3.426   8.269  0.0080 -0.1058 -0.8839
  474SOL    HW1 2863   4.042   3.336   8.298  0.3338  0.0478 -0.6165
  474SOL    HW2 2864   3.935   3.421   8.232 -1.2464  0.0862  1.8903
  475SOL     OW 2865   3.042   6.634   7.234  0.1079 -0.1654 -0.0777
  475SOL    HW1 2866   3.047   6.585   7.316  0.9107  0.4488  0.2434
  475SOL    HW2 2867   2.953   6.618   7.203 -0.0104 -0.9001  0.5991
  476SOL     OW 2868   3.620   1.109   0.279 -0.0939 -0.1098  0.8915
  476SOL    HW1 2869   3.605   1.019   0.308  0.6284 -0.3357  0.5885
  476SOL    HW2 2870   3.557   1.161   0.329  1.1710 -0.4613  3.0097
  477SOL     OW 2871   2.318   0.586   2.378  0.2686  0.5977  0.4280
  477SOL    HW1 2872   2.291   0.678   2.382 -0.8096  0.5831 -2.9345
  477SOL    HW2 2873   2.248   0.538   2.422 -0.6138  1.2367 -0.2414
  478SOL     OW 2874   0.637   5.965   9.134  0.6979 -0.5500 -0.8109
  478SOL    HW1 2875   0.619   6.043   9.188  2.1999 -0.1151 -0.8686
  478SOL    HW2 2876   0.567   5.963   9.070 -1.3505 -1.2648  1.3170
  479SOL     OW 2877   5.125   0.241   3.698 -0.3107  0.3730  0.3399
  479SOL    HW1 2878   5.073   0.298   3.754  0.9341  2.4467 -0.5068
  479SOL    HW2 2879   5.210   0.237   3.741  0.3014  1.0537 -0.7574
  480SOL     OW 2880   3.494   2.175   0.777  0.0558 -0.0688 -0.0618
  480SOL    HW1 2881   3.526   2.105   0.721 -0.1792  0.2306 -0.5782
  480SOL    HW2 2882   3.546   2.251   0.753  0.8539 -0.2422  1.0538
  481SOL     OW 2883   5.859   7.476   7.570  0.9636  0.0951  0.5284
  481SOL    HW1 2884   5.935   7.472   7.512  0.4713  1.9379 -0.2901
  481SOL    HW2 2885   5.784   7.487   7.512  0.4470  1.8990  1.4631
  482SOL     OW 2886   2.059   4.587  11.813  0.1019  0.5046  0.1404
  482SOL    HW1 2887   2.134   4.607  11.757 -0.5653 -0.2861 -1.0813
  482SOL    HW2 2888   2.092   4.524  11.877  0.7812  1.1419  0.4333
  483SOL     OW 2889   1.143   3.004   9.343 -0.3493 -0.6322 -0.5409
  483SOL    HW1 2890   1.108   3.093   9.344 -0.7799 -0.7664  1.3606
  483SOL    HW2 2891   1.121   2.970   9.256 -0.2379  1.0735 -1.2682
  484SOL     OW 2892   2.020   3.149   8.562 -0.3366 -0.3964  0.1244
  484SOL    HW1 2893   2.054   3.202   8.489 -1.2979  0.8538  0.5494
  484SOL    HW2 2894   2.066   3.183   8.639  0.6920 -1.7300  0.1445
  485SOL     OW 2895   5.913   5.085  11.422  0.4109 -0.4106  0.0335
  485SOL    HW1 2896   5.887   5.092  11.330  0.4113 -1.3784 -0.0516
  485SOL    HW2 2897   6.007   5.103  11.422  1.0311 -3.0660 -0.6035
  486SOL     OW 2898   1.471   5.900  11.662 -0.2326  0.0950 -0.9898
  486SOL    HW1 2899   1.512   5.844  11.727 -1.9741  0.4675  0.5162
  486SOL    HW2 2900   1.505   5.868  11.578  0.3243 -1.9217 -0.0567
  487SOL     OW 2901   0.282   2.455  11.264 -0.7840 -0.1948 -0.0639
  487SOL    HW1 2902   0.299   2.510  11.341  1.6784 -0.0370 -0.6512
  487SOL    HW2 2903   0.301   2.512  11.190 -1.5936 -0.8390 -0.7915
  488SOL     OW 2904   7.901   1.789  11.053 -0.4973 -0.0610  0.1209
  488SOL    HW1 2905   7.984   1.798  11.100 -0.2941 -0.4709 -0.1481
  488SOL    HW2 2906   7.900   1.862  10.992 -0.1196 -0.3166 -0.1921
  489SOL     OW 2907   7.173   6.112   2.754  0.4406  0.4637  0.2180
  489SOL    HW1 2908   7.084   6.146   2.759 -0.4884 -1.7528 -0.1245
  489SOL    HW2 2909   7.199   6.128   2.663 -1.2658 -2.5135 -0.9362
  490SOL     OW 2910   4.958   5.365  10.053  0.1491  0.1165 -0.3519
  490SOL    HW1 2911   4.946   5.453  10.088 -0.7480 -0.4672  0.8880
  490SOL    HW2 2912   5.011   5.378   9.973 -0.4664  1.8155 -0.5306
  491SOL     OW 2913   1.567   3.339   4.028 -0.0485 -1.0437  0.2038
  491SOL    HW1 2914   1.506   3.359   3.957 -0.4901  0.2848  0.9238
  491SOL    HW2 2915   1.618   3.419   4.039  0.8249 -1.6459  0.5927
  492SOL     OW 2916   5.538   4.975   5.515 -0.3489 -0.1217 -0.2189
  492SOL    HW1 2917   5.471   4.916   5.481 -1.9410  0.8135  1.1400
  492SOL    HW2 2918   5.571   4.931   5.594 -0.9727  0.3839  0.3455
  493SOL     OW 2919   7.099   3.427   4.336 -0.4700 -0.0961  0.2593
  493SOL    HW1 2920   7.052   3.507   4.359 -0.9615 -0.2286 -0.2401
  493SOL    HW2 2921   7.127   3.390   4.419 -2.2528 -0.6022  0.6752
  494SOL     OW 2922   7.203   1.204   1.384 -0.1323  0.0081 -0.6877
  494SOL    HW1 2923   7.160   1.272   1.436  0.4345 -0.5495  0.5615
  494SOL    HW2 2924   7.179   1.224   1.294 -2.7248 -0.0743 -0.1029
  495SOL     OW 2925   4.398   0.958   6.641  0.6207 -0.2332 -0.6965
  495SOL    HW1 2926   4.439   0.956   6.554  1.7989  3.2198 -0.3812
  495SOL    HW2 2927   4.452   0.900   6.694  2.1764  0.4265 -1.4766
  496SOL     OW 2928   0.509   0.669  11.189 -0.0331  0.2402 -0.1362
  496SOL    HW1 2929   0.492   0.602  11.123  0.2116 -0.9889  1.0201
  496SOL    HW2 2930   0.578   0.632  11.244 -0.6024  1.0120  1.1336
  497SOL     OW 2931   3.239   4.223  10.543  0.4606 -0.2922 -0.7564
  497SOL    HW1 2932   3.237   4.135  10.507  1.5757 -0.4501 -0.4659
  497SOL    HW2 2933   3.246   4.281  10.467  2.2630 -0.5922 -0.8525
  498SOL     OW 2934   2.180   6.304  11.915  0.6424  0.3851  0.4051
  498SOL    HW1 2935   2.135   6.378  11.874 -0.5919 -0.0512  0.9260
  498SOL    HW2 2936   2.119   6.231  11.908  1.3430 -0.2763  0.9892
  499SOL     OW 2937   7.109   0.950   9.206  0.0186 -0.1319 -0.0603
  499SOL    HW1 2938   7.127   1.017   9.272 -0.7287  0.0855 -0.0672
  499SOL    HW2 2939   7.177   0.962   9.140  0.5278 -0.0817  0.4697
  500SOL     OW 2940   2.376   7.160   6.018 -0.2866  0.0750  0.2175
  500SOL    HW1 2941   2.430   7.151   5.940 -0.0866  0.0203  0.3631
  500SOL    HW2 2942   2.299   7.107   6.000 -0.5397  0.5719 -0.2105
  501SOL     OW 2943   4.513   6.078   4.219  0.1283  0.1244  0.5563
  501SOL    HW1 2944   4.491   6.080   4.312 -0.0443  0.5336  0.5081
  501SOL    HW2 2945   4.494   6.166   4.188 -0.8324 -0.2894 -0.0997
  502SOL     OW 2946   3.298   1.648  11.040  0.3723 -0.7589 -0.2925
  502SOL    HW1 2947   3.299   1.740  11.013  2.9704 -0.4676  0.5353
  502SOL    HW2 2948   3.273   1.650  11.132 -1.0356 -1.0737 -0.6367
  503SOL     OW 2949   7.859   7.099   8.526 -0.7853 -0.5066 -0.4403
  503SOL    HW1 2950   7.764   7.088   8.536 -0.7579 -0.7748 -0.4543
  503SOL    HW2 2951   7.869   7.166   8.459 -0.9692  0.1914  0.2093
  504SOL     OW 2952   3.598   1.535   4.780  0.0270 -0.2345 -0.3350
  504SOL    HW1 2953   3.566   1.484   4.854 -0.7922  3.4740  2.1384
  504SOL    HW2 2954   3.684   1.567   4.809  0.1352  0.4860 -1.4076
  505SOL     OW 2955   2.318   7.902   0.747  0.5891 -0.2052  0.0612
  505SOL    HW1 2956   2.228   7.883   0.774 -0.0093  1.4461 -0.6696
  505SOL    HW2 2957   2.358   7.816   0.735 -1.8496 -1.1163 -2.7863
  506SOL     OW 2958   1.273   7.044   2.483  0.2274  0.3732  0.1302
  506SOL    HW1 2959   1.343   7.088   2.435  0.5096 -0.3329 -0.1218
  506SOL    HW2 2960   1.263   7.095   2.563  1.4294  0.1456  0.4416
  507SOL     OW 2961   4.634   3.320   3.611  0.3935  0.2459 -0.1617
  507SOL    HW1 2962   4.642   3.244   3.669  1.9142 -0.7168 -1.5716
  507SOL    HW2 2963   4.540   3.326   3.594 -0.1754  0.7547  2.5546
  508SOL     OW 2964   6.831   3.368   3.821  0.3162  0.0798 -0.4286
  508SOL    HW1 2965   6.875   3.416   3.751  0.7341  0.6140  0.1905
  508SOL    HW2 2966   6.830   3.429   3.894  0.2091 -0.6022  0.1420
  509SOL     OW 2967   0.657   2.043   7.860  0.1845  0.0473  0.3853
  509SOL    HW1 2968   0.642   2.134   7.886 -0.6500 -0.0360  0.2288
  509SOL    HW2 2969   0.665   1.995   7.943  2.1910  0.4871  0.4794
  510SOL     OW 2970   1.837   0.380   5.942 -0.5532  1.1331 -0.3542
  510SOL    HW1 2971   1.805   0.399   5.854 -0.3801 -0.4781 -0.8011
  510SOL    HW2 2972   1.918   0.330   5.928  0.4144  2.3127  0.7391
  511SOL     OW 2973   0.471   3.835   3.144  0.0241 -0.3504  0.1612
  511SOL    HW1 2974   0.515   3.903   3.093 -1.4459 -1.7624 -3.3121
  511SOL    HW2 2975   0.535   3.809   3.210  1.8556  2.0710 -0.5202
  512SOL     OW 2976   5.953   7.301   6.409  0.4939  0.2974 -0.0599
  512SOL    HW1 2977   5.951   7.206   6.393  0.7105  0.0714  1.1532
  512SOL    HW2 2978   5.987   7.338   6.328  0.3835 -0.6599 -0.5622
  513SOL     OW 2979   3.464   3.954  11.514  0.3005 -0.1965  0.2081
  513SOL    HW1 2980   3.392   3.929  11.456 -1.0766  1.8912  0.8669
  513SOL    HW2 2981   3.474   4.048  11.500  0.6085  0.1922  2.5847
  514SOL     OW 2982   7.386   6.202   2.346 -0.2931 -0.2713 -0.2798
  514SOL    HW1 2983   7.341   6.130   2.303 -0.6081 -0.2180 -0.0354
  514SOL    HW2 2984   7.326   6.233   2.414 -1.5527  2.2438 -2.3466
  515SOL     OW 2985   6.917   5.182   7.830 -0.2735 -0.2334  0.2942
  515SOL    HW1 2986   6.834   5.159   7.788  0.2018  0.2908 -0.9704
  515SOL    HW2 2987   6.910   5.146   7.919 -1.1582 -1.6942 -0.3386
  516SOL     OW 2988   4.150   2.088  11.693  0.0044  0.1296 -0.0349
  516SOL    HW1 2989   4.082   2.132  11.744 -0.6878 -0.1494 -0.6968
  516SOL    HW2 2990   4.190   2.157  11.640  1.9999  0.7923  2.1714
  517SOL     OW 2991   0.301   5.599   0.411  0.1718 -0.0995 -0.3799
  517SOL    HW1 2992   0.261   5.684   0.391  1.3109  0.6960  0.5340
  517SOL    HW2 2993   0.392   5.609   0.382  0.3433 -0.9697 -0.1559
  518SOL     OW 2994   4.945   3.224  10.994 -0.1356 -0.1722  0.0825
  518SOL    HW1 2995   4.989   3.141  10.976  0.7179 -0.1287  1.7445
  518SOL    HW2 2996   4.973   3.282  10.924  0.9772 -0.6865  0.0766
  519SOL     OW 2997   0.158   3.454  12.218 -0.3969 -0.3425 -0.1523
  519SOL    HW1 2998   0.159   3.441  12.123  1.0978 -0.4283 -0.1353
  519SOL    HW2 2999   0.117   3.375  12.253  0.5159 -1.0291 -0.6240
  520SOL     OW 3000   6.595   7.671   5.175 -0.5042 -0.1299 -0.1862
  520SOL    HW1 3001   6.502   7.692   5.189 -0.1661  0.7406  0.9100
  520SOL    HW2 3002   6.599   7.640   5.085 -2.0219 -1.1395  0.0519
  521SOL     OW 3003   6.552   1.317   7.743 -0.1448 -0.3349  0.8424
  521SOL    HW1 3004   6.551   1.266   7.662 -1.1376 -0.6311  1.0314
  521SOL    HW2 3005   6.576   1.405   7.716 -1.0091 -0.3055  0.1387
  522SOL     OW 3006   3.625   7.739  10.431  0.4045  0.0491 -0.6395
  522SOL    HW1 3007   3.582   7.805  10.485 -2.2373 -0.8882 -1.4216
  522SOL    HW2 3008   3.630   7.779  10.344  2.0877  0.4923 -0.3855
  523SOL     OW 3009   7.564   7.537   9.960  0.4808 -0.1244 -0.0020
  523SOL    HW1 3010   7.552   7.588  10.041  2.5138 -0.4127  0.5312
  523SOL    HW2 3011   7.503   7.464   9.970 -0.9657  1.0418  0.1803
  524SOL     OW 3012   1.927   5.201  11.679  0.4732  0.1930  0.1762
  524SOL    HW1 3013   1.925   5.296  11.687 -3.6977  0.1770  1.6638
  524SOL    HW2 3014   1.907   5.185  11.586 -2.3198  0.9510  0.5368
  525SOL     OW 3015   5.446   4.900   4.509  0.2652 -0.0938 -0.2986
  525SOL    HW1 3016   5.385   4.973   4.504  0.0412 -0.1449  1.1957
  525SOL    HW2 3017   5.530   4.940   4.532  0.1565 -0.2704  0.4578
  526SOL     OW 3018   3.508   0.844   0.339  0.4084  0.2739 -0.5041
  526SOL    HW1 3019   3.445   0.827   0.410 -0.8737  2.0318 -1.1662
  526SOL    HW2 3020   3.471   0.798   0.263  1.5664 -1.2605 -0.1780
  527SOL     OW 3021   7.818   5.344   3.926  0.1513  0.3443  0.2301
  527SOL    HW1 3022   7.738   5.360   3.974 -0.2161 -1.2217  0.1715
  527SOL    HW2 3023   7.808   5.395   3.845 -0.0182  1.5042  0.9604
  528SOL     OW 3024   5.448   0.142  12.403  0.1027 -0.0179  0.1770
  528SOL    HW1 3025   5.362   0.125  12.441  0.1460 -2.0714 -0.5202
  528SOL    HW2 3026   5.442   0.108  12.313  0.9195  1.9969 -0.6957
  529SOL     OW 3027   5.446   7.255  12.027  0.6735 -0.1227 -0.3569
  529SOL    HW1 3028   5.538   7.244  12.051  0.7204 -1.7481 -1.1779
  529SOL    HW2 3029   5.406   7.295  12.104  1.7834 -0.7097  0.5547
  530SOL     OW 3030   0.497   2.266  10.246 -0.1886  0.1464  0.4183
  530SOL    HW1 3031   0.528   2.324  10.177  0.8433 -1.6230 -0.6837
  530SOL    HW2 3032   0.576   2.225  10.280 -0.8946 -0.7293  1.0491
  531SOL     OW 3033   3.498   0.996   7.960  0.4199 -0.7504 -0.3143
  531SOL    HW1 3034   3.440   0.931   7.921  1.1643 -0.7943 -1.3918
  531SOL    HW2 3035   3.448   1.078   7.958 -0.0451 -1.0302 -0.1270
  532SOL     OW 3036   5.094   1.971   5.081 -0.3737  0.3698 -0.0379
  532SOL    HW1 3037   5.109   1.960   4.988  0.1675  0.5576  0.0186
  532SOL    HW2 3038   5.178   1.948   5.122 -1.0145 -1.0657  0.5144
  533SOL     OW 3039   1.708   2.159   1.836 -0.2168 -0.1858 -0.1473
  533SOL    HW1 3040   1.783   2.178   1.892  0.0995 -1.4839 -0.0879
  533SOL    HW2 3041   1.732   2.196   1.751  0.4569 -0.4732 -0.0971
  534SOL     OW 3042   0.708   7.432   9.266  0.3742 -0.3204 -0.2787
  534SOL    HW1 3043   0.674   7.516   9.295 -1.0415 -1.1775  0.6486
  534SOL    HW2 3044   0.640   7.397   9.208  1.1099 -0.6812 -0.9527
  535SOL     OW 3045   1.681   6.703   9.952  1.1514  0.3277 -0.1784
  535SOL    HW1 3046   1.741   6.713  10.026  0.7636  0.1711  0.1659
  535SOL    HW2 3047   1.642   6.790   9.940  0.8655  0.2436  0.1126
  536SOL     OW 3048   6.200   4.640   1.124  0.0928  0.0300  0.2999
  536SOL    HW1 3049   6.106   4.625   1.114 -0.2302  1.1766  1.4275
  536SOL    HW2 3050   6.209   4.735   1.130  1.2799 -0.0902  0.6099
  537SOL     OW 3051   0.831   2.740   7.894  0.1652 -0.0095  0.3536
  537SOL    HW1 3052   0.844   2.649   7.919 -1.4847 -0.6778 -1.0110
  537SOL    HW2 3053   0.838   2.789   7.977  0.5618 -1.4096  1.1820
  538SOL     OW 3054   2.999   3.589   1.134  0.4080 -0.2486  0.1454
  538SOL    HW1 3055   2.930   3.533   1.169  0.1363 -0.1759 -0.2638
  538SOL    HW2 3056   3.060   3.599   1.206 -0.1574 -0.0721  0.6101
  539SOL     OW 3057   3.448   5.562   0.094  0.0061  1.1268  0.3360
  539SOL    HW1 3058   3.460   5.480   0.045  0.1468  0.1380  1.9616
  539SOL    HW2 3059   3.528   5.570   0.146 -0.0205  2.3027  0.2174
  540SOL     OW 3060   3.010   3.362   0.685  0.0774 -0.1189  0.4365
  540SOL    HW1 3061   2.956   3.441   0.678 -1.0027 -0.8671  0.0377
  540SOL    HW2 3062   3.014   3.343   0.779 -0.9510 -0.4359  0.4292
  541SOL     OW 3063   0.190   1.026   8.692 -0.0489 -0.1519 -0.1217
  541SOL    HW1 3064   0.164   1.028   8.600 -1.3848 -2.6656  0.0978
  541SOL    HW2 3065   0.258   0.959   8.696 -0.3161 -0.3872  0.7594
  542SOL     OW 3066   3.363   6.223   1.485  0.3204  0.3825  0.0387
  542SOL    HW1 3067   3.393   6.138   1.518  0.4958  0.1791 -0.6340
  542SOL    HW2 3068   3.281   6.203   1.440  0.4795  0.5349 -0.3209
  543SOL     OW 3069   4.190   6.291   7.670 -0.4390  0.3618 -0.3414
  543SOL    HW1 3070   4.096   6.283   7.685 -0.2125 -1.1252  0.4470
  543SOL    HW2 3071   4.199   6.366   7.611 -2.0902  0.6713 -0.2287
  544SOL     OW 3072   5.461   3.199   7.876  0.0370  0.6714  0.3482
  544SOL    HW1 3073   5.494   3.131   7.935 -1.5954  0.1157  0.6814
  544SOL    HW2 3074   5.398   3.153   7.820 -2.6959  2.2266  1.9555
  545SOL     OW 3075   7.838   5.886   2.528 -0.2754 -0.2692  0.2060
  545SOL    HW1 3076   7.783   5.910   2.602  0.7477  0.5062  0.7482
  545SOL    HW2 3077   7.779   5.885   2.453 -0.6271  3.0590  0.2948
  546SOL     OW 3078   5.166   0.636   9.476 -0.0163 -0.3603 -0.6361
  546SOL    HW1 3079   5.218   0.652   9.555  1.7719 -1.3258 -1.5659
  546SOL    HW2 3080   5.156   0.541   9.473 -1.0786 -0.2445 -0.9655
  547SOL     OW 3081   7.637   0.524  11.118 -0.9048 -0.6296  0.2982
  547SOL    HW1 3082   7.658   0.438  11.154  1.4575 -0.2728 -0.0820
  547SOL    HW2 3083   7.714   0.578  11.136 -2.2387  1.3994  0.3818
  548SOL     OW 3084   3.893   3.142   3.493  0.2438  0.1096  0.5980
  548SOL    HW1 3085   3.829   3.138   3.422  1.2997 -0.0596 -0.3838
  548SOL    HW2 3086   3.883   3.229   3.530  0.3931  0.5968 -0.4691
  549SOL     OW 3087   3.124   2.485  10.886 -0.1491 -0.1347 -0.0477
  549SOL    HW1 3088   3.052   2.432  10.922  0.3761  0.2932  1.7428
  549SOL    HW2 3089   3.099   2.501  10.796 -1.4272 -1.5191  0.0183
  550SOL     OW 3090   5.275   4.225   5.683 -0.1149 -0.4501 -0.5917
  550SOL    HW1 3091   5.352   4.251   5.733 -0.5081 -1.3839  0.5432
  550SOL    HW2 3092   5.306   4.220   5.593  0.9921 -0.1812 -0.2444
  551SOL     OW 3093   0.419   0.734  10.598 -0.8702 -0.1746 -0.3932
  551SOL    HW1 3094   0.433   0.646  10.633  0.0335  0.5897  1.2849
  551SOL    HW2 3095   0.448   0.728  10.507  0.1229 -1.3645 -0.0294
  552SOL     OW 3096   2.657   0.647   2.127 -0.4771 -0.0637 -0.3798
  552SOL    HW1 3097   2.634   0.739   2.132  0.7492  0.2021  0.8976
  552SOL    HW2 3098   2.589   0.602   2.178  0.2285  0.4085  1.0192
  553SOL     OW 3099   1.835   2.903   1.919  0.0948 -0.6915  0.1552
  553SOL    HW1 3100   1.753   2.877   1.962 -0.1567  1.7354  1.2790
  553SOL    HW2 3101   1.903   2.885   1.984 -0.0719  1.2642  0.9069
  554SOL     OW 3102   0.169   5.697   2.420  0.0759  0.0939 -0.2131
  554SOL    HW1 3103   0.117   5.754   2.363  0.1871 -0.5510 -0.9835
  554SOL    HW2 3104   0.260   5.714   2.395  0.0652 -1.1841 -1.2244
  555SOL     OW 3105   2.216   3.568   6.280  0.1119  0.5734  0.3002
  555SOL    HW1 3106   2.291   3.596   6.332 -0.8872  0.8901  1.6183
  555SOL    HW2 3107   2.168   3.509   6.337 -0.7179  0.4821 -0.4771
  556SOL     OW 3108   4.529   5.749   3.295  0.2885  0.3443  0.0965
  556SOL    HW1 3109   4.469   5.787   3.360  0.3663  1.2522 -0.3579
  556SOL    HW2 3110   4.585   5.822   3.268 -0.0287  0.0901 -1.3269
  557SOL     OW 3111   5.694   3.086   0.640 -0.0947  0.1899 -0.4924
  557SOL    HW1 3112   5.738   3.013   0.596  0.9488  1.6711 -2.0458
  557SOL    HW2 3113   5.700   3.065   0.734 -1.4434 -2.5417 -0.9409
  558SOL     OW 3114   2.049   6.816   5.774 -0.1080 -0.3293 -0.9527
  558SOL    HW1 3115   1.957   6.824   5.750 -0.5582 -1.7883  0.1457
  558SOL    HW2 3116   2.050   6.827   5.869  1.0966  1.3101 -1.1130
  559SOL     OW 3117   2.203   1.795  12.221 -0.7781 -0.1331 -0.1337
  559SOL    HW1 3118   2.228   1.725  12.160  0.5008 -0.0274  0.2398
  559SOL    HW2 3119   2.142   1.849  12.171  0.5752  0.2065 -1.5061
  560SOL     OW 3120   0.404   6.707   1.218  0.4170  0.6070  0.0110
  560SOL    HW1 3121   0.436   6.793   1.190  4.5395 -0.4374  0.8831
  560SOL    HW2 3122   0.450   6.644   1.162  0.7867 -1.1412  2.1221
  561SOL     OW 3123   7.375   1.407   6.292 -0.7263  0.0072 -0.5398
  561SOL    HW1 3124   7.354   1.464   6.218  1.7472  1.2248 -0.4236
  561SOL    HW2 3125   7.471   1.402   6.291 -0.6175 -0.1230  2.4459
  562SOL     OW 3126   1.784   2.501  11.561 -0.4403 -0.1917  0.6158
  562SOL    HW1 3127   1.753   2.413  11.544  0.5331 -0.3348 -0.5612
  562SOL    HW2 3128   1.765   2.516  11.653 -2.5817 -0.8019  0.3112
  563SOL     OW 3129   2.970   2.917   3.394  0.1208 -0.1307  0.1486
  563SOL    HW1 3130   2.911   2.987   3.421  2.3114  1.1367  1.9954
  563SOL    HW2 3131   2.949   2.844   3.452 -0.4015 -0.1373 -0.0349
  564SOL     OW 3132   7.873   3.024   2.867  0.0524 -0.0567  0.4732
  564SOL    HW1 3133   7.843   2.957   2.928  0.0783 -1.3086 -0.8263
  564SOL    HW2 3134   7.935   2.979   2.810  0.0852  1.0798 -0.4344
  565SOL     OW 3135   5.829   2.630   5.056  0.2756  0.0244  0.1726
  565SOL    HW1 3136   5.842   2.535   5.047  0.8700  0.2373 -1.6476
  565SOL    HW2 3137   5.917   2.667   5.054 -0.0363  0.7599 -1.6203
  566SOL     OW 3138   1.801   7.500   4.764 -0.3295 -0.4250 -0.0873
  566SOL    HW1 3139   1.887   7.493   4.807 -1.0557 -2.0458  1.2600
  566SOL    HW2 3140   1.779   7.409   4.742 -0.9796  0.1523 -1.9331
  567SOL     OW 3141   1.348   2.300  10.629 -0.3652 -0.3671  0.0430
  567SOL    HW1 3142   1.317   2.376  10.580  1.5297  0.8415  0.5880
  567SOL    HW2 3143   1.389   2.244  10.563  1.1757  0.7127  0.0378
  568SOL     OW 3144   2.046   4.827   4.550 -0.3031  0.9055  0.0325
  568SOL    HW1 3145   2.010   4.806   4.464 -0.6698 -1.1224  0.6250
  568SOL    HW2 3146   2.061   4.742   4.591  3.4549  1.6423  0.5524
  569SOL     OW 3147   4.410   6.601   0.412 -0.1321 -0.3024  0.4514
  569SOL    HW1 3148   4.334   6.596   0.470 -0.6305  1.3624 -0.0197
  569SOL    HW2 3149   4.446   6.512   0.413 -2.5881 -1.3840  0.0086
  570SOL     OW 3150   0.102   0.107   9.556 -0.4206  0.1141 -0.3822
  570SOL    HW1 3151   0.150   0.173   9.506  0.7962 -0.5100 -0.0777
  570SOL    HW2 3152   0.113   0.134   9.647  0.2875 -0.6215 -0.2385
  571SOL     OW 3153   5.502   1.033   3.339  0.3047 -0.5625  0.2225
  571SOL    HW1 3154   5.454   1.023   3.421  0.3868 -0.6507  0.2594
  571SOL    HW2 3155   5.438   1.072   3.278 -0.0663 -1.4644  0.0218
  572SOL     OW 3156   5.436   7.069   1.082  0.2166  0.1983  0.5382
  572SOL    HW1 3157   5.425   7.007   1.154 -0.0551  0.2078  0.5084
  572SOL    HW2 3158   5.530   7.074   1.068  0.1873 -2.3157 -1.2701
  573SOL     OW 3159   7.837   1.439   9.458 -0.4774 -0.4243  0.0335
  573SOL    HW1 3160   7.771   1.508   9.470 -1.2249 -1.2036  0.5394
  573SOL    HW2 3161   7.843   1.398   9.544  1.1326  0.0152  0.1595
  574SOL     OW 3162   1.558   0.211   6.724 -0.5619 -0.2315  0.4823
  574SOL    HW1 3163   1.491   0.265   6.766  0.1543  2.2877 -1.3643
  574SOL    HW2 3164   1.537   0.214   6.631  1.1087 -0.8286  0.0542
  575SOL     OW 3165   1.466   7.400   5.333  0.4925  0.4143 -0.0950
  575SOL    HW1 3166   1.374   7.374   5.331  0.7673 -0.5769 -0.4727
  575SOL    HW2 3167   1.486   7.426   5.243  0.6688  0.3260 -0.0819
  576SOL     OW 3168   5.281   1.822   9.526 -0.0447 -0.2033  0.5935
  576SOL    HW1 3169   5.298   1.829   9.620 -0.6828 -1.1657  0.8014
  576SOL    HW2 3170   5.210   1.884   9.509  0.4186  0.3493  0.6371
  577SOL     OW 3171   0.277   3.833   9.432  0.1638 -0.2108  0.4749
  577SOL    HW1 3172   0.301   3.909   9.379 -0.3889 -0.3078  0.0754
  577SOL    HW2 3173   0.195   3.858   9.473  0.6876 -0.0636  1.4516
  578SOL     OW 3174   4.436   1.912  10.264 -0.3984 -0.5015 -0.2494
  578SOL    HW1 3175   4.491   1.957  10.328 -0.8600  0.2870 -0.3982
  578SOL    HW2 3176   4.441   1.820  10.289  1.3045 -0.5115 -0.4838
  579SOL     OW 3177   5.983   6.156  10.898  0.2698 -0.0467 -0.1900
  579SOL    HW1 3178   5.931   6.100  10.956  0.0230 -0.1978 -0.5491
  579SOL    HW2 3179   5.977   6.113  10.813 -0.5318  0.9051 -0.6427
  580SOL     OW 3180   2.966   2.581  10.061 -0.0412  0.1451  0.0976
  580SOL    HW1 3181   2.953   2.524  10.137 -1.9663  1.2447  0.6431
  580SOL    HW2 3182   3.035   2.642  10.088  0.6984 -0.6981  0.1904
  581SOL     OW 3183   4.459   0.086  11.233 -0.1728  0.4089 -0.0686
  581SOL    HW1 3184   4.400   0.011  11.241 -0.3097  0.5307  0.0842
  581SOL    HW2 3185   4.428   0.132  11.155 -0.1210  0.3345 -0.1334
  582SOL     OW 3186   5.454   5.595   6.338  0.1051 -0.2173 -0.3078
  582SOL    HW1 3187   5.468   5.500   6.338  1.0441 -0.0900 -0.5054
  582SOL    HW2 3188   5.542   5.632   6.328  0.0615  0.7249  2.1132
  583SOL     OW 3189   5.273   0.859   7.873  0.2430 -0.1341  0.1372
  583SOL    HW1 3190   5.185   0.897   7.875  0.3385  0.1076 -0.2760
  583SOL    HW2 3191   5.262   0.772   7.911 -0.0857  0.0758  0.5386
  584SOL     OW 3192   6.612   4.042   2.771  0.1189 -0.3966 -0.6796
  584SOL    HW1 3193   6.675   4.034   2.843  0.6444 -2.1486 -1.2689
  584SOL    HW2 3194   6.665   4.029   2.692 -0.6827  0.0110 -1.2885
  585SOL     OW 3195   1.655   5.063  10.713 -0.2751 -0.4996 -0.2901
  585SOL    HW1 3196   1.662   5.097  10.802  0.5613 -1.3071 -0.0336
  585SOL    HW2 3197   1.572   5.098  10.680 -0.3479  0.2189  0.6219
  586SOL     OW 3198   0.380   7.323   7.361  0.0755  0.2836  0.6363
  586SOL    HW1 3199   0.400   7.242   7.408 -0.4540 -0.2918 -0.1141
  586SOL    HW2 3200   0.466   7.357   7.335  0.3290  0.2294  1.3807
  587SOL     OW 3201   3.035   2.573   4.733 -0.1348  0.4370  0.0886
  587SOL    HW1 3202   2.948   2.598   4.765  0.7397  1.9324  1.5065
  587SOL    HW2 3203   3.035   2.478   4.734 -1.9354  0.3904 -0.5134
  588SOL     OW 3204   0.412   1.205   9.427 -0.8752  0.1868 -0.6456
  588SOL    HW1 3205   0.392   1.247   9.343  0.3355  2.3312  0.0693
  588SOL    HW2 3206   0.379   1.266   9.493 -0.0428 -0.5280  0.4591
  589SOL     OW 3207   2.315   1.838   7.033 -0.1932 -0.0698  0.0734
  589SOL    HW1 3208   2.282   1.851   6.944  0.4120 -0.0094 -0.1505
  589SOL    HW2 3209   2.381   1.769   7.024  1.0271  1.0437  0.1811
  590SOL     OW 3210   6.675   7.678  11.505 -0.1381 -0.3289  0.1542
  590SOL    HW1 3211   6.660   7.645  11.416  0.3861  1.1479 -0.5174
  590SOL    HW2 3212   6.765   7.711  11.503  0.0842 -0.8315  1.4193
  591SOL     OW 3213   6.130   7.194   5.657  0.4015 -0.2815  0.1179
  591SOL    HW1 3214   6.223   7.218   5.664  0.4164  0.3828 -1.7323
  591SOL    HW2 3215   6.090   7.268   5.611 -0.6385 -1.4395 -0.9074
  592SOL     OW 3216   0.915   4.334   5.891 -0.3756 -0.5028  0.3572
  592SOL    HW1 3217   0.997   4.286   5.886 -0.5142 -0.8793  1.4623
  592SOL    HW2 3218   0.912   4.386   5.810  2.6457  2.2657  1.8096
  593SOL     OW 3219   2.501   4.246   7.662  0.6195 -0.1003 -0.1353
  593SOL    HW1 3220   2.474   4.196   7.585 -1.3821 -1.7535  1.5535
  593SOL    HW2 3221   2.544   4.183   7.719  2.8959  1.2841 -0.1751
  594SOL     OW 3222   4.521   3.304   0.260 -0.1028 -0.7765  0.1868
  594SOL    HW1 3223   4.529   3.357   0.340  2.6449 -1.4296  0.4498
  594SOL    HW2 3224   4.481   3.222   0.290 -1.1566 -0.2049  0.4209
  595SOL     OW 3225   5.516   6.143  11.620 -0.2897  0.6856 -1.2518
  595SOL    HW1 3226   5.453   6.174  11.685  1.4950  1.4639  0.2000
  595SOL    HW2 3227   5.491   6.052  11.604  1.3214 -0.9162  3.4790
  596SOL     OW 3228   1.084   1.718   4.668 -0.0852  0.1581  0.0253
  596SOL    HW1 3229   1.131   1.781   4.723 -0.0161 -1.1148  1.4805
  596SOL    HW2 3230   1.136   1.713   4.588  0.4558  1.2000  0.2881
  597SOL     OW 3231   5.951   7.784  12.028  0.6643  0.2527  0.1734
  597SOL    HW1 3232   5.993   7.862  11.991 -0.9625  1.4313  0.7314
  597SOL    HW2 3233   5.944   7.723  11.954  1.2057  0.9414 -0.4560
  598SOL     OW 3234   2.121   2.735  12.196 -1.2806 -0.4677  0.4843
  598SOL    HW1 3235   2.162   2.674  12.258 -0.5256 -1.0758 -0.5658
  598SOL    HW2 3236   2.086   2.805  12.251 -2.4051 -1.9564  1.7598
  599SOL     OW 3237   0.207   5.241   7.532 -1.1212 -0.4004  0.0303
  599SOL    HW1 3238   0.155   5.316   7.561 -0.0447 -0.2097  1.6813
  599SOL    HW2 3239   0.294   5.258   7.570 -0.6327 -2.0642 -0.2954
  600SOL     OW 3240   7.357   3.068   1.926  0.1796  0.0232 -0.4030
  600SOL    HW1 3241   7.411   3.146   1.941  0.3202 -0.2256  0.4359
  600SOL    HW2 3242   7.290   3.072   1.994  1.0891 -1.3687  0.6103
  601SOL     OW 3243   3.826   6.686   3.235  0.8865  0.1135 -0.4329
  601SOL    HW1 3244   3.870   6.658   3.316  1.2861 -0.0538 -0.7050
  601SOL    HW2 3245   3.897   6.718   3.179  0.7933 -1.1275 -1.2791
  602SOL     OW 3246   7.475   5.153   1.531  0.1479 -0.0714 -0.0113
  602SOL    HW1 3247   7.474   5.101   1.611  0.3680  1.0947  0.7883
  602SOL    HW2 3248   7.515   5.096   1.466  1.6480 -0.4463  1.1765
  603SOL     OW 3249   2.486   5.713  11.036  0.1994  0.5776 -0.1972
  603SOL    HW1 3250   2.486   5.687  11.129 -0.3394 -0.9738 -0.6012
  603SOL    HW2 3251   2.427   5.788  11.032  1.1049  1.3975  0.8773
  604SOL     OW 3252   5.614   0.537   7.528 -0.6366  0.0998  0.3046
  604SOL    HW1 3253   5.586   0.620   7.489 -0.7628 -0.3918 -0.6859
  604SOL    HW2 3254   5.538   0.506   7.577 -0.8577  0.1862  0.0182
  605SOL     OW 3255   1.329   7.425   4.617  0.3346  0.6394 -0.0038
  605SOL    HW1 3256   1.283   7.418   4.534  0.5629 -2.2020  0.0234
  605SOL    HW2 3257   1.317   7.517   4.643 -3.2797  0.6622 -1.1409
  606SOL     OW 3258   2.250   1.990   0.421 -0.2815  0.6670 -0.0707
  606SOL    HW1 3259   2.319   2.002   0.355  1.4422  0.3102  1.5620
  606SOL    HW2 3260   2.275   2.050   0.492 -1.2409 -0.0435  0.8907
  607SOL     OW 3261   0.852   7.226  10.268  0.3445 -0.1630  0.4453
  607SOL    HW1 3262   0.782   7.170  10.302  0.3345  0.5254  1.6346
  607SOL    HW2 3263   0.896   7.173  10.202 -0.3583 -1.1617  0.7570
  608SOL     OW 3264   6.018   2.462   0.683 -0.1899  0.9159 -0.0234
  608SOL    HW1 3265   6.029   2.534   0.745 -1.8234  1.3628 -0.1894
  608SOL    HW2 3266   5.942   2.488   0.631  1.4604  0.8947 -2.6707
  609SOL     OW 3267   7.156   7.433  11.940 -0.6395  0.2922  0.1734
  609SOL    HW1 3268   7.221   7.446  12.009  0.7748 -1.5792 -0.7014
  609SOL    HW2 3269   7.165   7.508  11.882  0.5442  0.2245  0.2523
  610SOL     OW 3270   3.738   7.658   9.618  0.4077  0.3108 -0.0750
  610SOL    HW1 3271   3.731   7.595   9.691 -0.4262  0.6640  0.1636
  610SOL    HW2 3272   3.747   7.743   9.660 -0.9922  0.6255 -0.3422
  611SOL     OW 3273   1.646   1.573   5.697  0.3960  0.2100  0.1139
  611SOL    HW1 3274   1.594   1.582   5.617 -1.3259 -0.8132  1.0703
  611SOL    HW2 3275   1.727   1.532   5.667  1.7272  3.7183 -1.7474
  612SOL     OW 3276   7.948   0.196   7.925  0.4915 -0.1310  0.7177
  612SOL    HW1 3277   7.995   0.134   7.869  0.8741  1.2023 -0.4834
  612SOL    HW2 3278   7.898   0.251   7.865  1.6436  1.9508  1.5494
  613SOL     OW 3279   1.957   3.223  11.027  0.1119  0.3770  0.7051
  613SOL    HW1 3280   1.897   3.153  11.054 -1.1120  0.5212 -1.4146
  613SOL    HW2 3281   1.899   3.294  10.998  1.3134  2.1610  2.3886
  614SOL     OW 3282   7.370   7.637   3.735  0.3542  0.8463  0.0080
  614SOL    HW1 3283   7.284   7.595   3.740 -0.3068  2.0558 -0.7712
  614SOL    HW2 3284   7.368   7.687   3.653  2.9331 -1.5070 -1.6798
  615SOL     OW 3285   3.799   0.100  12.434  0.1875 -0.1888 -0.0503
  615SOL    HW1 3286   3.864   0.126  12.499  0.0617  1.1166 -0.4133
  615SOL    HW2 3287   3.803   0.169  12.367  2.2912 -2.8833 -2.9553
  616SOL     OW 3288   1.123   4.809   2.484  0.1585  0.0671 -0.7882
  616SOL    HW1 3289   1.132   4.902   2.507  0.6711  0.2907 -1.8336
  616SOL    HW2 3290   1.204   4.788   2.438 -0.2182 -0.7385 -1.0955
  617SOL     OW 3291   5.963   2.255   7.975  0.2477  0.0687 -0.8032
  617SOL    HW1 3292   6.024   2.248   7.902  0.5409 -0.1443 -0.5390
  617SOL    HW2 3293   5.925   2.343   7.966  2.2691  1.1484  0.3105
  618SOL     OW 3294   7.257   4.020   7.976 -0.1594 -0.1701 -0.3686
  618SOL    HW1 3295   7.300   4.010   7.891  0.5098 -0.9876  0.0542
  618SOL    HW2 3296   7.177   4.070   7.957  0.9430  1.3518 -1.1679
  619SOL     OW 3297   7.858   6.926   2.567  0.1724  0.6108 -0.1815
  619SOL    HW1 3298   7.769   6.935   2.601  0.5401  0.2996  0.8823
  619SOL    HW2 3299   7.850   6.861   2.496 -0.8128  2.1658 -1.5712
  620SOL     OW 3300   4.582   1.948   3.050 -0.1594 -0.3240 -0.0645
  620SOL    HW1 3301   4.512   2.011   3.034 -0.2638  0.0380  1.5715
  620SOL    HW2 3302   4.565   1.917   3.139  2.2408  0.4125  0.7238
  621SOL     OW 3303   6.846   1.361   4.199 -0.0503 -0.7648 -0.2153
  621SOL    HW1 3304   6.866   1.386   4.108 -0.7835 -0.6344 -0.3499
  621SOL    HW2 3305   6.931   1.341   4.238  0.3216 -0.3477 -0.7936
  622SOL     OW 3306   7.716   7.862  11.159  0.0521  0.0430  0.1258
  622SOL    HW1 3307   7.624   7.888  11.151  0.2148  0.7543  0.4492
  622SOL    HW2 3308   7.760   7.941  11.189  0.7469 -0.3402  0.1297
  623SOL     OW 3309   6.330   6.140   7.359 -0.0344  0.5153 -0.0827
  623SOL    HW1 3310   6.270   6.200   7.314  0.7944  2.2035  0.9605
  623SOL    HW2 3311   6.411   6.147   7.308  0.3875  1.1265  0.6580
  624SOL     OW 3312   0.302   5.476   3.336 -0.3955  0.0242  0.0837
  624SOL    HW1 3313   0.347   5.558   3.315 -0.7487  0.0550 -0.5932
  624SOL    HW2 3314   0.328   5.417   3.266  1.3754 -1.0583  1.5682
  625SOL     OW 3315   5.740   3.941   2.318  0.2981  0.0465  0.2859
  625SOL    HW1 3316   5.809   3.891   2.361 -1.0170 -1.3294  0.8984
  625SOL    HW2 3317   5.683   3.971   2.389 -0.2126  0.3962 -0.2559
  626SOL     OW 3318   1.668   6.534   4.249  0.3027 -0.0984  0.0864
  626SOL    HW1 3319   1.597   6.557   4.310  0.7520  0.5878  0.3591
  626SOL    HW2 3320   1.624   6.484   4.180 -0.8341  2.0005 -0.8188
  627SOL     OW 3321   3.245   0.216   2.183  0.3793  0.0641  0.1418
  627SOL    HW1 3322   3.290   0.299   2.165  2.4547 -0.9046  0.5000
  627SOL    HW2 3323   3.185   0.236   2.254  1.2002  1.1698  0.5625
  628SOL     OW 3324   1.736   0.557   6.123 -0.0616 -0.2133  0.3525
  628SOL    HW1 3325   1.656   0.592   6.084  1.5363  3.6192  0.0354
  628SOL    HW2 3326   1.760   0.483   6.068 -2.0268  0.1295 -1.0634
  629SOL     OW 3327   2.833   6.008  12.176  0.5275  0.1983  0.2615
  629SOL    HW1 3328   2.894   6.069  12.135  1.2605 -1.3824 -1.1419
  629SOL    HW2 3329   2.861   5.921  12.145 -2.0964 -0.6457 -0.0235
  630SOL     OW 3330   1.785   7.804   9.328 -0.0661 -0.1734  0.2338
  630SOL    HW1 3331   1.765   7.711   9.314  0.2205 -0.3479  0.8985
  630SOL    HW2 3332   1.828   7.832   9.248 -0.1948 -0.6048  0.0100
  631SOL     OW 3333   7.764   4.380   5.965 -0.0827  0.0257 -0.4146
  631SOL    HW1 3334   7.828   4.416   6.026 -0.9946 -0.8105  1.0950
  631SOL    HW2 3335   7.813   4.366   5.884  1.6223 -0.5195  0.6587
  632SOL     OW 3336   7.591   2.947   8.053  0.7703  0.3215  0.2054
  632SOL    HW1 3337   7.673   2.973   8.094  1.0522  0.9541 -0.7244
  632SOL    HW2 3338   7.583   2.854   8.073  1.1852  0.4869  1.1869
  633SOL     OW 3339   0.757   3.569   5.926 -0.3228  0.2268  0.3429
  633SOL    HW1 3340   0.671   3.582   5.966 -1.2925 -0.5437 -1.3574
  633SOL    HW2 3341   0.779   3.478   5.945 -1.4119 -0.5690 -1.8496
  634SOL     OW 3342   1.576   1.353   7.486 -0.1001 -0.7653 -0.2303
  634SOL    HW1 3343   1.621   1.395   7.413  0.7754  0.9636  1.2145
  634SOL    HW2 3344   1.485   1.382   7.477 -0.0209 -0.6521 -0.7080
  635SOL     OW 3345   6.873   5.468   1.406  0.0398  0.5785  0.1945
  635SOL    HW1 3346   6.944   5.470   1.470  1.0798  2.5867 -0.9369
  635SOL    HW2 3347   6.886   5.387   1.358 -1.2121 -1.3933  2.8975
  636SOL     OW 3348   7.765   4.550  10.701  0.1646 -0.7210  0.0648
  636SOL    HW1 3349   7.746   4.624  10.760  0.2650 -0.1391 -0.6153
  636SOL    HW2 3350   7.837   4.504  10.743  1.1192  0.4450 -0.2384
  637SOL     OW 3351   7.512   0.290   6.481 -0.2805 -0.4568  0.0520
  637SOL    HW1 3352   7.581   0.322   6.539  0.3895 -1.2724 -0.2736
  637SOL    HW2 3353   7.488   0.366   6.428  2.4512 -0.7694 -1.8604
  638SOL     OW 3354   4.176   3.254  11.595  0.2964  0.2663 -0.2404
  638SOL    HW1 3355   4.217   3.289  11.675  0.4181  1.0614 -0.6421
  638SOL    HW2 3356   4.183   3.326  11.531 -3.1394  1.0475  0.1038
  639SOL     OW 3357   0.458   5.677   2.380 -0.5938 -0.2148 -0.2784
  639SOL    HW1 3358   0.519   5.736   2.424  0.9903  0.8433 -3.5722
  639SOL    HW2 3359   0.505   5.594   2.375 -2.0129 -1.3097  2.5440
  640SOL     OW 3360   5.020   6.397   9.274  0.2465 -0.1916 -0.2536
  640SOL    HW1 3361   4.978   6.370   9.192  0.6265  0.7281 -0.7694
  640SOL    HW2 3362   5.075   6.471   9.249  0.1549  0.2832  0.8938
  641SOL     OW 3363   3.000   0.168   6.663 -0.4570 -0.5060 -0.3711
  641SOL    HW1 3364   2.906   0.160   6.682 -0.4661  2.6383  1.8088
  641SOL    HW2 3365   3.043   0.145   6.746  0.6724 -1.0590 -1.0801
  642SOL     OW 3366   7.461   4.798  10.733 -0.3869  0.1289 -0.3454
  642SOL    HW1 3367   7.531   4.768  10.791 -0.2388 -0.4532 -0.8098
  642SOL    HW2 3368   7.446   4.889  10.758  1.6962  0.8068 -1.3385
  643SOL     OW 3369   0.737   7.457   2.670 -0.4270  0.6439  0.4194
  643SOL    HW1 3370   0.820   7.500   2.691  0.0993 -0.9411  1.8746
  643SOL    HW2 3371   0.727   7.467   2.576  0.9368  1.6850  0.3620
  644SOL     OW 3372   5.685   2.522   8.096  0.3178  0.2022  0.5649
  644SOL    HW1 3373   5.668   2.603   8.143 -0.3503  2.4298 -3.0868
  644SOL    HW2 3374   5.760   2.541   8.040 -1.6463 -0.5119 -2.5728
  645SOL     OW 3375   2.674   1.602   7.624  0.1353  0.3315  0.5632
  645SOL    HW1 3376   2.633   1.655   7.692 -0.2377  0.3063  0.3618
  645SOL    HW2 3377   2.766   1.595   7.650  0.1741  1.0154  0.6354
  646SOL     OW 3378   4.927   3.947   2.285 -0.0060  0.3628 -0.1504
  646SOL    HW1 3379   4.858   4.012   2.268 -0.5643 -0.6578 -1.9876
  646SOL    HW2 3380   4.979   3.945   2.205  1.4718  0.2216  0.7636
  647SOL     OW 3381   3.569   6.719   5.250  0.1798  0.3870 -0.0631
  647SOL    HW1 3382   3.612   6.698   5.333  2.3695  1.9504 -0.7107
  647SOL    HW2 3383   3.592   6.647   5.191 -1.0685 -0.5337  0.5215
  648SOL     OW 3384   7.585   2.721   0.399 -0.1826  0.1720 -0.2442
  648SOL    HW1 3385   7.585   2.628   0.377 -0.4221  0.2435 -0.5505
  648SOL    HW2 3386   7.503   2.735   0.446 -0.0988  0.2077 -0.1080
  649SOL     OW 3387   6.501   6.591  11.035  0.0798 -0.3459 -0.1759
  649SOL    HW1 3388   6.534   6.672  10.996  2.1190 -0.7454  0.5791
  649SOL    HW2 3389   6.543   6.521  10.984  0.7130 -0.8740  1.0136
  650SOL     OW 3390   7.394   5.987   0.692  0.1865  0.1940 -0.2701
  650SOL    HW1 3391   7.310   6.018   0.660  0.2551  1.8236  1.0133
  650SOL    HW2 3392   7.398   6.017   0.783  1.5702 -1.0448  0.1210
  651SOL     OW 3393   3.717   1.856   4.873  0.7823  0.1907  0.4002
  651SOL    HW1 3394   3.733   1.766   4.903 -1.3978 -1.9725 -3.9333
  651SOL    HW2 3395   3.798   1.881   4.829  0.3261 -1.1528 -1.3093
  652SOL     OW 3396   1.805   6.108  10.690  0.0160  0.4401  0.6786
  652SOL    HW1 3397   1.793   6.192  10.646  1.3212  0.7386  0.8689
  652SOL    HW2 3398   1.740   6.050  10.650 -0.1216  1.2321 -0.2542
  653SOL     OW 3399   3.052   3.832   3.897 -0.3316 -0.5695  0.1596
  653SOL    HW1 3400   3.094   3.746   3.906 -1.3911 -1.1399 -0.1598
  653SOL    HW2 3401   3.106   3.878   3.833  0.3940 -0.8969  0.5211
  654SOL     OW 3402   1.438   0.909  12.259  0.1064 -0.3187 -0.1701
  654SOL    HW1 3403   1.525   0.939  12.231 -0.2772  0.2101 -0.8168
  654SOL    HW2 3404   1.389   0.990  12.273 -0.2582 -0.6165  0.2857
  655SOL     OW 3405   6.173   6.330   8.493 -0.1402 -0.5948 -0.2690
  655SOL    HW1 3406   6.139   6.259   8.438 -1.7618 -0.6611  0.7444
  655SOL    HW2 3407   6.196   6.287   8.576 -0.3364 -0.0755  0.0558
  656SOL     OW 3408   4.221   2.223   5.180 -0.0136 -0.7072  0.4378
  656SOL    HW1 3409   4.314   2.206   5.198  0.4919 -0.7269 -1.9354
  656SOL    HW2 3410   4.222   2.294   5.116 -1.6391 -0.7864  0.3012
  657SOL     OW 3411   3.899   0.334   5.413  0.2901  0.1484  0.0050
  657SOL    HW1 3412   3.889   0.394   5.339 -0.7005  0.2534  0.2122
  657SOL    HW2 3413   3.833   0.266   5.398 -0.4457  0.5825  1.1814
  658SOL     OW 3414   7.760   4.666   3.767  0.0536 -0.1629  0.0042
  658SOL    HW1 3415   7.819   4.731   3.803  1.1755 -0.5362 -1.1024
  658SOL    HW2 3416   7.817   4.604   3.722 -0.9973 -1.8017  0.8330
  659SOL     OW 3417   5.816   1.851   1.912 -0.1813  0.2276 -0.0584
  659SOL    HW1 3418   5.768   1.924   1.950 -0.5067  0.1638 -0.3463
  659SOL    HW2 3419   5.887   1.892   1.863  0.2601  0.3120  0.6234
  660SOL     OW 3420   2.990   3.425  10.588 -0.2323  0.1778 -0.1873
  660SOL    HW1 3421   2.964   3.456  10.674  0.1062 -0.8279  0.2987
  660SOL    HW2 3422   2.984   3.502  10.531 -0.9637  0.7307  0.6171
  661SOL     OW 3423   3.239   7.377   7.781 -0.3707 -0.0979 -0.2875
  661SOL    HW1 3424   3.268   7.441   7.716  0.3473 -1.3617 -1.2636
  661SOL    HW2 3425   3.254   7.292   7.739 -3.3153 -0.9045  0.0844
  662SOL     OW 3426   1.081   4.437   8.175 -0.1321 -0.0575 -0.4903
  662SOL    HW1 3427   1.088   4.524   8.215 -2.9373  0.0761 -0.1071
  662SOL    HW2 3428   1.037   4.453   8.092 -2.2772 -1.2313  0.3528
  663SOL     OW 3429   0.357   6.899  11.618 -0.2396 -0.0567 -0.1396
  663SOL    HW1 3430   0.328   6.882  11.708  0.7932 -1.6382 -0.0663
  663SOL    HW2 3431   0.445   6.863  11.614 -0.1340  0.3031 -1.7103
  664SOL     OW 3432   7.715   0.949   9.057 -0.2277  0.0041  0.9834
  664SOL    HW1 3433   7.793   0.974   9.009 -0.9648 -0.3672 -0.4768
  664SOL    HW2 3434   7.673   1.032   9.080  0.4275  0.1955  1.5228
  665SOL     OW 3435   6.842   7.224   0.571 -0.4688 -0.1292  0.2841
  665SOL    HW1 3436   6.892   7.164   0.625 -3.0581 -1.4236  1.4200
  665SOL    HW2 3437   6.850   7.188   0.482  1.3675  0.2930  0.2410
  666SOL     OW 3438   6.316   5.883   1.922 -0.3860  0.4166 -0.2731
  666SOL    HW1 3439   6.360   5.967   1.913 -0.0136  0.3783  1.0962
  666SOL    HW2 3440   6.385   5.823   1.949 -0.8637 -0.1063 -0.1969
  667SOL     OW 3441   0.563   2.507   6.359  0.3357  0.3379  0.4223
  667SOL    HW1 3442   0.594   2.595   6.336  1.1513  0.0007  0.2144
  667SOL    HW2 3443   0.588   2.452   6.285 -0.3303 -0.0471  0.4727
  668SOL     OW 3444   0.891   5.563   6.080  0.4534  0.7432  0.6548
  668SOL    HW1 3445   0.810   5.614   6.088  1.1468  1.7568  1.3373
  668SOL    HW2 3446   0.911   5.535   6.169 -0.9618 -2.4609  0.0925
  669SOL     OW 3447   5.188   3.325   5.536  0.0210  0.3754  0.2191
  669SOL    HW1 3448   5.163   3.406   5.581 -0.5773 -1.1327  2.8115
  669SOL    HW2 3449   5.106   3.290   5.502  0.4213  1.3133 -1.8487
  670SOL     OW 3450   2.204   0.365   3.633 -0.1916 -0.0247 -0.0837
  670SOL    HW1 3451   2.182   0.284   3.679  0.4750 -0.8085 -1.0902
  670SOL    HW2 3452   2.300   0.367   3.632 -0.2009  0.9471  0.2114
  671SOL     OW 3453   5.503   1.178   9.776  0.1611  0.0032 -0.3598
  671SOL    HW1 3454   5.484   1.090   9.742  1.0059  0.2487 -1.5138
  671SOL    HW2 3455   5.598   1.180   9.784  0.2058  1.0509 -1.0249
  672SOL     OW 3456   0.900   2.861  10.888 -0.3359  0.4539  0.3133
  672SOL    HW1 3457   0.958   2.784  10.884 -1.6991 -0.6143  0.4908
  672SOL    HW2 3458   0.909   2.893  10.978  1.1901  1.2918 -0.1076
  673SOL     OW 3459   4.876   2.621   9.440 -0.0686 -0.2192  0.2968
  673SOL    HW1 3460   4.898   2.684   9.509 -3.3949 -0.5904  1.8780
  673SOL    HW2 3461   4.846   2.675   9.367 -0.7858  0.1313  0.8329
  674SOL     OW 3462   5.275   0.212   1.414  0.2119  0.3381  0.0963
  674SOL    HW1 3463   5.256   0.193   1.322  0.3960  1.1393 -0.1236
  674SOL    HW2 3464   5.293   0.127   1.454 -1.5476 -0.2079 -0.2057
  675SOL     OW 3465   3.753   5.724   7.929  0.3738 -0.7100  0.5281
  675SOL    HW1 3466   3.780   5.687   7.845  0.7403 -0.5945  0.5952
  675SOL    HW2 3467   3.660   5.703   7.935 -0.4813  1.9608 -1.3908
  676SOL     OW 3468   0.008   2.043   4.128 -0.4128  0.1736  0.0199
  676SOL    HW1 3469   0.056   2.103   4.184 -0.1659  0.3812 -0.4073
  676SOL    HW2 3470   0.020   1.957   4.167 -0.2915  0.3246  0.3127
  677SOL     OW 3471   1.951   3.158   3.429 -0.6582 -0.0367 -0.0880
  677SOL    HW1 3472   1.872   3.207   3.452 -0.7118 -0.0146 -0.3225
  677SOL    HW2 3473   1.974   3.189   3.342  0.2136  0.7313  0.3985
  678SOL     OW 3474   7.025   1.129   6.932  0.1729  0.1998 -0.5650
  678SOL    HW1 3475   7.075   1.091   6.859 -1.3413  0.0999 -1.5890
  678SOL    HW2 3476   6.939   1.148   6.895 -0.0390  1.9364  0.7018
  679SOL     OW 3477   0.833   5.745   3.472 -0.0137 -0.4356 -0.9444
  679SOL    HW1 3478   0.861   5.739   3.381  0.1991 -1.7064 -0.8235
  679SOL    HW2 3479   0.908   5.779   3.520  0.6653 -1.8846 -0.9298
  680SOL     OW 3480   2.216   5.546   7.806  0.1854 -0.0321  0.5924
  680SOL    HW1 3481   2.149   5.614   7.797  0.9404  0.6624  0.1432
  680SOL    HW2 3482   2.218   5.503   7.720  0.3889  0.0132  0.5752
  681SOL     OW 3483   4.776   2.460   6.737 -0.5673 -0.7414 -0.0663
  681SOL    HW1 3484   4.784   2.459   6.832 -1.1169  2.4641  0.1426
  681SOL    HW2 3485   4.854   2.415   6.705 -0.1375 -1.4525  1.8755
  682SOL     OW 3486   0.798   6.498  11.999 -0.3749 -0.2903 -0.0563
  682SOL    HW1 3487   0.755   6.467  11.919  0.1806 -0.6976 -0.1969
  682SOL    HW2 3488   0.759   6.446  12.069  0.0588 -0.8205 -0.2110
  683SOL     OW 3489   7.486   6.239   4.177 -0.5258  0.1737 -0.1479
  683SOL    HW1 3490   7.458   6.331   4.167 -1.4386 -0.0301  0.4261
  683SOL    HW2 3491   7.415   6.198   4.227  1.9443  0.2085  3.7901
  684SOL     OW 3492   6.374   5.595   4.196 -0.3717  0.2140  0.4656
  684SOL    HW1 3493   6.283   5.623   4.204 -0.7357 -1.0817  1.2092
  684SOL    HW2 3494   6.372   5.503   4.220  1.0155 -0.0477 -0.3404
  685SOL     OW 3495   1.356   2.813   9.392  0.5451 -0.0222 -0.1199
  685SOL    HW1 3496   1.307   2.891   9.368  1.7316  0.1522 -2.2753
  685SOL    HW2 3497   1.436   2.847   9.432 -0.2615 -0.2652  1.8090
  686SOL     OW 3498   6.868   1.667   5.955  0.3759  0.2851  0.3619
  686SOL    HW1 3499   6.808   1.705   6.019 -0.2547 -0.0202 -0.0370
  686SOL    HW2 3500   6.847   1.573   5.956  0.5301  0.2434 -0.1222
  687SOL     OW 3501   3.839   1.794   4.235  0.2462 -0.1349 -0.0356
  687SOL    HW1 3502   3.825   1.846   4.314  0.3180  0.9169 -0.7086
  687SOL    HW2 3503   3.793   1.841   4.166 -0.5842 -1.5067 -0.4736
  688SOL     OW 3504   7.554   3.886   6.261 -0.3317  0.3883 -0.7488
  688SOL    HW1 3505   7.507   3.909   6.181 -0.4761  0.4064 -0.6604
  688SOL    HW2 3506   7.639   3.855   6.231 -0.3415  0.5069 -0.9019
  689SOL     OW 3507   0.190   6.911   8.067 -0.5808  0.4052  0.1831
  689SOL    HW1 3508   0.095   6.895   8.065 -0.6543  0.7454  0.6127
  689SOL    HW2 3509   0.208   6.936   8.158  0.1968 -1.2117  0.4987
  690SOL     OW 3510   4.237   4.068   2.039 -0.2431  0.0041  0.2690
  690SOL    HW1 3511   4.213   4.149   1.995 -1.3798 -0.6507 -0.3726
  690SOL    HW2 3512   4.184   4.001   1.996 -0.2365 -0.8994  1.6029
  691SOL     OW 3513   3.442   1.038   8.611  0.3286  0.4027  0.0369
  691SOL    HW1 3514   3.492   1.048   8.530  0.5138  3.0147  0.3854
  691SOL    HW2 3515   3.378   1.109   8.608 -2.4406 -1.9217  0.3287
  692SOL     OW 3516   7.910   2.329   5.536 -0.2230 -0.0158 -0.1323
  692SOL    HW1 3517   7.887   2.355   5.447 -1.8151 -0.3133  0.1668
  692SOL    HW2 3518   8.006   2.333   5.538 -0.1894  0.5961 -1.6616
  693SOL     OW 3519   6.745   3.820   1.411  0.0847  0.6068  0.6879
  693SOL    HW1 3520   6.793   3.853   1.335 -0.4218  4.2171  1.7277
  693SOL    HW2 3521   6.755   3.725   1.407  0.0272  0.5891 -3.8671
  694SOL     OW 3522   2.182   5.062   0.366  0.1419 -0.1013  0.2130
  694SOL    HW1 3523   2.260   5.090   0.413  0.7135  0.0998 -0.8186
  694SOL    HW2 3524   2.113   5.059   0.432  1.0617 -0.4552  1.1768
  695SOL     OW 3525   0.344   6.411  11.542  0.0720  0.5175  0.0502
  695SOL    HW1 3526   0.273   6.350  11.523  0.4679  0.3565 -0.9979
  695SOL    HW2 3527   0.306   6.473  11.605 -0.6239 -0.2495  0.4016
  696SOL     OW 3528   0.607   5.874   5.191 -0.4371  0.5917 -0.3772
  696SOL    HW1 3529   0.540   5.885   5.123 -1.6612 -0.4634  0.6139
  696SOL    HW2 3530   0.645   5.961   5.202 -0.4733  0.8661 -2.1233
  697SOL     OW 3531   0.374   3.575   5.363  0.1657  0.7177  0.4854
  697SOL    HW1 3532   0.316   3.623   5.421  0.3188 -0.9223  2.0711
  697SOL    HW2 3533   0.440   3.536   5.420 -0.1500 -1.6493 -0.6284
  698SOL     OW 3534   1.221   3.061   8.084 -0.4362  0.1402  0.0239
  698SOL    HW1 3535   1.188   3.110   8.008 -1.0855  1.2062  0.9603
  698SOL    HW2 3536   1.314   3.048   8.065 -0.7530 -0.3301 -1.3276
  699SOL     OW 3537   4.338   6.356   4.277 -0.2867 -0.4366 -0.5884
  699SOL    HW1 3538   4.369   6.394   4.360  0.2696 -0.9116 -0.5790
  699SOL    HW2 3539   4.246   6.335   4.294 -0.5676  0.7419 -0.5384
  700SOL     OW 3540   6.641   3.553   0.380  0.1715  0.5887  0.0259
  700SOL    HW1 3541   6.691   3.633   0.394  0.7175  0.6291 -1.9507
  700SOL    HW2 3542   6.703   3.482   0.397  0.1185  0.5944  0.2511
  701SOL     OW 3543   3.333   7.131   4.092 -0.2423  0.3559 -0.5109
  701SOL    HW1 3544   3.424   7.130   4.122 -0.7558 -0.8927  1.1418
  701SOL    HW2 3545   3.291   7.199   4.145 -0.9887 -1.3765  1.2649
  702SOL     OW 3546   3.005   2.240  10.040  0.2258 -0.1306  0.4959
  702SOL    HW1 3547   3.048   2.283   9.967 -0.3740  1.2932  0.9456
  702SOL    HW2 3548   3.024   2.295  10.116 -0.8895 -0.4227  1.0222
  703SOL     OW 3549   4.339   1.680   5.028  0.0242  0.1709  0.4695
  703SOL    HW1 3550   4.281   1.717   5.095 -0.5084  0.3285 -0.0652
  703SOL    HW2 3551   4.427   1.709   5.053 -0.3319  1.4649  0.2828
  704SOL     OW 3552   1.658   5.712   5.369 -0.8015 -0.1152 -0.0830
  704SOL    HW1 3553   1.668   5.617   5.369 -0.2195 -0.0688  0.6026
  704SOL    HW2 3554   1.626   5.733   5.282  3.1179 -0.5456 -1.8464
  705SOL     OW 3555   7.093   3.042  10.186 -0.1474 -0.1120 -0.1576
  705SOL    HW1 3556   7.143   3.124  10.186 -2.1342  1.1651 -0.1058
  705SOL    HW2 3557   7.078   3.024  10.093  1.3630 -1.1788 -0.2422
  706SOL     OW 3558   0.894   1.863  10.981  0.3278  0.3665  0.5413
  706SOL    HW1 3559   0.805   1.837  11.005  0.2492  0.0041 -0.1259
  706SOL    HW2 3560   0.945   1.847  11.061  0.0714 -0.8050  0.4949
  707SOL     OW 3561   5.844   7.156   8.278 -0.4414 -0.2379  0.1712
  707SOL    HW1 3562   5.876   7.157   8.188  0.8032 -0.0384  0.6076
  707SOL    HW2 3563   5.776   7.223   8.280  1.4546  1.7904  0.0633
  708SOL     OW 3564   1.230   5.599   2.617 -0.4106 -0.1675  0.2762
  708SOL    HW1 3565   1.287   5.619   2.543  0.4994 -0.1160  0.9693
  708SOL    HW2 3566   1.226   5.680   2.667 -0.6301 -0.3340  0.5327
  709SOL     OW 3567   0.352   6.979   7.340 -0.2789 -0.8325 -0.4300
  709SOL    HW1 3568   0.376   7.006   7.428 -2.1189 -1.6936  0.3854
  709SOL    HW2 3569   0.425   6.924   7.310  0.2990 -0.6303  0.5776
  710SOL     OW 3570   7.331   1.651   8.693 -0.0338 -0.2065  0.1665
  710SOL    HW1 3571   7.362   1.574   8.645  0.5787 -0.1566  0.4700
  710SOL    HW2 3572   7.282   1.701   8.628  0.2139 -0.4785 -0.2358
  711SOL     OW 3573   5.327   6.553  10.588 -0.3084  0.0074 -0.1165
  711SOL    HW1 3574   5.303   6.528  10.677  0.6928  0.5804  0.3353
  711SOL    HW2 3575   5.248   6.593  10.552  0.1784  2.9121  1.7179
  712SOL     OW 3576   0.541   6.279   3.677  0.3598  0.0753 -0.5799
  712SOL    HW1 3577   0.457   6.314   3.707  0.3377 -1.2424  1.0502
  712SOL    HW2 3578   0.605   6.347   3.698 -0.1573  0.6901 -0.9652
  713SOL     OW 3579   2.619   1.231  11.308  0.0193  0.6418  0.0844
  713SOL    HW1 3580   2.638   1.142  11.277  1.3672 -0.2174  3.0122
  713SOL    HW2 3581   2.681   1.286  11.260 -1.3596  0.2109 -2.3496
  714SOL     OW 3582   5.368   3.746   7.894  0.0217  0.1453  0.0164
  714SOL    HW1 3583   5.369   3.708   7.982  1.8815 -0.9046 -0.4011
  714SOL    HW2 3584   5.318   3.827   7.903 -0.0485 -0.0722  1.9742
  715SOL     OW 3585   1.439   4.148   0.001 -0.2480 -0.3081  0.2829
  715SOL    HW1 3586   1.351   4.173  -0.027  0.0908  0.9357  0.2561
  715SOL    HW2 3587   1.485   4.231   0.013  0.5415 -0.8943  1.5643
  716SOL     OW 3588   3.397   0.648   7.508  1.2075 -0.1866  0.0089
  716SOL    HW1 3589   3.341   0.573   7.527 -0.0687  0.6542 -0.3210
  716SOL    HW2 3590   3.463   0.613   7.447 -0.1159 -0.7819 -1.1489
  717SOL     OW 3591   7.837   3.286  10.364  0.4482 -0.1645 -0.1476
  717SOL    HW1 3592   7.786   3.314  10.288  0.8630  0.5211 -0.1786
  717SOL    HW2 3593   7.835   3.190  10.361 -0.8196 -0.1575 -0.1629
  718SOL     OW 3594   5.381   1.805  12.370  0.6149  0.2170 -0.5042
  718SOL    HW1 3595   5.286   1.807  12.356  0.5165  0.9188  0.1774
  718SOL    HW2 3596   5.407   1.716  12.347 -0.6399 -0.8948  1.9800
  719SOL     OW 3597   2.936   7.104   3.165 -0.7055  0.0658 -0.1396
  719SOL    HW1 3598   2.878   7.029   3.152 -0.1472 -0.1724 -1.3858
  719SOL    HW2 3599   2.962   7.098   3.258 -0.2225 -1.6261 -0.3356
  720SOL     OW 3600   7.429   3.946   6.036  0.3969 -0.1203 -0.5177
  720SOL    HW1 3601   7.443   4.027   5.987 -1.1807 -0.4520 -1.6210
  720SOL    HW2 3602   7.357   3.902   5.989 -0.8995 -0.6972  1.8406
  721SOL     OW 3603   0.745   1.786   8.865  0.3719 -0.0279  0.0693
  721SOL    HW1 3604   0.826   1.743   8.836 -0.0574 -1.0583  0.3617
  721SOL    HW2 3605   0.681   1.715   8.870  0.1515  0.2727  2.4574
  722SOL     OW 3606   6.808   0.663   0.917 -0.1175 -0.2561  0.0568
  722SOL    HW1 3607   6.753   0.600   0.871  0.3908 -0.9674  0.4199
  722SOL    HW2 3608   6.746   0.719   0.963 -0.5274 -1.8854  1.5635
  723SOL     OW 3609   4.793   4.740   0.458  0.0725  0.0170  0.3469
  723SOL    HW1 3610   4.726   4.727   0.524  1.3752 -1.7129  1.4155
  723SOL    HW2 3611   4.796   4.657   0.410  0.2741  0.6749 -0.8272
  724SOL     OW 3612   2.167   1.122   8.726  0.1207  0.0419  0.7886
  724SOL    HW1 3613   2.074   1.112   8.708 -0.4146  3.4008  1.0478
  724SOL    HW2 3614   2.209   1.124   8.640 -0.1339 -0.5280  0.6447
  725SOL     OW 3615   5.059   2.736   9.202  0.3882 -0.5616 -0.0805
  725SOL    HW1 3616   5.088   2.673   9.136  0.6874 -2.1823  1.5253
  725SOL    HW2 3617   4.967   2.715   9.218 -0.2726  1.1184 -1.3298
  726SOL     OW 3618   7.136   6.297   3.238 -0.3451  0.0985  0.5033
  726SOL    HW1 3619   7.120   6.323   3.329  1.8839 -0.2972  1.0705
  726SOL    HW2 3620   7.219   6.339   3.216 -1.5380  1.4081 -1.9064
  727SOL     OW 3621   1.268   0.036  12.191 -0.3769 -0.0241  0.0017
  727SOL    HW1 3622   1.174   0.050  12.203 -0.5443 -0.0848 -1.0963
  727SOL    HW2 3623   1.288  -0.039  12.248 -1.6643 -2.0629 -2.0364
  728SOL     OW 3624   1.366   7.060   7.920 -0.0677 -0.3080  0.1747
  728SOL    HW1 3625   1.416   6.992   7.964  0.5433  0.0459  0.0358
  728SOL    HW2 3626   1.322   7.107   7.990 -0.2562 -0.6565  0.2918
  729SOL     OW 3627   4.993   2.768   5.510  0.2789  0.1850 -0.0849
  729SOL    HW1 3628   4.953   2.845   5.471  0.9269  0.5750  0.0097
  729SOL    HW2 3629   4.970   2.772   5.603  0.5517  0.4212 -0.0267
  730SOL     OW 3630   3.101   0.143  10.485  0.9912 -0.5885 -0.3062
  730SOL    HW1 3631   3.031   0.121  10.548 -0.0571 -1.9939 -1.8748
  730SOL    HW2 3632   3.090   0.079  10.415  2.0375  1.0207 -2.0013
  731SOL     OW 3633   1.800   2.398   7.815  0.0127  0.8399 -0.1363
  731SOL    HW1 3634   1.809   2.308   7.847  1.0934  1.3803  1.2009
  731SOL    HW2 3635   1.718   2.429   7.852 -1.6109 -0.2889 -2.5308
  732SOL     OW 3636   6.566   2.840   0.775  0.0787  0.3681 -0.1458
  732SOL    HW1 3637   6.560   2.748   0.748  2.0447  0.2000 -0.1570
  732SOL    HW2 3638   6.523   2.842   0.860 -1.5610 -0.1672 -0.9088
  733SOL     OW 3639   0.987   6.337   0.009  0.2590  0.0156  0.5826
  733SOL    HW1 3640   1.076   6.302   0.016  1.1031  1.8487 -0.2324
  733SOL    HW2 3641   0.996   6.429   0.036 -1.4355  0.1780  0.6669
  734SOL     OW 3642   6.278   3.123   9.993 -0.5097  0.1762  0.0188
  734SOL    HW1 3643   6.309   3.034  10.010 -0.9074 -0.2441 -1.2984
  734SOL    HW2 3644   6.350   3.179  10.019  0.2013 -0.6121 -0.1976
  735SOL     OW 3645   7.723   6.914  10.930  0.1163 -0.9945 -0.4168
  735SOL    HW1 3646   7.642   6.864  10.927 -0.5389  0.0764 -1.3245
  735SOL    HW2 3647   7.767   6.884  11.009 -1.5555 -1.0092  0.5473
  736SOL     OW 3648   7.708   2.570   3.203 -0.4427  0.0123  0.0494
  736SOL    HW1 3649   7.735   2.539   3.116  0.6498  1.4615 -0.1654
  736SOL    HW2 3650   7.632   2.625   3.186  0.7506  1.6614 -0.2603
  737SOL     OW 3651   1.522   4.366   5.129  0.0357 -0.2172  0.4937
  737SOL    HW1 3652   1.549   4.352   5.038 -0.8323  1.1026  0.0026
  737SOL    HW2 3653   1.573   4.302   5.179  0.5654 -0.9435 -0.9061
  738SOL     OW 3654   0.761   0.274  11.764 -0.0884 -0.4775  0.7311
  738SOL    HW1 3655   0.680   0.266  11.814  0.3162 -2.0096  1.1805
  738SOL    HW2 3656   0.798   0.186  11.763  2.4065  0.4432  1.9648
  739SOL     OW 3657   4.458   2.734   5.520 -0.7567 -0.8845 -0.1285
  739SOL    HW1 3658   4.426   2.816   5.558 -1.3984 -2.0170  1.8987
  739SOL    HW2 3659   4.524   2.762   5.457 -1.2129  1.2077  0.2424
  740SOL     OW 3660   1.056   4.216   2.314 -0.5740  0.0808 -0.4557
  740SOL    HW1 3661   0.980   4.253   2.268 -1.4873 -0.6988  0.3822
  740SOL    HW2 3662   1.026   4.205   2.404  0.0436 -1.6320 -0.4351
  741SOL     OW 3663   1.650   6.883   3.976  0.0615  0.3514 -0.2197
  741SOL    HW1 3664   1.574   6.869   3.919 -1.2290 -0.7855  1.6775
  741SOL    HW2 3665   1.646   6.976   3.998 -1.8583 -0.0094  1.2152
  742SOL     OW 3666   5.033   2.655   8.097 -0.0930 -0.2362  0.4611
  742SOL    HW1 3667   5.099   2.595   8.132  0.9402  0.8402  0.3955
  742SOL    HW2 3668   5.035   2.640   8.002 -1.6072 -1.8411  0.6207
  743SOL     OW 3669   2.203   1.643   0.238  0.4823 -0.0461 -0.0490
  743SOL    HW1 3670   2.134   1.583   0.268  1.6079 -0.6313  1.5334
  743SOL    HW2 3671   2.166   1.686   0.161 -0.0534 -3.5232 -1.9597
  744SOL     OW 3672   1.534   2.984   1.961  0.0266 -0.0390  0.0063
  744SOL    HW1 3673   1.536   3.055   1.897 -0.0016 -1.7692 -2.0277
  744SOL    HW2 3674   1.506   2.907   1.911  0.4173 -1.5821  2.0225
  745SOL     OW 3675   1.920   7.617  11.764  0.0157  0.7424 -0.0309
  745SOL    HW1 3676   1.954   7.664  11.687  0.5635 -0.9368 -0.8720
  745SOL    HW2 3677   1.979   7.641  11.835  2.2296 -0.9840 -1.1404
  746SOL     OW 3678   7.024   0.903  11.811 -0.2572 -0.3042 -0.1271
  746SOL    HW1 3679   7.043   0.843  11.738 -0.4815  0.1887 -0.5985
  746SOL    HW2 3680   6.932   0.885  11.833 -0.2346 -0.3472 -0.0694
  747SOL     OW 3681   0.384   2.642   6.771 -0.5946  0.6608  0.3160
  747SOL    HW1 3682   0.333   2.700   6.714  0.2557  1.6619  0.5322
  747SOL    HW2 3683   0.423   2.701   6.835  0.2102 -0.1816  0.6130
  748SOL     OW 3684   7.783   3.052   9.785 -0.0691 -0.1926 -0.2474
  748SOL    HW1 3685   7.848   3.041   9.716  2.3219 -1.7229  2.0577
  748SOL    HW2 3686   7.769   2.964   9.820 -2.8396  0.2050 -0.1021
  749SOL     OW 3687   5.253   1.386   2.688  0.6227  0.5018 -0.1263
  749SOL    HW1 3688   5.325   1.429   2.734  0.6872  0.7146 -0.4281
  749SOL    HW2 3689   5.220   1.452   2.627 -0.7727  0.9037  1.0223
  750SOL     OW 3690   5.894   3.700   7.622 -0.2763  0.0630 -0.4028
  750SOL    HW1 3691   5.825   3.650   7.665 -0.6546 -0.8761 -2.0242
  750SOL    HW2 3692   5.857   3.724   7.537  0.9373  0.6677 -0.7812
  751SOL     OW 3693   2.120   2.805   6.886 -0.7492  0.5826 -0.4029
  751SOL    HW1 3694   2.044   2.757   6.853 -0.3863 -0.8789  0.7591
  751SOL    HW2 3695   2.195   2.765   6.841 -0.1790 -1.9107  2.4736
  752SOL     OW 3696   5.105   4.957   1.965 -0.2268  0.5228  0.1983
  752SOL    HW1 3697   5.154   5.002   2.034 -0.8615  0.9198  0.3948
  752SOL    HW2 3698   5.149   4.872   1.956 -0.2079  0.4218  1.1663
  753SOL     OW 3699   0.640   3.112   6.598 -0.3706  0.4131 -0.1212
  753SOL    HW1 3700   0.699   3.185   6.610  0.4409 -0.2710  0.1653
  753SOL    HW2 3701   0.598   3.100   6.683  2.0381 -1.5781  0.9161
  754SOL     OW 3702   3.449   4.863   3.673 -0.1643 -0.4591 -0.2190
  754SOL    HW1 3703   3.429   4.871   3.766 -1.3806  1.4779 -0.5843
  754SOL    HW2 3704   3.533   4.817   3.670 -0.5182 -1.3250  1.7788
  755SOL     OW 3705   6.403   4.473   9.869  0.1742 -0.3031  0.2588
  755SOL    HW1 3706   6.379   4.401   9.811 -0.1871  0.2731 -0.3272
  755SOL    HW2 3707   6.405   4.435   9.956 -1.9949 -0.6006  0.2263
  756SOL     OW 3708   1.740   2.165   2.584  0.3764 -0.6206 -0.7055
  756SOL    HW1 3709   1.772   2.209   2.663  0.1163 -1.4164 -0.1391
  756SOL    HW2 3710   1.679   2.227   2.545 -0.0341 -0.4933  0.1170
  757SOL     OW 3711   5.221   4.847  10.950  0.4686  0.1256 -0.2565
  757SOL    HW1 3712   5.165   4.774  10.978  0.7226  0.4271  1.1229
  757SOL    HW2 3713   5.168   4.925  10.966  0.1457  0.2552 -1.8628
  758SOL     OW 3714   7.934   7.234   2.593 -0.0569 -0.4916 -0.5752
  758SOL    HW1 3715   7.942   7.139   2.606 -1.0967 -0.4438  0.5723
  758SOL    HW2 3716   7.921   7.244   2.499  2.3675 -1.2948 -1.0665
  759SOL     OW 3717   7.523   2.119   6.951 -0.3837 -0.8216  0.1017
  759SOL    HW1 3718   7.461   2.056   6.915 -2.8506  0.7255  1.3885
  759SOL    HW2 3719   7.571   2.070   7.018  0.8876 -2.3990 -1.8051
  760SOL     OW 3720   0.897   7.156   3.068  0.0485  0.0486 -0.0178
  760SOL    HW1 3721   0.941   7.126   3.148  0.7275 -0.3904 -0.5476
  760SOL    HW2 3722   0.917   7.089   3.003  0.5674  1.0195 -0.8898
  761SOL     OW 3723   7.176   2.451   5.032 -0.3656  0.4766  0.3124
  761SOL    HW1 3724   7.085   2.440   5.061 -0.3232 -0.5131  0.1188
  761SOL    HW2 3725   7.220   2.373   5.065  0.1064  0.2780 -0.7704
  762SOL     OW 3726   4.163   6.178   4.721  0.1083  0.0479 -0.3472
  762SOL    HW1 3727   4.117   6.210   4.644 -3.5797  0.7131  1.8775
  762SOL    HW2 3728   4.150   6.246   4.787 -0.5137 -2.2101  2.0372
  763SOL     OW 3729   1.461   5.422  11.691  0.1164 -0.3521  0.8509
  763SOL    HW1 3730   1.379   5.377  11.712  0.3215 -1.1500  0.0320
  763SOL    HW2 3731   1.452   5.446  11.598  0.4875  0.2633  0.9688
  764SOL     OW 3732   7.893   7.928   4.070  0.5616  0.6330  0.2679
  764SOL    HW1 3733   7.920   7.982   4.144 -2.6454 -0.0533  2.1696
  764SOL    HW2 3734   7.802   7.954   4.054 -1.0954 -3.8033  1.1019
  765SOL     OW 3735   4.314   4.614   1.658  0.5259 -0.2715  0.5766
  765SOL    HW1 3736   4.313   4.680   1.727 -2.6345 -0.0433  0.4529
  765SOL    HW2 3737   4.326   4.664   1.577 -0.6692  0.0821  0.5927
  766SOL     OW 3738   0.784   3.776   7.794 -0.5334  0.0813  0.6382
  766SOL    HW1 3739   0.815   3.690   7.822 -0.3585  0.3569  1.3109
  766SOL    HW2 3740   0.689   3.768   7.791 -0.4578 -1.2484 -2.9771
  767SOL     OW 3741   5.666   6.255   2.195 -0.6659 -0.0601  0.0187
  767SOL    HW1 3742   5.685   6.320   2.127 -1.0356 -0.2412 -0.2655
  767SOL    HW2 3743   5.747   6.206   2.205 -0.0769  1.0317  0.9040
  768SOL     OW 3744   4.917   2.037   8.220 -0.7644  0.3009  0.3230
  768SOL    HW1 3745   4.982   2.104   8.242 -1.4409  0.8452  0.7155
  768SOL    HW2 3746   4.836   2.086   8.209 -0.2987  0.5055 -5.4784
  769SOL     OW 3747   5.110   2.426  12.194  0.3642  0.1888  0.7207
  769SOL    HW1 3748   5.175   2.360  12.170  0.5644  0.5567  0.2348
  769SOL    HW2 3749   5.156   2.484  12.255  1.7405  2.6191 -2.3928
  770SOL     OW 3750   0.040   0.956   0.659 -0.0579 -0.7578  0.7803
  770SOL    HW1 3751   0.122   0.915   0.686  0.6859 -0.0352 -0.3119
  770SOL    HW2 3752   0.037   1.038   0.708  0.8399  0.1196 -0.5782
  771SOL     OW 3753   2.354   5.254   7.428  0.4591  0.0579 -0.3518
  771SOL    HW1 3754   2.309   5.175   7.459 -0.3731  0.6787  0.0321
  771SOL    HW2 3755   2.350   5.247   7.332 -1.0574  0.4380 -0.3259
  772SOL     OW 3756   5.255   3.170  11.722 -0.1924 -0.1597  0.3573
  772SOL    HW1 3757   5.299   3.215  11.794 -1.1783  0.4710  0.5912
  772SOL    HW2 3758   5.191   3.234  11.690  0.9471 -0.0038 -1.7968
  773SOL     OW 3759   4.938   5.968   3.428 -0.2897  0.0271  0.2382
  773SOL    HW1 3760   5.027   5.938   3.443  0.3974  1.6425 -0.3171
  773SOL    HW2 3761   4.931   6.048   3.481 -0.7598  0.9244 -1.1315
  774SOL     OW 3762   0.832   6.342   6.907 -0.2902  0.3104 -0.2346
  774SOL    HW1 3763   0.764   6.398   6.944 -2.1031 -1.4713 -0.6625
  774SOL    HW2 3764   0.889   6.402   6.859 -3.4765  1.6444 -2.7291
  775SOL     OW 3765   7.893   1.208   6.401 -0.1243  0.7065  0.0648
  775SOL    HW1 3766   7.921   1.151   6.329  1.1314  0.0128  1.0608
  775SOL    HW2 3767   7.974   1.240   6.439 -0.7961  1.9968  0.4623
  776SOL     OW 3768   1.193   4.434   7.134 -0.1112  0.0800 -0.2277
  776SOL    HW1 3769   1.186   4.355   7.080 -0.6981 -1.2694  1.7278
  776SOL    HW2 3770   1.200   4.402   7.224 -1.8880  2.2770  0.8016
  777SOL     OW 3771   0.254   7.538   6.565 -0.5214  0.0790 -0.3305
  777SOL    HW1 3772   0.257   7.548   6.470 -0.0939  0.5553 -0.2715
  777SOL    HW2 3773   0.204   7.458   6.579 -0.1751 -0.2561 -0.9714
  778SOL     OW 3774   6.219   5.558   4.649 -0.1246  0.2086 -0.3619
  778SOL    HW1 3775   6.187   5.587   4.564 -0.3275  1.8933  0.2574
  778SOL    HW2 3776   6.149   5.503   4.683 -0.2286 -0.1236 -1.0863
  779SOL     OW 3777   5.575   3.151  11.290 -0.6658 -0.1118  0.3629
  779SOL    HW1 3778   5.495   3.171  11.338 -1.0004  0.8142 -0.5410
  779SOL    HW2 3779   5.577   3.055  11.286 -1.3200 -0.1675  1.0453
  780SOL     OW 3780   4.916   5.618   9.930  0.3776 -0.1745 -0.5173
  780SOL    HW1 3781   4.827   5.651   9.913  0.7639  0.3750 -1.5695
  780SOL    HW2 3782   4.923   5.540   9.876  0.1756 -0.8313  0.3940
  781SOL     OW 3783   0.038   0.443   2.617  0.2224 -0.2593 -0.4160
  781SOL    HW1 3784  -0.057   0.452   2.606  0.2982  0.4781 -0.5435
  781SOL    HW2 3785   0.075   0.504   2.553  0.7776 -0.3853 -0.2208
  782SOL     OW 3786   7.546   3.110   6.872 -0.4103  0.5205 -0.0690
  782SOL    HW1 3787   7.626   3.150   6.839 -0.6451 -0.0193 -1.3747
  782SOL    HW2 3788   7.575   3.039   6.929  0.0428  0.3400 -0.5251
  783SOL     OW 3789   6.609   7.164   2.631 -0.2157 -0.1311  0.1659
  783SOL    HW1 3790   6.668   7.110   2.684  0.0711  0.4721  0.4714
  783SOL    HW2 3791   6.621   7.131   2.542 -0.7134 -1.1637  0.4672
  784SOL     OW 3792   1.990   4.329  10.390  0.1261  0.3329 -0.2248
  784SOL    HW1 3793   2.047   4.316  10.314  1.4751 -1.7107  1.0409
  784SOL    HW2 3794   2.037   4.392  10.445  0.3029 -0.0219  0.0263
  785SOL     OW 3795   5.535   3.782  11.219  0.1982  0.0647  0.1889
  785SOL    HW1 3796   5.487   3.750  11.143 -0.4405  1.6451 -0.1071
  785SOL    HW2 3797   5.533   3.708  11.281 -2.3791 -0.0604  0.0789
  786SOL     OW 3798   3.637   5.867  11.013 -0.0864  0.7441  0.8548
  786SOL    HW1 3799   3.643   5.880  11.108  2.2334  2.1886  0.6027
  786SOL    HW2 3800   3.596   5.948  10.981 -0.5873  0.3862  0.5793
  787SOL     OW 3801   1.844   7.607   2.826  0.3635 -0.2556 -0.0737
  787SOL    HW1 3802   1.898   7.540   2.784  1.3360  1.0577 -1.0085
  787SOL    HW2 3803   1.809   7.658   2.753 -0.0453  0.4936  0.6313
  788SOL     OW 3804   1.245   1.141   2.921 -0.5870 -0.1240 -0.4297
  788SOL    HW1 3805   1.203   1.204   2.980 -0.8881 -0.3819 -0.3623
  788SOL    HW2 3806   1.279   1.073   2.979  1.4448  0.9151 -0.3282
  789SOL     OW 3807   7.257   7.108   8.748  0.7862 -0.3538  0.4952
  789SOL    HW1 3808   7.194   7.044   8.715  1.3093 -0.6575  0.0586
  789SOL    HW2 3809   7.336   7.092   8.697  0.8150  0.8957  0.1087
  790SOL     OW 3810   6.248   1.135   4.617  0.3061  0.2182  0.2342
  790SOL    HW1 3811   6.313   1.131   4.546 -0.1107  0.8201 -0.2009
  790SOL    HW2 3812   6.300   1.143   4.697  0.7767  0.9476 -0.1303
  791SOL     OW 3813   7.923   1.913  11.736  0.3193 -1.0996  0.1933
  791SOL    HW1 3814   7.919   1.838  11.677 -0.4076  0.2168 -1.5443
  791SOL    HW2 3815   7.834   1.947  11.736  0.0039 -1.6933  3.0259
  792SOL     OW 3816   1.834   0.455   0.262 -0.0147  0.4696 -0.0997
  792SOL    HW1 3817   1.920   0.416   0.244 -0.2058  0.9211 -2.2869
  792SOL    HW2 3818   1.854   0.537   0.307  0.6243  0.1183  0.2832
  793SOL     OW 3819   4.094   1.498   8.131 -0.1026  0.3377 -0.3752
  793SOL    HW1 3820   4.024   1.563   8.137 -1.4420 -1.1370  0.8920
  793SOL    HW2 3821   4.159   1.538   8.073 -2.2819  1.5187 -2.1804
  794SOL     OW 3822   5.229   2.227   3.533  0.9485  0.3459 -0.3917
  794SOL    HW1 3823   5.228   2.297   3.468 -0.8826  1.8696  1.1671
  794SOL    HW2 3824   5.240   2.272   3.617  1.6670 -1.4333  0.5179
  795SOL     OW 3825   1.713   4.664   6.477  0.1236  0.1917  0.1865
  795SOL    HW1 3826   1.625   4.690   6.449 -0.0274  0.4795  0.8865
  795SOL    HW2 3827   1.728   4.580   6.434  0.0462  0.7668 -0.9982
  796SOL     OW 3828   1.948   7.076   3.340  0.0174  0.2578 -0.0808
  796SOL    HW1 3829   1.908   7.154   3.379  0.0019  0.0952  0.2267
  796SOL    HW2 3830   1.993   7.033   3.412 -0.2657 -0.2034 -0.1742
  797SOL     OW 3831   5.267   5.758   7.957  0.5224  0.6031  0.2743
  797SOL    HW1 3832   5.286   5.730   8.047  0.7453 -1.5421 -0.3866
  797SOL    HW2 3833   5.183   5.804   7.964  0.6700  0.7263  1.6072
  798SOL     OW 3834   2.196   0.812   3.465  0.6037 -0.5261 -0.3301
  798SOL    HW1 3835   2.249   0.760   3.525  0.7123 -0.9855 -0.8175
  798SOL    HW2 3836   2.201   0.765   3.382 -0.7947 -0.7444 -0.3238
  799SOL     OW 3837   3.707   6.054   8.005 -0.0110  0.2845  0.9239
  799SOL    HW1 3838   3.635   5.991   8.007  0.0735  0.1116 -0.4692
  799SOL    HW2 3839   3.677   6.126   8.061 -0.9992 -0.0497  0.8476
  800SOL     OW 3840   5.584   1.200   1.351 -0.0950 -0.1125 -0.1552
  800SOL    HW1 3841   5.618   1.120   1.389 -0.4756 -1.1503 -1.8776
  800SOL    HW2 3842   5.659   1.242   1.310  0.0848  0.3826  0.6591
  801SOL     OW 3843   0.514   6.689  11.669 -0.0129  0.2332 -0.0959
  801SOL    HW1 3844   0.419   6.681  11.672  0.1485 -2.0834  1.4968
  801SOL    HW2 3845   0.543   6.667  11.757  2.0102  1.6282 -0.3340
  802SOL     OW 3846   0.160   4.155   9.586  0.2148 -0.4530 -0.2225
  802SOL    HW1 3847   0.098   4.223   9.558  1.3736  0.1331 -1.4600
  802SOL    HW2 3848   0.228   4.203   9.632  1.1300 -0.7316 -1.2482
  803SOL     OW 3849   6.880   1.899   9.102  0.2660  0.1526 -0.3206
  803SOL    HW1 3850   6.822   1.841   9.053  0.2714  1.2228 -1.6496
  803SOL    HW2 3851   6.884   1.860   9.189 -2.5499  0.0850 -0.1147
  804SOL     OW 3852   0.399   0.641   5.159  0.4757 -0.0739 -0.0629
  804SOL    HW1 3853   0.411   0.559   5.112 -1.0582 -0.5610  0.3153
  804SOL    HW2 3854   0.477   0.693   5.139  1.4404 -1.5887 -0.3685
  805SOL     OW 3855   1.051   0.679   1.096 -0.5075 -0.0257  0.0803
  805SOL    HW1 3856   1.052   0.586   1.074 -0.4085  0.0343 -0.1703
  805SOL    HW2 3857   1.134   0.714   1.062 -0.4657  0.1203  0.3241
  806SOL     OW 3858   4.758   6.358   3.393 -0.4123  0.5290  0.8189
  806SOL    HW1 3859   4.784   6.290   3.456 -1.5781  0.5359  1.3269
  806SOL    HW2 3860   4.663   6.351   3.388 -0.5411  1.9958  0.7382
  807SOL     OW 3861   7.084   6.528  12.238  0.5111 -0.1778 -0.4455
  807SOL    HW1 3862   7.006   6.516  12.183 -1.7857 -0.2683  2.5999
  807SOL    HW2 3863   7.103   6.441  12.272 -0.5040  0.4266  1.8232
  808SOL     OW 3864   6.917   0.349   9.149 -0.7876 -1.0811 -0.5672
  808SOL    HW1 3865   6.856   0.364   9.077 -1.8930 -1.1208  0.3246
  808SOL    HW2 3866   6.892   0.264   9.185  0.5842 -1.6576 -0.9211
  809SOL     OW 3867   1.154   5.147   9.812  0.0257  0.1547 -0.1300
  809SOL    HW1 3868   1.106   5.115   9.735 -1.0712  0.3120  0.4687
  809SOL    HW2 3869   1.086   5.186   9.868  0.7911 -0.0547  0.9671
  810SOL     OW 3870   1.779   7.575   9.677  0.1936  0.2981 -0.0384
  810SOL    HW1 3871   1.722   7.500   9.695 -0.0381  0.4701 -0.0549
  810SOL    HW2 3872   1.754   7.641   9.741  1.1560 -0.0282  0.7120
  811SOL     OW 3873   1.431   2.143   8.078  1.0063  0.1182 -0.2769
  811SOL    HW1 3874   1.357   2.100   8.121  1.5317 -0.3546  0.1644
  811SOL    HW2 3875   1.452   2.085   8.004  1.0537  0.1549 -0.2916
  812SOL     OW 3876   2.504   0.750   4.828 -0.0275 -0.3228  0.0464
  812SOL    HW1 3877   2.585   0.757   4.776 -0.2422 -0.8726 -0.3713
  812SOL    HW2 3878   2.534   0.751   4.919  0.7971 -3.7952 -0.0675
  813SOL     OW 3879   7.908   6.069   9.482  0.2344 -0.7967  0.5368
  813SOL    HW1 3880   7.856   6.019   9.420  0.6601 -1.6684  0.8495
  813SOL    HW2 3881   7.848   6.089   9.554  0.1079 -1.0621  0.5065
  814SOL     OW 3882   7.962   7.952   3.270  0.5610  0.1783  0.4194
  814SOL    HW1 3883   7.873   7.921   3.255 -0.0709  1.1991  1.8549
  814SOL    HW2 3884   7.968   7.963   3.365  1.2505  2.7832  0.1504
  815SOL     OW 3885   4.452   2.279   2.434 -0.1084  0.4277  0.3091
  815SOL    HW1 3886   4.508   2.264   2.358  0.4691  0.8388  0.6446
  815SOL    HW2 3887   4.484   2.219   2.501 -0.9496 -0.3047  0.0688
  816SOL     OW 3888   2.459   0.345   6.395 -0.4538  0.3206 -0.6564
  816SOL    HW1 3889   2.502   0.314   6.315  0.4495 -1.9698  0.6143
  816SOL    HW2 3890   2.402   0.272   6.421  1.2190 -0.1107  2.1317
  817SOL     OW 3891   1.702   0.202   0.619 -0.1708 -0.4803  0.2073
  817SOL    HW1 3892   1.770   0.164   0.564 -2.0273 -1.4915 -1.5327
  817SOL    HW2 3893   1.676   0.282   0.573  1.4510  1.2687  2.1429
  818SOL     OW 3894   5.979   7.922  10.628  0.3135  0.4377 -0.2448
  818SOL    HW1 3895   5.938   7.968  10.554 -1.0546 -0.6427 -0.2001
  818SOL    HW2 3896   5.971   7.983  10.701 -0.7500  0.4734 -0.3710
  819SOL     OW 3897   2.260   0.610   8.655  0.3091 -0.0131  0.7487
  819SOL    HW1 3898   2.202   0.541   8.687 -1.6382  1.0414 -0.3280
  819SOL    HW2 3899   2.258   0.602   8.560  0.1253  1.4439  0.6075
  820SOL     OW 3900   4.944   7.358   8.115  0.9241  0.0382 -0.6298
  820SOL    HW1 3901   4.925   7.295   8.046  0.0926  0.1504 -0.5156
  820SOL    HW2 3902   4.859   7.375   8.156  0.9903  1.7640 -1.1050
  821SOL     OW 3903   3.624   6.357   5.989 -0.1061  0.2882  0.5189
  821SOL    HW1 3904   3.710   6.317   5.979  0.0684  0.5182  1.0175
  821SOL    HW2 3905   3.597   6.333   6.078 -0.8018 -0.2364  0.1744
  822SOL     OW 3906   2.852   5.528   9.577  0.4105 -0.6795 -0.3923
  822SOL    HW1 3907   2.882   5.458   9.634  0.9848  0.6064  0.9425
  822SOL    HW2 3908   2.927   5.548   9.522  0.4802 -0.6154 -0.2733
  823SOL     OW 3909   2.333   2.200   0.570  0.4924  0.3190 -0.5270
  823SOL    HW1 3910   2.428   2.199   0.567  0.5286  1.7671 -2.3932
  823SOL    HW2 3911   2.310   2.293   0.562 -1.0987  0.2944  2.3382
  824SOL     OW 3912   7.726   2.029   9.887 -0.1758  0.2200  0.4233
  824SOL    HW1 3913   7.705   2.002   9.798  0.2620 -0.5671  0.5481
  824SOL    HW2 3914   7.787   2.102   9.876  1.9673 -1.5317  0.0298
  825SOL     OW 3915   2.943   7.684   6.389 -0.1956 -0.1308  0.2503
  825SOL    HW1 3916   2.919   7.738   6.313  1.0122  1.8951  1.2359
  825SOL    HW2 3917   3.039   7.683   6.388 -0.1887 -1.7714  0.6384
  826SOL     OW 3918   6.436   2.856   1.927  0.2331  0.0185 -0.0756
  826SOL    HW1 3919   6.427   2.892   1.838  0.6498  0.1550 -0.0680
  826SOL    HW2 3920   6.508   2.907   1.965  2.2953 -2.1586 -0.7628
  827SOL     OW 3921   5.448   4.054   6.832  0.0508  0.1713 -0.3011
  827SOL    HW1 3922   5.454   4.144   6.863  0.9839 -0.0564  0.2117
  827SOL    HW2 3923   5.496   4.003   6.897  0.0841 -0.6116 -0.9279
  828SOL     OW 3924   3.003   6.913   7.593  0.5805  0.1485 -0.1625
  828SOL    HW1 3925   3.032   6.842   7.649  0.9768  1.3060  1.1452
  828SOL    HW2 3926   3.049   6.990   7.625 -0.2108  1.0993 -1.2187
  829SOL     OW 3927   7.075   6.361   3.514  0.0657 -0.3414  0.4428
  829SOL    HW1 3928   7.034   6.282   3.549  0.4441 -0.0928  1.4559
  829SOL    HW2 3929   7.158   6.369   3.561  0.5362  0.0722 -0.4187
  830SOL     OW 3930   5.586   1.043   8.469 -0.0975 -0.2004  0.4334
  830SOL    HW1 3931   5.603   1.002   8.553  0.8156  0.7826  0.7538
  830SOL    HW2 3932   5.595   0.972   8.405 -0.8013 -0.9531  1.1485
  831SOL     OW 3933   7.282   2.016   9.462 -0.5268  0.7617 -0.0199
  831SOL    HW1 3934   7.288   1.922   9.484 -0.3067  0.3044 -1.9015
  831SOL    HW2 3935   7.328   2.060   9.534 -0.5291 -0.5669  0.8381
  832SOL     OW 3936   1.197   2.104  11.302  0.0017 -0.0154  0.2728
  832SOL    HW1 3937   1.286   2.072  11.318  0.2608  1.0859  1.1951
  832SOL    HW2 3938   1.210   2.188  11.257 -0.6038 -0.2876 -0.4296
  833SOL     OW 3939   2.321   6.200   5.660  0.2677 -0.4801  0.3479
  833SOL    HW1 3940   2.318   6.181   5.753  0.5727  0.0602  0.4734
  833SOL    HW2 3941   2.230   6.192   5.631  0.0996 -0.1907  0.7850
  834SOL     OW 3942   4.661   7.375   7.505  0.2466  0.3526  0.1538
  834SOL    HW1 3943   4.666   7.463   7.468  1.7182 -0.1362 -0.9075
  834SOL    HW2 3944   4.574   7.371   7.545 -0.5878  1.6654 -1.3832
  835SOL     OW 3945   4.067   3.166   1.001  0.2805  0.1170  0.7171
  835SOL    HW1 3946   4.144   3.136   0.954  1.0048  0.7385  1.4934
  835SOL    HW2 3947   4.062   3.110   1.079 -0.9073 -0.9014 -0.0496
  836SOL     OW 3948   0.765   5.096  12.451  0.0663 -0.2895  0.4166
  836SOL    HW1 3949   0.709   5.067  12.523 -1.0132  1.8429  0.5214
  836SOL    HW2 3950   0.715   5.076  12.372 -0.3498  0.5713  0.4536
  837SOL     OW 3951   5.533   5.096  11.837 -0.0398  0.3213 -0.0302
  837SOL    HW1 3952   5.461   5.034  11.824  1.8821 -2.0021 -0.2068
  837SOL    HW2 3953   5.549   5.133  11.750  0.1852 -0.5910 -0.3864
  838SOL     OW 3954   3.891   7.662   1.527  0.0656  0.3733 -0.0027
  838SOL    HW1 3955   3.796   7.669   1.515  0.0567  0.1236 -0.0879
  838SOL    HW2 3956   3.926   7.660   1.438  0.1937  0.9605  0.0261
  839SOL     OW 3957   5.181   7.643   6.931 -0.2699  0.2203 -0.6282
  839SOL    HW1 3958   5.147   7.578   6.868  0.3712  0.3282 -1.0946
  839SOL    HW2 3959   5.188   7.724   6.880  0.2101  0.3210 -0.4039
  840SOL     OW 3960   0.773   2.290  10.285 -0.1604  0.0744  0.3803
  840SOL    HW1 3961   0.768   2.197  10.305 -1.3532  0.1659  0.5973
  840SOL    HW2 3962   0.753   2.334  10.368  0.8467  0.5370  0.3898
  841SOL     OW 3963   5.730   4.873   5.769  0.3759 -0.0128  0.0551
  841SOL    HW1 3964   5.677   4.893   5.846 -1.2936  0.7433 -1.2049
  841SOL    HW2 3965   5.820   4.891   5.795 -0.1002 -0.1883  1.9330
  842SOL     OW 3966   4.960   4.829  11.188  0.1845 -0.0468 -0.1554
  842SOL    HW1 3967   4.920   4.880  11.118 -0.2322 -0.1806 -0.0194
  842SOL    HW2 3968   4.992   4.749  11.145  0.3314  0.0732 -0.2699
  843SOL     OW 3969   0.637   0.432   3.488 -0.1909 -0.1831 -0.0197
  843SOL    HW1 3970   0.645   0.444   3.394 -0.1038  1.1766  0.1492
  843SOL    HW2 3971   0.543   0.429   3.505 -0.2064 -0.4061 -0.1435
  844SOL     OW 3972   0.411   1.525   0.306 -0.1828 -0.1566  0.5563
  844SOL    HW1 3973   0.381   1.449   0.256 -0.0815  0.7244 -0.8954
  844SOL    HW2 3974   0.360   1.598   0.270  1.0041  0.7510  0.6842
  845SOL     OW 3975   1.474   3.651   1.794 -0.2396 -0.0390  0.2216
  845SOL    HW1 3976   1.545   3.622   1.852  0.1756  1.0703  0.2872
  845SOL    HW2 3977   1.508   3.730   1.752 -1.0511 -0.0793 -0.5330
  846SOL     OW 3978   7.229   3.781   6.933  0.4743  0.2095 -0.3612
  846SOL    HW1 3979   7.141   3.792   6.896 -0.0031  2.1269  1.1654
  846SOL    HW2 3980   7.266   3.869   6.932  2.2698 -0.5126 -0.6314
  847SOL     OW 3981   1.898   6.106   3.323  0.2501 -0.6115 -0.1734
  847SOL    HW1 3982   1.942   6.192   3.321 -0.3344 -0.1571  2.5027
  847SOL    HW2 3983   1.963   6.046   3.287  0.8691  0.8447 -1.6540
  848SOL     OW 3984   7.486   6.362  11.820  0.2086  0.0088  0.3763
  848SOL    HW1 3985   7.432   6.439  11.839  0.5234 -0.1720  2.1747
  848SOL    HW2 3986   7.566   6.397  11.782 -0.5497  0.3814 -0.9501
  849SOL     OW 3987   2.472   2.540  10.753 -0.4526 -0.3941 -0.6212
  849SOL    HW1 3988   2.455   2.559  10.845  1.1494 -0.6095 -0.2503
  849SOL    HW2 3989   2.567   2.526  10.748 -0.0960  2.0554 -2.7410
  850SOL     OW 3990   4.117   5.437   7.196 -0.3286 -0.1630  0.3739
  850SOL    HW1 3991   4.147   5.389   7.119 -1.6032  1.0436 -0.9308
  850SOL    HW2 3992   4.185   5.503   7.211  1.0654 -1.7814  1.7432
  851SOL     OW 3993   5.462   7.814   4.116 -0.2375  0.1243  0.3938
  851SOL    HW1 3994   5.446   7.780   4.028 -0.0806 -0.5801  0.6319
  851SOL    HW2 3995   5.440   7.741   4.174 -2.2059  1.1722  1.0608
  852SOL     OW 3996   6.917   0.585   4.944  0.0668  0.3899 -0.2225
  852SOL    HW1 3997   7.009   0.584   4.915  0.0197 -0.1013 -0.3641
  852SOL    HW2 3998   6.920   0.619   5.033  0.3520  0.6906 -0.3427
  853SOL     OW 3999   4.006   1.545  10.753  0.9084  0.0741  0.4284
  853SOL    HW1 4000   3.921   1.507  10.777  0.7067 -0.9338 -1.6418
  853SOL    HW2 4001   3.983   1.627  10.708  0.7355 -1.5595 -2.7187
  854SOL     OW 4002   2.264   6.312   3.112 -0.0180 -0.1568  0.5058
  854SOL    HW1 4003   2.358   6.300   3.105 -0.1380 -0.3156 -1.1948
  854SOL    HW2 4004   2.245   6.390   3.059 -0.8472 -0.1434  0.8025
  855SOL     OW 4005   2.739   0.049   6.693  0.1576  0.2327  0.3279
  855SOL    HW1 4006   2.677  -0.002   6.641 -0.1191 -1.1348  1.9231
  855SOL    HW2 4007   2.684   0.111   6.741  0.2461  0.4089  0.2023
  856SOL     OW 4008   7.234   7.495   4.872  0.4746 -0.4934 -0.3142
  856SOL    HW1 4009   7.275   7.500   4.785  2.1791  2.2279  0.5370
  856SOL    HW2 4010   7.302   7.460   4.929 -0.0728 -0.6879  0.2248
  857SOL     OW 4011   4.810   7.207   5.473 -0.0502  0.4142 -0.0516
  857SOL    HW1 4012   4.820   7.185   5.566 -1.5834  0.1002  0.0630
  857SOL    HW2 4013   4.772   7.128   5.434  1.2997  0.2579 -1.1237
  858SOL     OW 4014   5.013   0.355   1.811 -0.0368 -0.0584 -0.1238
  858SOL    HW1 4015   5.082   0.289   1.814 -0.4250 -0.4465  0.6485
  858SOL    HW2 4016   4.982   0.362   1.902 -0.1322  1.0511 -0.2269
  859SOL     OW 4017   4.596   7.761   2.325 -0.0095  0.2827  0.0408
  859SOL    HW1 4018   4.532   7.690   2.322 -1.4868  1.5448  0.5354
  859SOL    HW2 4019   4.591   7.801   2.239 -0.0160  0.5102  0.1478
  860SOL     OW 4020   5.709   1.587  11.769 -0.8054 -0.3705  0.0658
  860SOL    HW1 4021   5.758   1.669  11.783  0.6980 -1.3871  1.1014
  860SOL    HW2 4022   5.688   1.588  11.675  0.9370  0.2946 -0.3739
  861SOL     OW 4023   3.604   2.076   1.017  0.1018  0.4546  0.1913
  861SOL    HW1 4024   3.594   2.120   0.933  0.4115 -1.1847 -0.7446
  861SOL    HW2 4025   3.568   1.988   1.003 -1.1753  0.5839  2.1899
  862SOL     OW 4026   1.166   1.703   9.912  0.1025 -0.3522  0.1336
  862SOL    HW1 4027   1.216   1.784   9.919 -0.0677 -0.3740  2.1897
  862SOL    HW2 4028   1.074   1.731   9.916 -0.0226 -0.4873 -1.4289
  863SOL     OW 4029   7.168   3.128   7.606  0.0007  0.3135  0.2493
  863SOL    HW1 4030   7.121   3.071   7.546 -0.3246  0.7458  0.0823
  863SOL    HW2 4031   7.137   3.102   7.693  0.7677 -0.5755  0.2613
  864SOL     OW 4032   0.922   1.585   7.254 -0.1896 -0.4087  0.1358
  864SOL    HW1 4033   0.873   1.562   7.333 -0.9618 -0.6548 -0.3937
  864SOL    HW2 4034   0.889   1.524   7.188  0.0039  0.1884 -0.5196
  865SOL     OW 4035   4.460   3.779   9.782 -0.4207  0.3748 -0.0581
  865SOL    HW1 4036   4.445   3.823   9.866 -1.2888 -0.2432  0.1251
  865SOL    HW2 4037   4.418   3.836   9.717 -2.0419 -0.4288  0.2428
  866SOL     OW 4038   6.673   6.904  10.322  0.0384  0.1401  0.3505
  866SOL    HW1 4039   6.713   6.989  10.304  0.5952 -0.0044  0.8659
  866SOL    HW2 4040   6.666   6.862  10.236 -0.6972  0.8951  0.0300
  867SOL     OW 4041   5.436   1.457   7.355  0.3083  1.0316  0.8678
  867SOL    HW1 4042   5.487   1.439   7.434  1.1492 -1.7426 -0.1938
  867SOL    HW2 4043   5.490   1.520   7.306  2.3548 -1.0697  0.2416
  868SOL     OW 4044   4.933   2.084   5.914 -0.5686  0.3822 -0.7653
  868SOL    HW1 4045   5.020   2.051   5.938 -0.1931  1.4613 -0.5901
  868SOL    HW2 4046   4.905   2.135   5.990 -2.0909 -1.2791 -0.1404
  869SOL     OW 4047   4.122   1.451   2.577 -0.0246  0.6683  0.0102
  869SOL    HW1 4048   4.075   1.534   2.572  1.2020  1.3276 -1.3190
  869SOL    HW2 4049   4.111   1.412   2.491  0.6343  0.1402  0.1587
  870SOL     OW 4050   7.334   5.647  11.150 -0.1460 -0.3870  0.6263
  870SOL    HW1 4051   7.302   5.557  11.154 -1.6465  0.0943  0.2762
  870SOL    HW2 4052   7.428   5.641  11.170 -0.4233 -1.9015  1.6366
  871SOL     OW 4053   5.210   3.662   1.569 -0.1011  0.7046  0.0751
  871SOL    HW1 4054   5.139   3.724   1.552  0.4246  0.8061 -2.1704
  871SOL    HW2 4055   5.276   3.713   1.615 -0.2333  1.4699 -0.5540
  872SOL     OW 4056   0.333   1.192   8.470  0.4888  0.7199  0.7674
  872SOL    HW1 4057   0.392   1.215   8.542 -2.6488  3.4504  2.7367
  872SOL    HW2 4058   0.337   1.097   8.466  3.7629  0.6784  1.7780
  873SOL     OW 4059   4.001   5.219  10.431  0.3495 -0.1694  0.0898
  873SOL    HW1 4060   3.968   5.254  10.513 -0.5000  0.7927 -0.6414
  873SOL    HW2 4061   3.981   5.125  10.435 -3.0197  0.4120 -0.5071
  874SOL     OW 4062   5.242   1.040   5.794 -0.7115  0.3063  0.0756
  874SOL    HW1 4063   5.159   0.994   5.800  1.1867 -3.4320  0.9464
  874SOL    HW2 4064   5.255   1.077   5.882 -1.7239  1.6189 -0.2927
  875SOL     OW 4065   3.341   5.022   2.535  0.2240 -0.4810  0.0588
  875SOL    HW1 4066   3.346   5.115   2.558 -1.0673  0.1060 -1.7888
  875SOL    HW2 4067   3.319   4.978   2.616  1.7358  0.7005  1.1722
  876SOL     OW 4068   4.189   1.836   2.738 -0.0420  0.3679  0.1567
  876SOL    HW1 4069   4.116   1.784   2.705  1.4709 -0.8220 -1.5147
  876SOL    HW2 4070   4.225   1.783   2.810  0.0832  0.2167 -0.0154
  877SOL     OW 4071   0.400   6.275   0.558 -0.5821  0.4451 -0.3582
  877SOL    HW1 4072   0.388   6.342   0.625  0.2034 -1.1183  1.4220
  877SOL    HW2 4073   0.485   6.296   0.519 -0.5312  0.7240 -0.1020
  878SOL     OW 4074   2.179   1.968   6.824  0.1084 -0.0853  0.6284
  878SOL    HW1 4075   2.120   1.914   6.771  0.0640 -2.4650  2.8880
  878SOL    HW2 4076   2.249   1.993   6.764 -0.3644 -1.8883 -0.7792
  879SOL     OW 4077   7.270   5.043  10.262  0.5913 -0.4566 -0.5910
  879SOL    HW1 4078   7.277   5.081  10.174  2.2894 -0.2492 -0.3915
  879SOL    HW2 4079   7.309   4.956  10.254 -2.1512 -1.7706 -0.7493
  880SOL     OW 4080   1.033   1.839   7.229 -0.1011 -0.2066 -0.3452
  880SOL    HW1 4081   0.973   1.770   7.257 -0.8835  0.1111 -1.2047
  880SOL    HW2 4082   0.977   1.911   7.200  0.6841  0.1883 -0.9460
  881SOL     OW 4083   4.773   1.994   1.674 -0.0509  0.1258 -0.1785
  881SOL    HW1 4084   4.801   2.076   1.715  2.5406 -0.0992 -1.3177
  881SOL    HW2 4085   4.719   1.951   1.740  0.1298  1.8755  1.1716
  882SOL     OW 4086   0.301   3.360   2.502 -0.8152 -0.8652  0.5565
  882SOL    HW1 4087   0.353   3.327   2.430 -0.8557  0.2269  0.0092
  882SOL    HW2 4088   0.365   3.386   2.568 -0.7256 -0.8128  0.4488
  883SOL     OW 4089   1.295   5.622   4.530 -0.3020  0.8570  0.0340
  883SOL    HW1 4090   1.277   5.647   4.439 -1.5867  0.8612  0.2634
  883SOL    HW2 4091   1.328   5.532   4.525 -0.4838  0.8149 -0.4256
  884SOL     OW 4092   1.610   5.436   9.931 -0.3022  0.1773  0.1409
  884SOL    HW1 4093   1.614   5.368   9.998  0.2163  0.0377 -0.0292
  884SOL    HW2 4094   1.534   5.412   9.877 -0.3966 -0.0061  0.3531
  885SOL     OW 4095   2.756   5.812   8.771 -0.3472  0.1655 -0.0402
  885SOL    HW1 4096   2.816   5.884   8.750 -1.0688  0.3600 -1.5911
  885SOL    HW2 4097   2.808   5.733   8.754  0.0637  0.3124  0.4903
  886SOL     OW 4098   0.404   1.639   1.122  0.4815 -0.2597 -0.0400
  886SOL    HW1 4099   0.396   1.646   1.027  0.8934 -2.3139 -0.2699
  886SOL    HW2 4100   0.498   1.634   1.138  0.3917 -2.8716  0.1368
  887SOL     OW 4101   7.238   5.859  11.040 -0.2004 -0.1775  0.1472
  887SOL    HW1 4102   7.271   5.779  11.079 -0.8323 -0.3654  0.3039
  887SOL    HW2 4103   7.147   5.865  11.070 -0.2945  0.3587 -0.2263
  888SOL     OW 4104   4.597   0.124   5.135 -0.5555 -0.4143  0.2932
  888SOL    HW1 4105   4.517   0.097   5.090 -0.3269  0.2382 -0.5229
  888SOL    HW2 4106   4.619   0.209   5.096  0.9015 -0.8855  0.0389
  889SOL     OW 4107   7.440   2.701  12.434  0.2515  0.4215 -0.0225
  889SOL    HW1 4108   7.460   2.768  12.500  1.0572  0.5456 -0.3828
  889SOL    HW2 4109   7.504   2.632  12.450 -1.1838 -0.7448  0.9783
  890SOL     OW 4110   0.206   3.220   3.265 -0.4196 -0.2560 -0.2745
  890SOL    HW1 4111   0.284   3.232   3.320 -0.9390  1.7450  0.1201
  890SOL    HW2 4112   0.233   3.253   3.179 -0.9908  1.1690  0.0522
  891SOL     OW 4113   5.443   6.053   2.833  0.5678  0.3109  0.0193
  891SOL    HW1 4114   5.511   6.015   2.889  1.7751  0.7037 -1.1212
  891SOL    HW2 4115   5.407   6.126   2.884  1.5229  0.5482  0.3780
  892SOL     OW 4116   2.696   2.630   7.457 -0.1093  0.0525  0.5051
  892SOL    HW1 4117   2.787   2.655   7.471  0.5514 -0.8896 -1.6548
  892SOL    HW2 4118   2.649   2.713   7.451  0.9953  0.6388 -0.4776
  893SOL     OW 4119   5.868   2.028   2.766  0.2950 -0.7151  0.2094
  893SOL    HW1 4120   5.861   2.041   2.671  3.2689  0.6175  0.0613
  893SOL    HW2 4121   5.836   2.110   2.804 -0.0136 -0.8882  0.3280
  894SOL     OW 4122   2.461   2.065   3.808 -0.1105 -0.1079 -0.0069
  894SOL    HW1 4123   2.446   2.144   3.757  0.9467  0.0893 -0.0326
  894SOL    HW2 4124   2.520   2.092   3.879 -0.4751 -0.6734  0.5311
  895SOL     OW 4125   3.453   3.781   0.883  0.3285 -0.0928 -0.4581
  895SOL    HW1 4126   3.517   3.769   0.954  0.4424  2.0672 -0.1350
  895SOL    HW2 4127   3.372   3.745   0.919  0.8516 -0.9556 -0.0776
  896SOL     OW 4128   0.827   1.435   0.030  0.1497  0.0412 -0.0090
  896SOL    HW1 4129   0.919   1.410   0.040  0.1285  0.4552  1.3651
  896SOL    HW2 4130   0.780   1.376   0.089 -0.3152  0.7565  0.3383
  897SOL     OW 4131   2.095   3.648   3.911  0.6684 -0.5797  0.2882
  897SOL    HW1 4132   2.097   3.667   3.817 -0.2133  1.7372  0.6676
  897SOL    HW2 4133   2.164   3.703   3.948 -1.0840  1.0427  1.3181
  898SOL     OW 4134   0.398   4.185   3.382  0.0948 -0.1824  0.4341
  898SOL    HW1 4135   0.364   4.167   3.294 -0.7573 -0.3613  0.7808
  898SOL    HW2 4136   0.320   4.179   3.439  0.4991  0.6693  1.0992
  899SOL     OW 4137   7.531   6.600   3.049  0.0386  0.0086 -0.3929
  899SOL    HW1 4138   7.554   6.532   3.112 -2.1728  0.6825  1.2655
  899SOL    HW2 4139   7.555   6.563   2.964  0.6868 -2.0125  0.6088
  900SOL     OW 4140   4.703   0.197   9.623 -0.1537  0.4570 -0.1110
  900SOL    HW1 4141   4.671   0.287   9.630  1.1503  0.9584 -0.3144
  900SOL    HW2 4142   4.797   0.206   9.608  0.0049 -0.9472 -0.1014
  901SOL     OW 4143   3.095   7.494   3.762  0.1936 -1.2562  0.2071
  901SOL    HW1 4144   3.097   7.476   3.668  0.1561  2.4898 -0.6605
  901SOL    HW2 4145   3.008   7.464   3.790 -0.6535 -0.4726 -1.4502
  902SOL     OW 4146   7.895   6.449   2.702  0.1131  0.5002  0.6598
  902SOL    HW1 4147   7.918   6.481   2.615 -1.0461  1.6007  0.7314
  902SOL    HW2 4148   7.814   6.400   2.689  1.0479 -1.1575  0.8068
  903SOL     OW 4149   2.820   4.646   9.919  0.7858 -0.8260 -0.1408
  903SOL    HW1 4150   2.756   4.586   9.882  0.9240 -0.8064 -0.4130
  903SOL    HW2 4151   2.795   4.732   9.887  0.7971 -0.7834 -0.0387
  904SOL     OW 4152   1.271   0.873   4.329  0.5854 -0.2044 -0.0325
  904SOL    HW1 4153   1.205   0.915   4.274  0.3424  0.2019  0.5627
  904SOL    HW2 4154   1.272   0.925   4.409  0.0847 -1.4867  0.8354
  905SOL     OW 4155   0.265   4.404   1.943 -0.0149  0.2215 -0.4516
  905SOL    HW1 4156   0.304   4.323   1.909  0.7111  0.8658 -1.2240
  905SOL    HW2 4157   0.254   4.459   1.865 -1.1440  0.6099 -0.0332
  906SOL     OW 4158   1.233   2.007   2.537 -0.6304  0.4549  0.2061
  906SOL    HW1 4159   1.201   2.093   2.566 -1.9920 -0.6840  2.2619
  906SOL    HW2 4160   1.155   1.959   2.510 -0.0519 -0.6004  0.3531
  907SOL     OW 4161   7.885   1.447   4.706 -0.2318 -0.5051 -0.4545
  907SOL    HW1 4162   7.944   1.373   4.692 -0.1182 -0.5286  0.1399
  907SOL    HW2 4163   7.862   1.476   4.617  0.7959 -0.4054 -0.7073
  908SOL     OW 4164   5.656   6.156   4.294 -0.2841 -0.2158 -0.2199
  908SOL    HW1 4165   5.593   6.225   4.316  0.3439  0.3629 -0.2077
  908SOL    HW2 4166   5.638   6.086   4.357 -1.0562 -0.1532 -0.3544
  909SOL     OW 4167   7.063   3.743   1.915 -0.1927 -0.0685  0.2037
  909SOL    HW1 4168   7.089   3.657   1.946  2.7771  0.1091 -1.4316
  909SOL    HW2 4169   7.012   3.780   1.987  0.7236 -2.1581  2.0375
  910SOL     OW 4170   7.896   7.933   6.713 -0.1842 -0.5054  0.1098
  910SOL    HW1 4171   7.804   7.943   6.737  0.0130  1.8955  0.1494
  910SOL    HW2 4172   7.943   7.942   6.796  0.1900  1.2938 -0.2613
  911SOL     OW 4173   3.125   6.362   7.239  0.3656  0.7589 -0.0618
  911SOL    HW1 4174   3.166   6.395   7.318 -4.1271  0.0046  2.9829
  911SOL    HW2 4175   3.134   6.266   7.245 -1.7672  0.5603  0.8033
  912SOL     OW 4176   1.942   0.480   4.797 -0.9654  0.1797  0.2963
  912SOL    HW1 4177   1.921   0.456   4.706 -0.1879  1.4659 -0.2529
  912SOL    HW2 4178   2.027   0.438   4.813 -0.2537  1.3645 -0.2048
  913SOL     OW 4179   7.761   4.208   5.432  0.0428 -0.1720 -0.3003
  913SOL    HW1 4180   7.719   4.148   5.370 -0.2171 -1.1813  0.8101
  913SOL    HW2 4181   7.691   4.232   5.493  0.8963 -1.4600  1.2670
  914SOL     OW 4182   2.764   6.078   4.216 -0.1094 -0.5056  0.6184
  914SOL    HW1 4183   2.771   6.021   4.140  1.0033  0.7789 -0.2898
  914SOL    HW2 4184   2.670   6.081   4.235 -0.6481  0.5522 -1.8509
  915SOL     OW 4185   1.211   7.369   5.258 -0.1091  0.2770 -0.6410
  915SOL    HW1 4186   1.223   7.277   5.234  0.4994  0.2572 -0.2844
  915SOL    HW2 4187   1.116   7.381   5.259 -0.2073 -0.4695 -0.2285
  916SOL     OW 4188   1.991   1.653   5.382  0.1963  0.3286 -0.0948
  916SOL    HW1 4189   1.931   1.727   5.378  1.2989  1.2221 -0.3147
  916SOL    HW2 4190   2.040   1.657   5.301  2.0001  0.8658  0.9690
  917SOL     OW 4191   4.066   4.309   3.167  0.3093 -0.5291 -0.0445
  917SOL    HW1 4192   3.993   4.371   3.169  1.0272  0.3503 -0.4948
  917SOL    HW2 4193   4.114   4.326   3.248  0.2347 -0.8437  0.0671
  918SOL     OW 4194   6.176   5.354   3.066  0.1652 -0.2808 -1.0188
  918SOL    HW1 4195   6.176   5.290   3.137  2.5040  0.5353 -0.1997
  918SOL    HW2 4196   6.149   5.436   3.108  1.3497  0.1579 -1.0862
  919SOL     OW 4197   1.730   2.817   3.067 -0.0022 -0.7216 -0.2291
  919SOL    HW1 4198   1.793   2.764   3.017  0.7974  0.1844 -0.2136
  919SOL    HW2 4199   1.781   2.891   3.098 -0.9801 -0.2150  0.2047
  920SOL     OW 4200   7.419   6.620   8.321 -0.2083  0.1070 -0.5330
  920SOL    HW1 4201   7.435   6.598   8.413 -1.1574 -2.2477 -0.8557
  920SOL    HW2 4202   7.330   6.589   8.304 -1.0466  2.8782 -1.6096
  921SOL     OW 4203   7.458   7.113   3.851 -0.0920  0.2244 -0.4902
  921SOL    HW1 4204   7.413   7.186   3.808 -1.1757  1.1946  2.0870
  921SOL    HW2 4205   7.547   7.117   3.817 -0.3674  2.1889 -1.1196
  922SOL     OW 4206   7.279   3.857  12.385  0.4303  0.3550 -0.4875
  922SOL    HW1 4207   7.220   3.794  12.345  1.5596  0.1523 -1.9243
  922SOL    HW2 4208   7.233   3.941  12.380  0.0825  0.1248 -1.2024
  923SOL     OW 4209   0.156   3.324   0.528 -0.1468  0.1858  0.1592
  923SOL    HW1 4210   0.085   3.387   0.517 -0.2769  0.0163  0.0182
  923SOL    HW2 4211   0.231   3.377   0.558 -0.8215  0.1180  2.0868
  924SOL     OW 4212   5.286   4.214   0.140 -0.1263 -0.5341  0.4091
  924SOL    HW1 4213   5.259   4.306   0.140 -0.3377 -0.5941  0.6024
  924SOL    HW2 4214   5.344   4.207   0.216  0.2409 -0.4593  0.1343
  925SOL     OW 4215   5.398   5.383   7.071 -0.4968 -0.0279 -0.1834
  925SOL    HW1 4216   5.416   5.326   7.146  0.1137 -1.3490 -1.3057
  925SOL    HW2 4217   5.337   5.448   7.106  1.3516  0.6619  2.0201
  926SOL     OW 4218   2.593   5.885   6.003  0.3152 -0.1970 -0.3329
  926SOL    HW1 4219   2.668   5.849   6.052  0.0622 -3.7076 -2.1655
  926SOL    HW2 4220   2.618   5.975   5.985  2.4107 -0.1043  2.2586
  927SOL     OW 4221   5.581   1.935   9.922  0.2743  0.1583  0.0725
  927SOL    HW1 4222   5.558   1.989   9.998 -0.6110 -1.4806  1.0140
  927SOL    HW2 4223   5.639   1.868   9.958  0.5950 -0.0974 -0.9045
  928SOL     OW 4224   3.316   4.811   9.871 -0.6359 -0.1301  0.5345
  928SOL    HW1 4225   3.241   4.809   9.811 -2.0555  2.1593  2.0827
  928SOL    HW2 4226   3.385   4.855   9.822 -2.2134  2.9918  0.8709
  929SOL     OW 4227   7.798   0.413   7.126  0.5645 -0.0553  0.4659
  929SOL    HW1 4228   7.757   0.403   7.212  1.2671  0.3219  0.8481
  929SOL    HW2 4229   7.883   0.371   7.135  1.1896  1.1471  0.3617
  930SOL     OW 4230   4.964   3.691   7.064  0.5928 -0.4627 -0.1648
  930SOL    HW1 4231   4.963   3.725   7.154  0.3716 -0.2641 -0.2426
  930SOL    HW2 4232   4.871   3.684   7.040  0.6441 -0.7780 -0.2787
  931SOL     OW 4233   3.466   6.203  11.183 -0.1749  0.3779  0.3682
  931SOL    HW1 4234   3.453   6.284  11.232 -2.6595  0.4144 -0.1852
  931SOL    HW2 4235   3.529   6.226  11.114  0.4214  1.3563  1.2195
  932SOL     OW 4236   3.997   2.850  10.944  0.0932 -0.5807 -0.1884
  932SOL    HW1 4237   4.080   2.817  10.910  1.1267  1.0543  0.5817
  932SOL    HW2 4238   3.930   2.804  10.893  1.4925 -0.4660 -2.2797
  933SOL     OW 4239   0.054   0.276   7.654 -0.5612  0.4491  0.1289
  933SOL    HW1 4240   0.144   0.262   7.624 -0.8525  1.3657 -1.2762
  933SOL    HW2 4241   0.054   0.366   7.686 -0.6960  0.0447  1.3327
  934SOL     OW 4242   7.040   7.637   8.302 -0.3140 -0.1300  0.3142
  934SOL    HW1 4243   7.014   7.556   8.346 -1.3929  0.8188  1.4828
  934SOL    HW2 4244   6.958   7.671   8.264  0.2260  0.1478 -0.6552
  935SOL     OW 4245   7.408   7.039   1.271  0.0506 -0.1022  0.6429
  935SOL    HW1 4246   7.465   7.063   1.198 -2.1252  0.3423 -1.0288
  935SOL    HW2 4247   7.423   6.946   1.284  0.7989 -0.0913 -0.0693
  936SOL     OW 4248   0.556   2.785   1.895 -0.4246  0.2777 -0.0721
  936SOL    HW1 4249   0.580   2.734   1.972 -1.3536  1.8924  1.3433
  936SOL    HW2 4250   0.483   2.736   1.856 -0.5213 -0.0908  0.5614
  937SOL     OW 4251   5.461   6.504   4.047 -0.2669  0.1169  0.2409
  937SOL    HW1 4252   5.394   6.569   4.028 -0.7123 -0.3880  0.0737
  937SOL    HW2 4253   5.477   6.461   3.964 -2.5045 -2.3762  0.9791
  938SOL     OW 4254   1.337   1.190   5.167  0.0620  0.3102  0.3065
  938SOL    HW1 4255   1.319   1.281   5.191 -1.2242  0.3266 -0.6090
  938SOL    HW2 4256   1.314   1.139   5.245  0.0134  0.6932  0.5444
  939SOL     OW 4257   3.021   6.621  11.708 -0.0026  0.3882  0.6662
  939SOL    HW1 4258   3.102   6.645  11.753 -0.0357 -0.2196  1.0500
  939SOL    HW2 4259   3.022   6.674  11.628  1.7213 -1.0214 -0.3147
  940SOL     OW 4260   3.938   2.739   0.564  0.0254 -0.7103 -0.1341
  940SOL    HW1 4261   4.009   2.800   0.584  1.5988 -2.4135 -0.2891
  940SOL    HW2 4262   3.916   2.758   0.472  0.6736 -0.5358 -0.2611
  941SOL     OW 4263   0.676   4.191   2.824 -0.0871  0.5214  0.2643
  941SOL    HW1 4264   0.609   4.159   2.884 -1.0024 -0.1162 -1.0630
  941SOL    HW2 4265   0.641   4.274   2.792  0.4838  0.9491  0.7057
  942SOL     OW 4266   5.052   4.247   4.452 -0.2974 -0.0258 -0.3295
  942SOL    HW1 4267   5.056   4.341   4.473 -1.8310 -0.4562  2.3313
  942SOL    HW2 4268   5.008   4.243   4.367 -0.6758  1.6218 -0.2481
  943SOL     OW 4269   1.861   2.666  10.061  0.5063 -0.1236 -0.1099
  943SOL    HW1 4270   1.802   2.604  10.104 -1.8167  1.4586 -0.7562
  943SOL    HW2 4271   1.904   2.712  10.132 -1.1482  0.5183  0.5395
  944SOL     OW 4272   1.528   0.087  11.167 -0.0800  0.3711  0.4045
  944SOL    HW1 4273   1.463   0.156  11.155  0.0850  0.5063  0.2668
  944SOL    HW2 4274   1.501   0.040  11.245 -0.3323  0.4381  0.3572
  945SOL     OW 4275   1.023   5.039   1.018  0.1180  0.0246 -0.5050
  945SOL    HW1 4276   1.066   4.955   1.004 -1.7234 -1.2324  0.9858
  945SOL    HW2 4277   1.072   5.080   1.089 -0.9545 -1.3361  1.0923
  946SOL     OW 4278   1.290   2.363  11.760  0.1315  0.2011 -0.3731
  946SOL    HW1 4279   1.360   2.420  11.730 -0.2471  0.4980 -0.7018
  946SOL    HW2 4280   1.326   2.274  11.753  0.0947  0.2712 -1.5838
  947SOL     OW 4281   7.010   2.728   2.075 -0.2103 -0.0373  0.2785
  947SOL    HW1 4282   7.010   2.668   2.149  3.2004  1.2569  1.5382
  947SOL    HW2 4283   6.958   2.683   2.008 -2.1815 -1.9426  2.8677
  948SOL     OW 4284   6.597   5.509   2.522 -0.0286  0.2128 -0.5318
  948SOL    HW1 4285   6.589   5.531   2.615  2.1566  0.0571 -0.2455
  948SOL    HW2 4286   6.656   5.576   2.486  1.2377 -1.1773 -1.1743
  949SOL     OW 4287   5.753   4.884   2.835 -0.2725  0.1012 -0.0226
  949SOL    HW1 4288   5.807   4.958   2.807  0.2724  0.1607  1.1429
  949SOL    HW2 4289   5.809   4.807   2.823 -1.2129 -0.3105 -2.3029
  950SOL     OW 4290   3.221   7.333   7.252 -0.0665 -0.1376 -0.2756
  950SOL    HW1 4291   3.311   7.321   7.282 -0.6004 -1.6495  0.8803
  950SOL    HW2 4292   3.227   7.336   7.157  1.1820 -0.5451 -0.2219
  951SOL     OW 4293   7.761   0.721   8.228  0.4126 -0.1559  0.0272
  951SOL    HW1 4294   7.721   0.799   8.267  1.5182  1.4687 -1.8808
  951SOL    HW2 4295   7.686   0.670   8.197 -0.3122  0.7754  0.1827
  952SOL     OW 4296   4.330   4.971   0.618  0.2864 -0.2825  0.4213
  952SOL    HW1 4297   4.422   4.980   0.645  0.8251  0.7851 -1.5437
  952SOL    HW2 4298   4.317   5.042   0.555 -1.0708 -2.0222 -1.3915
  953SOL     OW 4299   2.578   1.993   5.502  0.0860 -0.4230 -0.6418
  953SOL    HW1 4300   2.635   2.028   5.572  0.3064 -0.4193 -0.8210
  953SOL    HW2 4301   2.634   1.993   5.424 -0.1854 -0.3525 -0.8362
  954SOL     OW 4302   6.608   6.096  12.431  0.3621  0.0447 -0.5444
  954SOL    HW1 4303   6.548   6.155  12.385 -1.2250 -1.1147 -0.0838
  954SOL    HW2 4304   6.554   6.019  12.451  1.9898 -0.9872  0.0595
  955SOL     OW 4305   7.860   0.632   1.217 -0.4778  0.1768  0.5274
  955SOL    HW1 4306   7.773   0.594   1.229 -1.1391  2.0536  2.2832
  955SOL    HW2 4307   7.842   0.719   1.182  0.9384 -0.5965 -2.4579
  956SOL     OW 4308   7.239   0.503   5.382  0.1550  0.3560 -0.2049
  956SOL    HW1 4309   7.244   0.593   5.351 -2.9019 -0.0495 -2.2825
  956SOL    HW2 4310   7.225   0.511   5.476 -0.5940  2.0924 -0.4167
  957SOL     OW 4311   4.248   6.904  11.876  0.3057 -0.0249 -0.0096
  957SOL    HW1 4312   4.303   6.962  11.929 -1.1354  0.1957  1.3263
  957SOL    HW2 4313   4.208   6.845  11.940 -2.4255  1.0102 -0.6178
  958SOL     OW 4314   1.042   6.280   4.232 -0.5696 -0.5749  0.6294
  958SOL    HW1 4315   1.090   6.214   4.283  0.6667 -0.4045 -0.2611
  958SOL    HW2 4316   0.957   6.240   4.214  0.9928 -3.0962 -2.0404
  959SOL     OW 4317   7.303   0.295   3.963  0.0624 -0.0378 -0.1014
  959SOL    HW1 4318   7.277   0.263   4.049 -2.1300  1.8745  0.0233
  959SOL    HW2 4319   7.269   0.384   3.959  3.2917  1.2990 -1.5695
  960SOL     OW 4320   2.791   7.643   7.081 -0.6865 -0.2178  0.4493
  960SOL    HW1 4321   2.851   7.703   7.127 -0.4981  0.8109 -1.0689
  960SOL    HW2 4322   2.781   7.569   7.141 -0.4197  1.0322  2.1228
  961SOL     OW 4323   6.317   6.348   8.030  0.1506 -0.1342 -0.2111
  961SOL    HW1 4324   6.250   6.375   8.093 -0.6152 -0.2445 -0.9568
  961SOL    HW2 4325   6.395   6.333   8.083  0.5665  3.1832  0.2903
  962SOL     OW 4326   2.137   2.130   1.929  0.2524  0.1671 -0.1361
  962SOL    HW1 4327   2.052   2.149   1.968  0.0394  0.3952 -0.7073
  962SOL    HW2 4328   2.200   2.142   2.000 -0.1039  0.8324  0.0651
  963SOL     OW 4329   6.630   6.215   9.015  0.1815 -0.3703  0.5657
  963SOL    HW1 4330   6.577   6.182   9.087 -1.4106 -1.5676 -1.0505
  963SOL    HW2 4331   6.664   6.136   8.972  0.1021  0.2371 -0.6774
  964SOL     OW 4332   7.132   6.371   5.387  0.3243 -0.0239 -0.0018
  964SOL    HW1 4333   7.071   6.441   5.364  0.2983 -0.0333  0.0386
  964SOL    HW2 4334   7.189   6.409   5.454  0.1567 -0.1188  0.1930
  965SOL     OW 4335   2.737   6.685   1.089 -0.7519  0.4262  0.0004
  965SOL    HW1 4336   2.657   6.733   1.108 -1.2152 -0.1583 -0.4554
  965SOL    HW2 4337   2.737   6.613   1.152 -0.2197  0.8251  0.4696
  966SOL     OW 4338   0.700   5.060   7.134  0.0535  0.3199  0.2536
  966SOL    HW1 4339   0.713   5.142   7.086  0.9706 -0.0522 -0.1581
  966SOL    HW2 4340   0.671   5.088   7.221 -1.7233  1.0081 -0.5007
  967SOL     OW 4341   1.694   7.539   9.418  0.4860 -0.4318 -0.4377
  967SOL    HW1 4342   1.734   7.552   9.504  2.3742 -0.0108 -1.3413
  967SOL    HW2 4343   1.673   7.445   9.415 -0.5757 -0.2737  0.8438
  968SOL     OW 4344   5.014   5.237   4.722  0.4103  0.3453 -0.0285
  968SOL    HW1 4345   5.057   5.155   4.747 -1.4273 -1.1738 -1.5388
  968SOL    HW2 4346   4.991   5.225   4.630 -0.6296  2.2437 -0.0717
  969SOL     OW 4347   2.073   3.093   4.402  0.3979 -0.1365 -0.1284
  969SOL    HW1 4348   2.148   3.054   4.358  0.1408  1.6824 -2.3585
  969SOL    HW2 4349   2.107   3.122   4.487  2.5670  1.6095 -1.4865
  970SOL     OW 4350   7.664   2.820  10.030 -0.0785 -0.2832  0.6451
  970SOL    HW1 4351   7.643   2.737  10.072 -1.2626 -0.8897 -1.0239
  970SOL    HW2 4352   7.608   2.884  10.073 -1.6007 -0.9686 -0.2610
  971SOL     OW 4353   1.778   7.154   1.396  0.2053 -0.3072 -0.0652
  971SOL    HW1 4354   1.725   7.204   1.459  0.4045  2.2630 -1.7541
  971SOL    HW2 4355   1.735   7.170   1.312  2.1988 -0.2739 -1.1279
  972SOL     OW 4356   7.855   4.649  11.616 -0.1570 -0.3790  0.1466
  972SOL    HW1 4357   7.869   4.557  11.636  2.7562  0.1741  1.1027
  972SOL    HW2 4358   7.912   4.667  11.541 -3.1250  0.0250 -2.2339
  973SOL     OW 4359   6.779   3.596   9.570 -0.4047  0.6205 -0.1889
  973SOL    HW1 4360   6.772   3.686   9.602  0.3198  0.6459 -0.0725
  973SOL    HW2 4361   6.870   3.571   9.589 -0.2299  0.3011 -1.3618
  974SOL     OW 4362   6.106   1.633   1.028 -0.3110  0.5181 -0.4412
  974SOL    HW1 4363   6.187   1.657   0.984 -0.2345 -0.9768 -1.1603
  974SOL    HW2 4364   6.040   1.628   0.959 -0.3749 -1.0332 -0.3030
  975SOL     OW 4365   3.932   6.413   6.802 -0.3154 -0.1275  0.1273
  975SOL    HW1 4366   3.963   6.458   6.723 -1.3664  0.1053 -0.1659
  975SOL    HW2 4367   3.988   6.446   6.872  0.6970 -0.4120 -0.5294
  976SOL     OW 4368   7.432   5.201   3.745  0.4041  0.1746 -0.0608
  976SOL    HW1 4369   7.483   5.237   3.673  1.2168 -1.3466 -0.2859
  976SOL    HW2 4370   7.353   5.165   3.702 -0.3136  1.4658  0.1396
  977SOL     OW 4371   7.549   2.865   0.161 -0.0086  0.1936 -0.7414
  977SOL    HW1 4372   7.565   2.823   0.245  0.1870  0.6490 -0.5484
  977SOL    HW2 4373   7.564   2.958   0.177  2.1485  0.1041 -1.7530
  978SOL     OW 4374   3.089   1.396  11.093 -0.0507 -0.4684  0.0606
  978SOL    HW1 4375   3.083   1.315  11.043  1.2315 -1.8146  1.9565
  978SOL    HW2 4376   3.165   1.441  11.057  0.6708 -1.2704  0.5632
  979SOL     OW 4377   2.166   5.391  10.870  0.6507  0.2369  0.0669
  979SOL    HW1 4378   2.093   5.451  10.884  0.2816  0.2445 -1.5858
  979SOL    HW2 4379   2.231   5.416  10.936 -0.7903  0.2673  1.5363
  980SOL     OW 4380   7.733   4.728   9.198  0.1362  0.6482  0.2615
  980SOL    HW1 4381   7.775   4.757   9.278 -0.7061  1.9026  0.2788
  980SOL    HW2 4382   7.774   4.780   9.129  1.7582 -1.3050 -0.3435
  981SOL     OW 4383   4.318   5.760  10.780  0.1781 -0.2115  0.1631
  981SOL    HW1 4384   4.268   5.750  10.861  1.8597  0.1461  1.2959
  981SOL    HW2 4385   4.333   5.670  10.750 -1.8962 -0.3137 -0.7392
  982SOL     OW 4386   0.223   7.909   6.869 -1.0303 -0.3771  0.1694
  982SOL    HW1 4387   0.176   7.842   6.919  0.3376 -3.2491 -2.0824
  982SOL    HW2 4388   0.309   7.870   6.853 -0.2627  1.8171 -1.5226
  983SOL     OW 4389   5.208   3.346   7.586  0.2012 -0.9145  0.4025
  983SOL    HW1 4390   5.236   3.402   7.659 -1.0371  0.2323  0.0330
  983SOL    HW2 4391   5.113   3.337   7.598 -0.1805  0.0043 -1.5118
  984SOL     OW 4392   1.786   7.809   2.590  0.1998 -0.3954 -0.1534
  984SOL    HW1 4393   1.777   7.902   2.612  1.2012 -0.6487  1.5095
  984SOL    HW2 4394   1.876   7.800   2.559  0.1431 -0.8367 -0.1954
  985SOL     OW 4395   0.400   6.474  11.282  0.3463 -0.6786 -0.1032
  985SOL    HW1 4396   0.305   6.474  11.269  0.3668 -1.6698 -0.3178
  985SOL    HW2 4397   0.411   6.458  11.375  0.2962  0.7470  0.1724
  986SOL     OW 4398   6.093   4.077  11.374 -0.2882  0.0571 -0.1619
  986SOL    HW1 4399   6.013   4.047  11.418  1.6098 -3.2273  1.4426
  986SOL    HW2 4400   6.108   4.012  11.305  0.6776  1.0024 -0.8719
  987SOL     OW 4401   6.299   7.777   0.214 -0.0692 -0.6733  0.4676
  987SOL    HW1 4402   6.340   7.744   0.134  0.0882  1.6793 -0.5094
  987SOL    HW2 4403   6.205   7.769   0.197 -0.0511 -1.9767  0.8854
  988SOL     OW 4404   2.551   4.656   8.490 -0.3376  0.3410 -0.3540
  988SOL    HW1 4405   2.532   4.582   8.433  0.2493 -0.4286  0.4158
  988SOL    HW2 4406   2.516   4.732   8.444 -2.1914 -0.5755 -0.5215
  989SOL     OW 4407   3.241   4.384  10.281 -0.5543  0.2890 -0.6926
  989SOL    HW1 4408   3.154   4.423  10.268 -0.3331  0.3150 -2.2527
  989SOL    HW2 4409   3.282   4.387  10.195  1.2127  0.7398  0.1211
  990SOL     OW 4410   4.788   5.705   6.980  0.0837  0.7173  0.2830
  990SOL    HW1 4411   4.706   5.745   7.010 -0.1801  0.5729 -0.2228
  990SOL    HW2 4412   4.771   5.682   6.888  0.7367  0.8113  0.1318
  991SOL     OW 4413   2.473   3.063   9.174  0.2544  0.4036 -0.7422
  991SOL    HW1 4414   2.391   3.033   9.215  0.7816  0.1872  0.1890
  991SOL    HW2 4415   2.511   3.123   9.238  0.9127  0.3552 -1.0843
  992SOL     OW 4416   6.845   0.487   2.813  0.1397 -0.1105 -0.1599
  992SOL    HW1 4417   6.823   0.491   2.906 -1.8317 -2.0609 -0.4420
  992SOL    HW2 4418   6.927   0.437   2.809  0.8350  0.9372  0.5495
  993SOL     OW 4419   4.939   2.922   7.312 -0.0107 -0.0742 -0.1163
  993SOL    HW1 4420   4.987   2.861   7.368  2.0250 -0.2655 -1.8965
  993SOL    HW2 4421   4.986   3.005   7.322  0.7502 -0.2411 -1.8305
  994SOL     OW 4422   3.118   5.932   3.285 -0.2018 -0.2184 -0.1540
  994SOL    HW1 4423   3.193   5.963   3.337 -1.3842  2.0750  0.3423
  994SOL    HW2 4424   3.150   5.932   3.195  0.3274  1.1012  0.0071
  995SOL     OW 4425   1.659   0.887   8.520  0.4210  0.5962  0.7881
  995SOL    HW1 4426   1.649   0.959   8.583  0.8481 -0.5589  2.2444
  995SOL    HW2 4427   1.672   0.810   8.575  4.4842  0.0074 -0.6479
  996SOL     OW 4428   5.662   2.905   6.807  0.7142 -0.1652 -0.5885
  996SOL    HW1 4429   5.737   2.950   6.845  1.6911 -1.6993 -0.6210
  996SOL    HW2 4430   5.590   2.967   6.816  1.0009 -0.1683  3.1667
  997SOL     OW 4431   7.042   7.713   5.936  0.0355  0.5829 -0.4384
  997SOL    HW1 4432   6.978   7.752   5.995  0.6001  2.2206 -0.8434
  997SOL    HW2 4433   6.994   7.700   5.854 -0.4753 -0.7269  0.0571
  998SOL     OW 4434   1.349   1.780   9.549  0.2688  0.3676 -0.0014
  998SOL    HW1 4435   1.384   1.762   9.461  1.0185 -1.1783  0.5803
  998SOL    HW2 4436   1.368   1.701   9.599  1.1321  1.7454  1.9690
  999SOL     OW 4437   2.341   6.204   1.070  0.5285  0.4355  0.5206
  999SOL    HW1 4438   2.288   6.260   1.127  0.5411  1.0774 -0.0882
  999SOL    HW2 4439   2.279   6.139   1.036  0.0830  1.2881 -0.3284
 1000SOL     OW 4440   7.311   5.880   6.138 -0.0757  0.3534 -0.5709
 1000SOL    HW1 4441   7.306   5.860   6.232 -0.0862  1.0849 -0.4102
 1000SOL    HW2 4442   7.280   5.800   6.095 -0.2594  0.0813  0.0557
 1001SOL     OW 4443   7.524   1.525   0.272  0.7511 -0.3783  0.0542
 1001SOL    HW1 4444   7.437   1.486   0.274  0.6609 -0.2498 -1.0325
 1001SOL    HW2 4445   7.584   1.451   0.278  0.6224 -0.9986 -3.9163
 1002SOL     OW 4446   7.006   0.600   7.956 -0.2061  0.1634  0.3496
 1002SOL    HW1 4447   6.917   0.595   7.989 -1.0137 -0.7357 -1.7820
 1002SOL    HW2 4448   7.051   0.526   7.997 -1.1205 -0.7960 -0.3189
 1003SOL     OW 4449   3.562   2.944   8.821  0.4013 -0.2345  0.2620
 1003SOL    HW1 4450   3.592   3.028   8.856  0.4859 -0.3499  0.4720
 1003SOL    HW2 4451   3.469   2.958   8.801 -0.1369 -0.6586  2.1953
 1004SOL     OW 4452   0.821   0.900   4.151 -1.0166 -0.6745  0.1991
 1004SOL    HW1 4453   0.795   0.976   4.097 -0.3174 -0.0888  0.6679
 1004SOL    HW2 4454   0.753   0.895   4.219 -1.8372 -1.3421 -0.6426
 1005SOL     OW 4455   4.458   0.183   7.963 -0.1620  0.0617 -0.9193
 1005SOL    HW1 4456   4.527   0.143   8.015  0.5188  1.8136 -0.4180
 1005SOL    HW2 4457   4.377   0.165   8.011  0.2469  0.1253 -0.2049
 1006SOL     OW 4458   3.605   6.573  10.943 -0.2829  0.5208  0.1439
 1006SOL    HW1 4459   3.592   6.643  10.880  1.8479 -1.2940 -2.5533
 1006SOL    HW2 4460   3.670   6.607  11.005  0.7027  0.9695 -1.1012
 1007SOL     OW 4461   4.562   5.986   5.690  0.2552  0.1867  0.4873
 1007SOL    HW1 4462   4.504   5.995   5.765 -2.8972 -0.0232 -1.7140
 1007SOL    HW2 4463   4.647   6.016   5.721 -1.6140  3.2383  3.2153
 1008SOL     OW 4464   3.033   4.686  10.072  0.4169  0.5674 -0.0846
 1008SOL    HW1 4465   3.100   4.632  10.029  1.1462  1.5151 -0.1810
 1008SOL    HW2 4466   2.957   4.681  10.014 -0.0178 -1.4471  0.5992
 1009SOL     OW 4467   5.931   3.833  10.378  0.2184 -0.2561 -0.1519
 1009SOL    HW1 4468   5.875   3.781  10.436 -0.5803 -0.5520 -1.1640
 1009SOL    HW2 4469   5.878   3.910  10.356  1.6205  1.4293  1.8607
 1010SOL     OW 4470   3.571   3.854  10.250  0.0680  0.4118 -0.1467
 1010SOL    HW1 4471   3.572   3.764  10.216 -1.3128  0.5489 -0.5950
 1010SOL    HW2 4472   3.553   3.844  10.344  1.1964  0.1681  0.0534
 1011SOL     OW 4473   4.499   7.653  11.296 -0.3719  0.8460 -0.0849
 1011SOL    HW1 4474   4.557   7.725  11.320  1.3349 -1.0512  1.9751
 1011SOL    HW2 4475   4.555   7.594  11.245 -0.8443 -0.3551  0.7415
 1012SOL     OW 4476   1.359   5.849   2.115 -0.2097  0.6019 -0.0848
 1012SOL    HW1 4477   1.386   5.758   2.115 -0.1731  0.5605 -1.8826
 1012SOL    HW2 4478   1.431   5.896   2.073  0.1637  1.6235  1.5948
 1013SOL     OW 4479   7.459   6.820  10.963  0.3149 -0.1993  0.1692
 1013SOL    HW1 4480   7.461   6.784  11.051  0.1920 -1.3915 -0.2873
 1013SOL    HW2 4481   7.434   6.745  10.908  1.9533  0.1080 -1.0624
 1014SOL     OW 4482   1.466   0.253   7.200  0.0947 -0.7603  0.2928
 1014SOL    HW1 4483   1.416   0.326   7.164  0.6454 -0.6070 -0.1855
 1014SOL    HW2 4484   1.476   0.192   7.126  2.7314  0.3393 -0.3754
 1015SOL     OW 4485   2.792   0.842   9.854 -1.0436 -0.4742  0.0040
 1015SOL    HW1 4486   2.812   0.881   9.769 -0.8577 -0.9276 -0.1638
 1015SOL    HW2 4487   2.826   0.753   9.848 -2.2546 -0.9570  0.0673
 1016SOL     OW 4488   6.078   6.119   8.368 -0.6014 -0.5842  0.0996
 1016SOL    HW1 4489   6.114   6.061   8.435  1.4426  0.2118 -0.2252
 1016SOL    HW2 4490   6.081   6.068   8.287  0.0867 -0.4467  0.0307
 1017SOL     OW 4491   3.253   6.776   9.312 -0.7262  0.3812 -0.3937
 1017SOL    HW1 4492   3.205   6.774   9.395 -2.8109 -0.5045 -1.5657
 1017SOL    HW2 4493   3.230   6.860   9.273 -1.3815 -0.0697 -0.9863
 1018SOL     OW 4494   5.994   3.380  12.462  0.4360 -0.1167 -0.0613
 1018SOL    HW1 4495   6.019   3.345  12.547  0.7470 -0.9254 -0.4767
 1018SOL    HW2 4496   5.946   3.309  12.419  1.8693 -0.4109 -1.2819
 1019SOL     OW 4497   6.720   6.750  12.353  0.3244 -0.0103  0.2990
 1019SOL    HW1 4498   6.706   6.838  12.388 -3.4837 -0.0585 -0.6498
 1019SOL    HW2 4499   6.671   6.692  12.412  0.9156 -1.2076 -0.3347
 1020SOL     OW 4500   5.953   1.345   3.883  0.5295 -0.1352 -0.5485
 1020SOL    HW1 4501   5.931   1.405   3.812 -0.1786 -0.1366 -0.3346
 1020SOL    HW2 4502   6.020   1.392   3.934  0.1646  0.3714 -0.5258
 1021SOL     OW 4503   3.062   0.436  11.442 -1.0494 -0.0770 -0.8017
 1021SOL    HW1 4504   3.093   0.500  11.505  0.5530 -1.1747 -0.3978
 1021SOL    HW2 4505   3.115   0.452  11.363 -2.6028  0.8835 -1.6889
 1022SOL     OW 4506   5.178   2.060  11.143 -0.5422  0.4609 -0.0715
 1022SOL    HW1 4507   5.251   2.121  11.128  0.8229 -0.6811  1.4846
 1022SOL    HW2 4508   5.139   2.089  11.225  0.3901 -0.9208  0.9120
 1023SOL     OW 4509   2.386   0.469   1.744  0.3837  0.4233  0.2451
 1023SOL    HW1 4510   2.296   0.479   1.715  0.4168  0.0686  0.0103
 1023SOL    HW2 4511   2.401   0.374   1.744  0.6702  0.4650  0.5431
 1024SOL     OW 4512   6.105   0.352   4.382 -0.4038  1.1240 -0.5210
 1024SOL    HW1 4513   6.049   0.276   4.397  1.6410 -0.2237  0.9092
 1024SOL    HW2 4514   6.093   0.372   4.289 -0.6357 -1.3195 -1.1090
 1025SOL     OW 4515   1.056   1.950  12.376  0.5940  0.4196  0.1943
 1025SOL    HW1 4516   1.139   1.940  12.328  0.3639 -2.5188  0.2252
 1025SOL    HW2 4517   1.003   2.008  12.321  2.2796  1.6002 -0.2823
 1026SOL     OW 4518   2.173   3.232   4.930  0.5475 -0.2177  0.4631
 1026SOL    HW1 4519   2.154   3.313   4.978 -0.0487 -2.2082  3.9178
 1026SOL    HW2 4520   2.268   3.222   4.936  0.3379 -1.3247  2.9948
 1027SOL     OW 4521   6.852   1.187   2.522  0.3588 -0.1697  0.4033
 1027SOL    HW1 4522   6.790   1.259   2.504 -0.9490 -0.6940  2.4675
 1027SOL    HW2 4523   6.812   1.111   2.480 -0.8297 -0.6436  2.2654
 1028SOL     OW 4524   5.783   2.494  10.425  0.0099  0.5630  0.3508
 1028SOL    HW1 4525   5.708   2.547  10.398 -0.2027  0.1119  0.0705
 1028SOL    HW2 4526   5.763   2.405  10.397  0.3879  0.3309  0.7888
 1029SOL     OW 4527   4.565   5.998   2.239  0.4459 -0.0095  0.2216
 1029SOL    HW1 4528   4.491   5.954   2.197  1.2485 -3.4066  1.9738
 1029SOL    HW2 4529   4.528   6.034   2.320 -0.0544  2.0711 -0.8647
 1030SOL     OW 4530   4.686   5.948   8.722  0.1261  0.3225 -0.1765
 1030SOL    HW1 4531   4.702   5.905   8.638  0.2652 -0.6725  0.3389
 1030SOL    HW2 4532   4.707   6.040   8.707  0.2228  0.1402 -1.2073
 1031SOL     OW 4533   6.608   5.407  10.112  0.0649 -0.0540 -0.4861
 1031SOL    HW1 4534   6.690   5.427  10.067 -0.9718  2.5468 -1.4591
 1031SOL    HW2 4535   6.549   5.376  10.043  0.3410 -2.5957  0.3172
 1032SOL     OW 4536   3.828   7.128   2.578 -0.4093  0.4892  0.0511
 1032SOL    HW1 4537   3.739   7.121   2.611  0.0667 -1.2892  1.0669
 1032SOL    HW2 4538   3.826   7.088   2.491 -0.6192  0.5739  0.0174
 1033SOL     OW 4539   7.637   7.691   1.997 -0.2385  0.1601 -0.3606
 1033SOL    HW1 4540   7.724   7.653   1.979 -0.7645 -0.2160 -2.3447
 1033SOL    HW2 4541   7.581   7.616   2.015 -0.7388  0.1205 -1.8898
 1034SOL     OW 4542   4.123   1.326   9.897  0.1390  0.1371  0.3716
 1034SOL    HW1 4543   4.167   1.242   9.910  0.7448  0.4857  0.5974
 1034SOL    HW2 4544   4.194   1.391   9.897 -0.1654  0.5020 -1.3052
 1035SOL     OW 4545   2.612   5.623   4.858  0.1349 -0.0183  0.4868
 1035SOL    HW1 4546   2.561   5.587   4.785  1.1912 -0.1613 -0.1944
 1035SOL    HW2 4547   2.570   5.587   4.937 -1.4285  0.6624  0.0075
 1036SOL     OW 4548   3.441   7.727  11.634 -0.3256  0.2974  0.6338
 1036SOL    HW1 4549   3.516   7.782  11.613  0.3146 -0.1571  1.6840
 1036SOL    HW2 4550   3.479   7.644  11.664 -1.2555 -0.5517 -0.4074
 1037SOL     OW 4551   7.179   2.978   0.735 -0.0808 -0.4461 -0.2380
 1037SOL    HW1 4552   7.122   2.981   0.657  1.2484 -0.1291 -1.2382
 1037SOL    HW2 4553   7.262   3.015   0.705  0.1636  0.6308  1.6252
 1038SOL     OW 4554   3.955   7.830   3.974  0.4855  0.2562 -0.0712
 1038SOL    HW1 4555   3.872   7.791   3.945  0.4722 -0.3482  0.7241
 1038SOL    HW2 4556   3.937   7.924   3.979  0.3488  0.3221 -1.4836
 1039SOL     OW 4557   4.340   6.695   2.803  0.0895 -0.2452  0.4354
 1039SOL    HW1 4558   4.351   6.757   2.875  0.3804  1.1256 -0.7424
 1039SOL    HW2 4559   4.428   6.663   2.785  0.2286  0.4344 -0.1567
 1040SOL     OW 4560   2.081   0.483   2.507  0.1882  0.2712 -0.0116
 1040SOL    HW1 4561   2.117   0.516   2.589  1.3898  0.6691 -0.6728
 1040SOL    HW2 4562   1.999   0.531   2.496  0.4434  0.8458  0.5319
 1041SOL     OW 4563   3.225   0.594  11.600 -0.1164  0.1848  0.1182
 1041SOL    HW1 4564   3.224   0.655  11.526 -1.0426  0.8429  0.6628
 1041SOL    HW2 4565   3.200   0.647  11.676 -1.4849 -0.9708  0.5219
 1042SOL     OW 4566   0.309   6.114  11.784  0.1950  0.2853 -0.0837
 1042SOL    HW1 4567   0.274   6.073  11.705  0.3662  0.8133 -0.4378
 1042SOL    HW2 4568   0.233   6.151  11.828 -0.0463 -0.8981  0.5426
 1043SOL     OW 4569   4.255   7.510   3.014 -0.4236  0.4364  0.5435
 1043SOL    HW1 4570   4.216   7.428   2.985  0.7142 -0.1470  0.6093
 1043SOL    HW2 4571   4.183   7.559   3.053 -0.8576 -1.0855  1.7195
 1044SOL     OW 4572   5.910   0.701   3.028 -0.2512  0.4972  0.4702
 1044SOL    HW1 4573   5.822   0.724   2.999 -0.1268 -0.2715 -0.5591
 1044SOL    HW2 4574   5.897   0.620   3.079 -0.4972  1.9385  2.8367
 1045SOL     OW 4575   2.088   2.127   8.738 -0.6596 -0.2823  0.1180
 1045SOL    HW1 4576   2.020   2.182   8.778  0.1533 -0.3483  1.6984
 1045SOL    HW2 4577   2.107   2.061   8.804 -1.7955 -2.7082 -1.8409
 1046SOL     OW 4578   4.307   0.450   0.233 -0.0572  0.6971  0.1461
 1046SOL    HW1 4579   4.365   0.520   0.203  0.1411  1.4063  2.0254
 1046SOL    HW2 4580   4.353   0.369   0.210  0.3791  1.1900 -0.7961
 1047SOL     OW 4581   6.224   0.336   2.771 -0.3909 -0.1257  0.9919
 1047SOL    HW1 4582   6.315   0.317   2.793 -0.5322 -1.0154  0.8740
 1047SOL    HW2 4583   6.219   0.431   2.765  0.5703 -0.0825  0.8067
 1048SOL     OW 4584   3.059   4.048   5.694  0.1791  0.0822 -0.3425
 1048SOL    HW1 4585   3.032   4.067   5.605  0.3509  1.0577 -0.2006
 1048SOL    HW2 4586   3.130   4.110   5.711  1.8199 -1.6839 -0.3473
 1049SOL     OW 4587   5.718   5.045   0.461 -0.2381 -0.2219  0.3879
 1049SOL    HW1 4588   5.642   5.100   0.480  0.0090  0.7357 -1.2326
 1049SOL    HW2 4589   5.792   5.096   0.493 -0.1429 -0.4137  0.4735
 1050SOL     OW 4590   0.322   1.299   0.189  0.6681  0.5174 -0.5865
 1050SOL    HW1 4591   0.389   1.240   0.152  0.8740 -0.8542  1.7734
 1050SOL    HW2 4592   0.272   1.244   0.249 -1.4619  1.9653 -0.9201
 1051SOL     OW 4593   3.165   7.657   1.670  0.7172 -0.5306 -0.2715
 1051SOL    HW1 4594   3.102   7.716   1.712  1.0952  0.6431 -1.2797
 1051SOL    HW2 4595   3.231   7.642   1.737  0.2205 -0.4249  0.2524
 1052SOL     OW 4596   3.718   5.099  10.644  0.4752  0.6907 -0.3649
 1052SOL    HW1 4597   3.786   5.151  10.687  0.6570 -1.5459  2.3246
 1052SOL    HW2 4598   3.759   5.014  10.628 -1.5207 -0.6270  1.0415
 1053SOL     OW 4599   3.705   1.953   7.191 -0.3140 -0.0338  0.1713
 1053SOL    HW1 4600   3.674   1.865   7.212 -0.8486  0.1843  0.3074
 1053SOL    HW2 4601   3.765   1.974   7.262 -1.5208  0.3946  1.0880
 1054SOL     OW 4602   3.606   4.861   9.422  0.2609 -0.3367  0.5654
 1054SOL    HW1 4603   3.623   4.955   9.416 -0.2106 -0.1433  1.9087
 1054SOL    HW2 4604   3.530   4.847   9.366  0.5019  0.0300  0.1368
 1055SOL     OW 4605   7.688   3.086   0.812 -0.3753  0.6062  0.5614
 1055SOL    HW1 4606   7.685   3.118   0.902  0.5414 -1.2913  1.3278
 1055SOL    HW2 4607   7.781   3.067   0.796 -0.3858  1.7043 -1.1098
 1056SOL     OW 4608   4.699   6.288   2.400 -0.0299  0.0015  0.3330
 1056SOL    HW1 4609   4.757   6.282   2.476 -0.3407 -0.4686  0.5398
 1056SOL    HW2 4610   4.644   6.209   2.405  1.8502 -1.5968 -1.9678
 1057SOL     OW 4611   7.679   0.823   4.854  0.0581  0.3396 -0.4481
 1057SOL    HW1 4612   7.632   0.777   4.923  0.3426  2.3445  1.2071
 1057SOL    HW2 4613   7.761   0.774   4.844 -0.1723 -0.2373  0.3455
 1058SOL     OW 4614   4.727   1.333  10.135  0.0678 -1.2167 -0.1827
 1058SOL    HW1 4615   4.797   1.397  10.123 -0.1741 -1.0046 -0.4710
 1058SOL    HW2 4616   4.770   1.259  10.179  0.7351 -1.5562 -1.3457
 1059SOL     OW 4617   7.135   6.804   1.151 -0.1405 -0.1188 -0.0427
 1059SOL    HW1 4618   7.227   6.806   1.175 -0.4799  1.2182  1.3205
 1059SOL    HW2 4619   7.117   6.713   1.130  1.5613 -0.3351 -0.6823
 1060SOL     OW 4620   7.168   5.147   3.126  0.5160 -0.0059 -0.5681
 1060SOL    HW1 4621   7.224   5.147   3.204 -1.8693 -0.5911  1.2972
 1060SOL    HW2 4622   7.173   5.237   3.094 -0.7234  1.1530  2.1439
 1061SOL     OW 4623   1.382   1.386  10.602  0.1616  0.6808 -0.3811
 1061SOL    HW1 4624   1.371   1.303  10.648 -2.8237  0.6210 -0.9747
 1061SOL    HW2 4625   1.444   1.367  10.532 -1.3428 -1.4613 -1.2474
 1062SOL     OW 4626   1.380   3.889   5.739  0.4126  0.8193 -0.2423
 1062SOL    HW1 4627   1.467   3.913   5.770  0.1147  0.9717  0.4880
 1062SOL    HW2 4628   1.344   3.972   5.705  1.5409  0.2787 -3.0792
 1063SOL     OW 4629   7.166   4.234   6.096  0.2430 -0.4482 -0.6289
 1063SOL    HW1 4630   7.179   4.327   6.074  0.8099 -0.4466 -0.3290
 1063SOL    HW2 4631   7.134   4.235   6.186 -2.0185 -0.4568 -1.3732
 1064SOL     OW 4632   4.084   1.363   4.437  0.1667 -0.5616  0.0696
 1064SOL    HW1 4633   4.120   1.443   4.474 -0.4001 -0.7884  1.1631
 1064SOL    HW2 4634   4.070   1.306   4.513 -0.7152 -1.1778 -0.5377
 1065SOL     OW 4635   0.550   3.097   6.323  0.0346 -0.1099 -0.2765
 1065SOL    HW1 4636   0.627   3.153   6.331 -1.6658  2.1613  2.0143
 1065SOL    HW2 4637   0.542   3.056   6.409 -0.4449 -1.5941 -0.9985
 1066SOL     OW 4638   1.382   4.660   4.446 -0.4620  0.0221 -0.2782
 1066SOL    HW1 4639   1.371   4.674   4.352 -0.6757  0.2462 -0.2199
 1066SOL    HW2 4640   1.313   4.598   4.469 -0.2845 -0.1852 -0.3073
 1067SOL     OW 4641   3.305   4.494   9.760  0.7696  0.4536 -0.0301
 1067SOL    HW1 4642   3.374   4.545   9.716  0.4621  0.1450 -0.8958
 1067SOL    HW2 4643   3.264   4.444   9.689  1.8521 -1.9517  0.9156
 1068SOL     OW 4644   5.640   1.105   6.474  0.1797 -0.6341 -0.1380
 1068SOL    HW1 4645   5.686   1.106   6.557 -0.1877 -0.0136  0.0611
 1068SOL    HW2 4646   5.589   1.186   6.473 -0.0882 -0.8010 -0.8127
 1069SOL     OW 4647   0.834   4.731   2.529  0.5747 -0.0186 -0.7005
 1069SOL    HW1 4648   0.820   4.645   2.489  0.4081  0.2706 -1.2689
 1069SOL    HW2 4649   0.926   4.750   2.512  0.5456  0.0304 -0.8050
 1070SOL     OW 4650   3.880   7.077   4.948  0.3284 -0.0046 -0.0382
 1070SOL    HW1 4651   3.888   7.144   4.881  0.8448 -1.4541 -1.5142
 1070SOL    HW2 4652   3.787   7.074   4.969  0.0786  0.1689 -1.0606
 1071SOL     OW 4653   0.715   3.998   3.165  0.6974 -0.1338  0.7203
 1071SOL    HW1 4654   0.734   4.091   3.157  1.1430 -0.3496 -1.0817
 1071SOL    HW2 4655   0.799   3.959   3.192  1.6731 -0.4593 -2.4201
 1072SOL     OW 4656   3.707   4.573   0.404 -0.0189 -0.3141 -0.0196
 1072SOL    HW1 4657   3.680   4.654   0.360  1.2186  0.0142 -0.2121
 1072SOL    HW2 4658   3.641   4.509   0.378 -1.9545  0.9601  1.3957
 1073SOL     OW 4659   6.900   6.425  11.583  0.1749  0.6045 -0.2222
 1073SOL    HW1 4660   6.990   6.403  11.609  0.2022  0.7836 -0.1675
 1073SOL    HW2 4661   6.902   6.519  11.567 -0.4799  0.9764  1.7247
 1074SOL     OW 4662   0.255   6.327   1.917  0.2401  0.2422  0.0850
 1074SOL    HW1 4663   0.234   6.419   1.900  0.8516  0.4700  0.5136
 1074SOL    HW2 4664   0.337   6.330   1.966  1.0306 -0.5972 -1.1526
 1075SOL     OW 4665   7.517   3.694   7.459  1.2187 -0.0213 -0.6397
 1075SOL    HW1 4666   7.563   3.772   7.428  0.4627  0.0195 -1.7258
 1075SOL    HW2 4667   7.467   3.664   7.383 -0.5169 -0.0884  0.4687
 1076SOL     OW 4668   2.070   4.129   7.123  0.1261 -0.0031 -0.2508
 1076SOL    HW1 4669   2.061   4.186   7.046  0.2618  0.0587 -0.2201
 1076SOL    HW2 4670   2.161   4.100   7.122  0.4745  0.9886  0.5727
 1077SOL     OW 4671   5.211   0.646   0.982 -0.7690 -0.6289  0.0021
 1077SOL    HW1 4672   5.216   0.593   0.902 -0.7667  0.9154 -1.0691
 1077SOL    HW2 4673   5.122   0.681   0.982 -0.2208  0.8409 -0.3303
 1078SOL     OW 4674   0.309   4.395  11.817 -0.2919 -0.4581  0.5497
 1078SOL    HW1 4675   0.365   4.454  11.765  0.0916 -0.9490  0.3967
 1078SOL    HW2 4676   0.269   4.452  11.883 -1.6922  0.4097 -0.9666
 1079SOL     OW 4677   0.599   6.120   5.305 -0.0112  0.0714 -0.4136
 1079SOL    HW1 4678   0.671   6.183   5.309 -0.6284  0.7939 -0.3129
 1079SOL    HW2 4679   0.575   6.104   5.396 -1.2273  1.3379 -0.4745
 1080SOL     OW 4680   6.307   3.385   6.266 -0.3629 -0.4391 -0.1940
 1080SOL    HW1 4681   6.355   3.323   6.211 -0.3069 -0.2149 -0.4028
 1080SOL    HW2 4682   6.370   3.455   6.283  0.0247 -1.0975  1.1967
 1081SOL     OW 4683   4.258   1.548   4.528  0.3572  0.3347  0.5311
 1081SOL    HW1 4684   4.256   1.616   4.460 -0.9827  0.5092  0.7233
 1081SOL    HW2 4685   4.291   1.594   4.606  0.9104  0.3794  0.2811
 1082SOL     OW 4686   7.310   5.439  11.762  0.1594 -0.3990 -0.2311
 1082SOL    HW1 4687   7.343   5.476  11.680 -1.0395  0.8989 -0.1688
 1082SOL    HW2 4688   7.314   5.344  11.749  1.4615 -0.2387 -1.1706
 1083SOL     OW 4689   2.887   1.652   5.369 -0.2340 -0.3824  0.1520
 1083SOL    HW1 4690   2.875   1.557   5.360 -1.6798 -0.1267 -0.8951
 1083SOL    HW2 4691   2.852   1.672   5.456 -0.7834 -0.6929  0.0095
 1084SOL     OW 4692   4.257   1.975   2.020  0.0072  0.4203  0.3225
 1084SOL    HW1 4693   4.194   1.920   1.973  0.0384  0.0831  0.6717
 1084SOL    HW2 4694   4.300   2.026   1.951  0.0886 -0.1045 -0.0181
 1085SOL     OW 4695   6.122   5.243   0.384 -0.1312 -0.0573 -0.3098
 1085SOL    HW1 4696   6.044   5.195   0.410  0.1635 -0.1106  0.4921
 1085SOL    HW2 4697   6.106   5.333   0.413 -0.4878  0.2533 -1.4026
 1086SOL     OW 4698   6.922   5.236   1.270 -0.3822  0.1122  0.0813
 1086SOL    HW1 4699   6.918   5.255   1.176  0.1086 -0.0715  0.0187
 1086SOL    HW2 4700   6.996   5.176   1.279  0.9821  1.8013  0.8558
 1087SOL     OW 4701   6.929   4.900   9.511  0.3520  0.1943 -0.5812
 1087SOL    HW1 4702   6.973   4.867   9.590 -0.6137  0.5708  0.1227
 1087SOL    HW2 4703   6.972   4.983   9.492  1.0292 -0.2023 -0.8552
 1088SOL     OW 4704   5.571   6.006   9.584  0.3350 -0.1941 -0.0660
 1088SOL    HW1 4705   5.588   6.099   9.601 -0.0946 -0.4183  1.6952
 1088SOL    HW2 4706   5.510   6.007   9.510  1.0417  0.8750 -0.6782
 1089SOL     OW 4707   0.453   0.523   2.089  0.5268 -0.4720 -0.4590
 1089SOL    HW1 4708   0.526   0.537   2.028  0.0643 -0.5049 -1.0296
 1089SOL    HW2 4709   0.449   0.603   2.141 -0.4279  0.4804 -1.9193
 1090SOL     OW 4710   7.972   0.947  11.648 -0.4870 -0.3492  0.3851
 1090SOL    HW1 4711   7.950   0.928  11.739  0.3027 -0.9532  0.4599
 1090SOL    HW2 4712   7.996   1.039  11.648  0.5991 -0.6128  1.0197
 1091SOL     OW 4713   1.517   3.793   9.809 -0.1100 -0.4615  0.2691
 1091SOL    HW1 4714   1.504   3.743   9.728 -0.3063 -1.6900  1.0284
 1091SOL    HW2 4715   1.607   3.824   9.803 -0.3916  0.2145 -0.8070
 1092SOL     OW 4716   3.808   4.661   7.098  0.1987  0.3519  0.2305
 1092SOL    HW1 4717   3.782   4.751   7.081 -0.9662  0.0035  0.0517
 1092SOL    HW2 4718   3.885   4.647   7.042  0.4218  1.2376  0.2970
 1093SOL     OW 4719   6.323   1.435  10.567 -0.0533  0.7336  0.0528
 1093SOL    HW1 4720   6.356   1.392  10.646  2.5161  1.7294 -0.3777
 1093SOL    HW2 4721   6.332   1.369  10.499  1.0306  0.9744 -0.0451
 1094SOL     OW 4722   1.523   0.334   2.040  0.3641  0.0054  0.5286
 1094SOL    HW1 4723   1.563   0.298   1.961 -0.6677 -0.8827  0.3826
 1094SOL    HW2 4724   1.507   0.426   2.019 -0.6056 -0.3997 -0.6163
 1095SOL     OW 4725   6.292   0.778   2.044 -0.0283 -0.1397  0.1055
 1095SOL    HW1 4726   6.239   0.855   2.064 -1.5791 -1.2203  0.3214
 1095SOL    HW2 4727   6.239   0.728   1.982  2.3732  0.5525 -2.7432
 1096SOL     OW 4728   1.628   4.636  10.217  0.1561 -0.2174  0.2217
 1096SOL    HW1 4729   1.698   4.598  10.270  0.5427 -1.2574 -0.9976
 1096SOL    HW2 4730   1.571   4.562  10.196 -0.0084  0.1808 -0.7845
 1097SOL     OW 4731   5.429   3.707   1.306  0.0736 -0.0428 -0.6381
 1097SOL    HW1 4732   5.462   3.617   1.314 -0.0468 -0.0261  0.0632
 1097SOL    HW2 4733   5.391   3.727   1.392  1.1515  1.1071 -0.4053
 1098SOL     OW 4734   2.115   0.382   8.068  0.0236  0.1599 -0.5107
 1098SOL    HW1 4735   2.104   0.405   8.160 -0.1088 -1.4803 -0.0852
 1098SOL    HW2 4736   2.094   0.463   8.020  0.0348  1.0153  0.8744
 1099SOL     OW 4737   0.786   5.421   6.821 -0.2041 -0.1098  0.7030
 1099SOL    HW1 4738   0.742   5.426   6.737 -0.8956 -0.4389  1.0385
 1099SOL    HW2 4739   0.866   5.474   6.810 -0.3590 -0.0379 -0.1026
 1100SOL     OW 4740   3.888   2.524   6.700 -0.7252  0.0517  0.1426
 1100SOL    HW1 4741   3.894   2.566   6.786 -1.1421 -0.8773  0.6383
 1100SOL    HW2 4742   3.887   2.430   6.719 -1.4695 -0.1516 -0.8361
 1101SOL     OW 4743   7.266   3.574   4.184 -0.1163  0.4170 -0.0654
 1101SOL    HW1 4744   7.223   3.611   4.107 -1.8261  2.7111  1.8451
 1101SOL    HW2 4745   7.198   3.526   4.230  0.3619  0.6854  0.9646
 1102SOL     OW 4746   2.925   2.607   9.512 -0.3005 -0.5279 -0.2708
 1102SOL    HW1 4747   2.980   2.549   9.459 -1.5329 -2.0079 -0.0293
 1102SOL    HW2 4748   2.910   2.558   9.593 -0.1470  0.8118  0.6033
 1103SOL     OW 4749   0.074   3.186   9.349  0.2793  0.0014 -0.2814
 1103SOL    HW1 4750   0.003   3.208   9.409  0.2632  1.9280 -0.9401
 1103SOL    HW2 4751   0.151   3.178   9.406 -0.0879 -0.1284  0.2088
 1104SOL     OW 4752   7.788   2.258   6.300  0.2300 -0.0870 -0.0779
 1104SOL    HW1 4753   7.722   2.326   6.315  0.7589  0.7186 -1.1732
 1104SOL    HW2 4754   7.737   2.179   6.282 -0.4327  0.3820 -0.3272
 1105SOL     OW 4755   5.567   3.195   6.778  0.3391  0.0869  0.4703
 1105SOL    HW1 4756   5.557   3.285   6.748 -0.0295 -0.2481 -0.4473
 1105SOL    HW2 4757   5.503   3.145   6.726  0.9984 -0.8044  0.4876
 1106SOL     OW 4758   2.729   1.562   1.137  0.6705  0.0508  0.2084
 1106SOL    HW1 4759   2.810   1.557   1.087 -0.1498 -0.4500 -1.1433
 1106SOL    HW2 4760   2.746   1.512   1.217  1.6663 -0.1051 -0.0896
 1107SOL     OW 4761   5.818   5.894   2.385  0.0117 -0.7618  0.3505
 1107SOL    HW1 4762   5.835   5.839   2.462  1.3098  0.0008  0.6331
 1107SOL    HW2 4763   5.778   5.973   2.422 -1.2608 -1.2232  0.0091
 1108SOL     OW 4764   6.506   6.574   5.664  0.5846 -0.0750 -0.8421
 1108SOL    HW1 4765   6.499   6.670   5.664  4.6614  0.4264  0.1780
 1108SOL    HW2 4766   6.532   6.552   5.574  2.1838  0.1582 -0.4661
 1109SOL     OW 4767   2.576   6.990  12.146 -0.1903 -0.7772  0.0030
 1109SOL    HW1 4768   2.577   7.014  12.238  1.0516 -0.0190 -0.1892
 1109SOL    HW2 4769   2.616   6.903  12.143  1.7481  0.0768 -0.0197
 1110SOL     OW 4770   2.876   6.407  11.771  0.0282  0.0053  0.1432
 1110SOL    HW1 4771   2.903   6.494  11.739  0.8815  0.7345  2.6000
 1110SOL    HW2 4772   2.799   6.385  11.720 -2.1467  3.6669  1.4782
 1111SOL     OW 4773   4.774   4.485  10.969  0.4941 -0.2353 -0.2118
 1111SOL    HW1 4774   4.702   4.474  11.030  0.0188 -1.0275 -0.9092
 1111SOL    HW2 4775   4.760   4.419  10.902  0.7366  0.9127 -1.4471
 1112SOL     OW 4776   5.323   0.487   9.070 -0.1093 -0.0897 -0.0045
 1112SOL    HW1 4777   5.230   0.508   9.082 -0.6267 -2.3977  0.5225
 1112SOL    HW2 4778   5.351   0.545   8.999 -2.0649  0.4040 -0.4543
 1113SOL     OW 4779   2.685   1.521  12.037 -0.4484  0.3799 -0.2936
 1113SOL    HW1 4780   2.762   1.516  12.093 -1.4970 -0.5003  1.1240
 1113SOL    HW2 4781   2.611   1.525  12.098 -1.6567 -1.0829 -1.5883
 1114SOL     OW 4782   4.084   6.831   9.835  0.1009  0.1240 -0.1070
 1114SOL    HW1 4783   4.060   6.743   9.808  0.3400  0.2064 -0.6102
 1114SOL    HW2 4784   4.169   6.847   9.792  0.5409  0.2228  0.7777
 1115SOL     OW 4785   4.576   4.685   1.161 -0.0011 -0.3684 -0.2636
 1115SOL    HW1 4786   4.495   4.640   1.137 -0.8341  1.5876 -1.2534
 1115SOL    HW2 4787   4.629   4.684   1.081  0.2222 -0.1024 -0.1211
 1116SOL     OW 4788   5.667   3.351   8.781  0.4801  0.0890  0.1027
 1116SOL    HW1 4789   5.643   3.331   8.871  0.0818 -1.6687 -0.3411
 1116SOL    HW2 4790   5.703   3.268   8.748  0.9677  0.8099 -1.2308
 1117SOL     OW 4791   6.286   5.704   0.402 -0.5172 -0.0834  0.3989
 1117SOL    HW1 4792   6.360   5.667   0.354 -0.1227 -0.8589  1.5693
 1117SOL    HW2 4793   6.295   5.670   0.491 -1.8969  0.3637  0.7378
 1118SOL     OW 4794   0.139   2.330   9.295  0.4591 -0.2698 -0.6585
 1118SOL    HW1 4795   0.203   2.338   9.224  0.7566  0.6062 -0.3047
 1118SOL    HW2 4796   0.075   2.266   9.262  0.5785  0.1293 -1.7228
 1119SOL     OW 4797   2.040   0.887   0.196 -0.3216 -0.4558  0.3023
 1119SOL    HW1 4798   1.993   0.835   0.262  0.3812 -0.0759  1.1140
 1119SOL    HW2 4799   2.051   0.827   0.122 -1.3297 -0.8150  0.4202
 1120SOL     OW 4800   0.918   7.474  11.470  0.1486 -0.0147 -0.6933
 1120SOL    HW1 4801   0.828   7.493  11.497  1.0494 -0.0748  2.7912
 1120SOL    HW2 4802   0.917   7.482  11.375 -3.2847  1.0044 -0.6803
 1121SOL     OW 4803   2.740   3.419   2.517 -0.0119  0.6004  0.5295
 1121SOL    HW1 4804   2.764   3.399   2.426 -0.2905 -0.6956  0.7182
 1121SOL    HW2 4805   2.721   3.513   2.516 -3.4653  0.0914 -1.6283
 1122SOL     OW 4806   4.175   0.964   9.413  0.2931 -0.2663  0.0821
 1122SOL    HW1 4807   4.264   0.929   9.417 -0.1681 -1.4614  0.2233
 1122SOL    HW2 4808   4.125   0.910   9.474 -0.4619  0.6254  0.2757
 1123SOL     OW 4809   2.448   2.269  10.698  0.4196 -0.0054 -0.2126
 1123SOL    HW1 4810   2.537   2.250  10.671  0.6274  0.2308  0.2942
 1123SOL    HW2 4811   2.447   2.363  10.715  0.2731 -0.1269  0.5032
 1124SOL     OW 4812   6.019   3.961  11.953 -0.5777  0.5101  0.6241
 1124SOL    HW1 4813   5.976   3.975  11.868  1.5373 -1.1451 -0.8069
 1124SOL    HW2 4814   6.112   3.958  11.932  0.0692  0.8915  3.1750
 1125SOL     OW 4815   1.526   6.550   4.504  0.3264 -0.1904  0.3091
 1125SOL    HW1 4816   1.503   6.636   4.539  2.5048  1.2177 -1.4451
 1125SOL    HW2 4817   1.593   6.517   4.564 -1.1229 -1.1552  1.4844
 1126SOL     OW 4818   5.123   3.360   0.102  0.0790 -0.4323  0.2613
 1126SOL    HW1 4819   5.189   3.392   0.041 -1.9062  0.3763 -1.6073
 1126SOL    HW2 4820   5.173   3.316   0.171  2.5879  1.2877 -0.3337
 1127SOL     OW 4821   7.857   4.445   7.327 -0.4241  0.5471  0.0486
 1127SOL    HW1 4822   7.925   4.440   7.395 -0.5723  1.4759  0.2813
 1127SOL    HW2 4823   7.903   4.430   7.245  0.0212  0.9186  0.2282
 1128SOL     OW 4824   6.627   0.488  12.077 -0.1958 -0.8169  0.3946
 1128SOL    HW1 4825   6.545   0.510  12.121  1.0741 -0.5403  2.7946
 1128SOL    HW2 4826   6.650   0.568  12.029 -0.5759 -0.3578  0.9568
 1129SOL     OW 4827   3.813   0.443   2.780 -0.3268  0.1189  0.4516
 1129SOL    HW1 4828   3.877   0.377   2.752 -1.1213  0.0670 -1.3168
 1129SOL    HW2 4829   3.790   0.417   2.869 -1.5225 -2.7696 -0.5893
 1130SOL     OW 4830   5.214   6.701   4.058 -0.3939  0.4426  0.3253
 1130SOL    HW1 4831   5.195   6.795   4.054  1.0283  0.7003 -0.8751
 1130SOL    HW2 4832   5.185   6.675   4.146 -1.0656  1.9344  0.5765
 1131SOL     OW 4833   2.614   7.833  11.041  0.0689  0.2341 -0.4285
 1131SOL    HW1 4834   2.545   7.869  10.985 -0.4205  2.4210  1.4274
 1131SOL    HW2 4835   2.590   7.862  11.129  2.4667 -0.4091  0.4975
 1132SOL     OW 4836   2.897   0.649   9.267  0.1623 -0.4124  1.0397
 1132SOL    HW1 4837   2.932   0.737   9.255 -1.8253  0.5125  1.6069
 1132SOL    HW2 4838   2.829   0.658   9.334 -2.8480 -1.5263 -1.5717
 1133SOL     OW 4839   4.439   6.172   6.106  0.2174  0.0404 -0.9411
 1133SOL    HW1 4840   4.346   6.157   6.120  0.6196 -1.4205  0.5008
 1133SOL    HW2 4841   4.464   6.232   6.177  1.2544 -3.4182  1.9382
 1134SOL     OW 4842   5.911   6.085   1.139  0.2766  0.0491 -0.5152
 1134SOL    HW1 4843   5.997   6.042   1.135 -1.1214 -2.9435 -1.7346
 1134SOL    HW2 4844   5.901   6.127   1.054  1.0260  1.6191  0.1308
 1135SOL     OW 4845   0.225   1.013   6.060 -0.4858 -0.1423  0.0836
 1135SOL    HW1 4846   0.307   1.030   6.106 -1.5237 -1.0651  2.5001
 1135SOL    HW2 4847   0.242   0.935   6.007 -0.1666 -1.2847  1.7914
 1136SOL     OW 4848   5.804   3.364  10.487  0.0313 -0.0628 -0.0435
 1136SOL    HW1 4849   5.769   3.275  10.485  0.7543 -0.3715  0.3562
 1136SOL    HW2 4850   5.898   3.353  10.469  0.7331  0.2517  2.7921
 1137SOL     OW 4851   7.886   6.785   7.060  0.1140  0.0623  0.5983
 1137SOL    HW1 4852   7.940   6.726   7.008  0.1833 -0.8663  1.6813
 1137SOL    HW2 4853   7.796   6.755   7.046  0.0094  0.6310  0.0100
 1138SOL     OW 4854   0.260   6.706   0.921 -0.9721  0.3276 -0.1375
 1138SOL    HW1 4855   0.334   6.715   0.861 -0.3554 -0.6879  0.4417
 1138SOL    HW2 4856   0.245   6.794   0.955 -0.0999  0.5597 -0.3477
 1139SOL     OW 4857   0.655   2.670   3.356 -0.3759 -0.1950 -0.4080
 1139SOL    HW1 4858   0.565   2.645   3.376 -0.7050  0.6062 -0.8357
 1139SOL    HW2 4859   0.647   2.740   3.291  0.5844 -0.8382 -1.2585
 1140SOL     OW 4860   5.328   2.838  12.300  0.5822  0.2876  0.1104
 1140SOL    HW1 4861   5.316   2.808  12.210 -0.2730 -1.1114  0.6731
 1140SOL    HW2 4862   5.281   2.921  12.304  0.6136  0.3566 -0.7140
 1141SOL     OW 4863   4.975   7.230   9.481 -0.1620 -0.4435  0.0743
 1141SOL    HW1 4864   5.050   7.283   9.453 -1.2100  1.6608  0.9720
 1141SOL    HW2 4865   5.014   7.157   9.530  1.3279  0.3353  0.1162
 1142SOL     OW 4866   6.986   2.798   2.500 -0.2715 -0.1343 -0.4090
 1142SOL    HW1 4867   6.982   2.749   2.582  1.2392 -1.5925 -1.1313
 1142SOL    HW2 4868   6.972   2.731   2.432  1.7663  0.4026 -1.4267
 1143SOL     OW 4869   6.211   2.571  12.469  0.0050 -0.1087 -0.3363
 1143SOL    HW1 4870   6.239   2.560  12.378  0.3074 -0.4667 -0.2005
 1143SOL    HW2 4871   6.117   2.590  12.463  0.1184  0.3478 -0.7493
 1144SOL     OW 4872   5.027   4.334  10.170 -0.1269 -0.5332 -0.3352
 1144SOL    HW1 4873   5.072   4.377  10.097 -0.0844 -0.5838 -0.3385
 1144SOL    HW2 4874   4.957   4.395  10.193 -0.4748 -0.7693 -0.7689
 1145SOL     OW 4875   1.462   5.397   5.735 -0.5402 -0.3430  0.6286
 1145SOL    HW1 4876   1.394   5.431   5.793 -2.2113  0.0742 -1.4546
 1145SOL    HW2 4877   1.427   5.315   5.701 -0.1280 -0.0017 -0.6709
 1146SOL     OW 4878   6.004   4.613   6.311 -0.2088 -0.3337  0.2431
 1146SOL    HW1 4879   5.984   4.520   6.301 -1.2113  0.0209 -1.7301
 1146SOL    HW2 4880   5.954   4.641   6.387 -0.7100 -1.2116  0.2444
 1147SOL     OW 4881   0.613   1.991   0.394  0.3405  0.1356 -0.1267
 1147SOL    HW1 4882   0.624   1.915   0.451  1.4346  0.1500 -0.2856
 1147SOL    HW2 4883   0.677   1.978   0.323 -0.1921  0.6804 -0.7323
 1148SOL     OW 4884   2.313   6.409  10.050  0.4988 -0.0746  0.2226
 1148SOL    HW1 4885   2.308   6.420  10.145  0.2856 -0.7246  0.2939
 1148SOL    HW2 4886   2.301   6.315  10.037  0.1182  0.0678 -0.4775
 1149SOL     OW 4887   1.152   1.845   6.065  0.1715  0.5668  0.2501
 1149SOL    HW1 4888   1.209   1.829   5.990 -0.3213 -0.5975  0.0968
 1149SOL    HW2 4889   1.207   1.892   6.127  0.8086  0.8963 -0.5425
 1150SOL     OW 4890   4.397   5.944   0.763 -0.1360 -0.3527  0.2982
 1150SOL    HW1 4891   4.408   5.994   0.682  1.3340  1.0601  1.2845
 1150SOL    HW2 4892   4.331   5.878   0.743 -0.2778  0.3750 -1.8392
 1151SOL     OW 4893   2.084   1.064   5.153  0.2426 -0.0401  0.2853
 1151SOL    HW1 4894   2.066   1.036   5.063  0.0361 -0.5959  0.4959
 1151SOL    HW2 4895   2.039   1.000   5.208  0.4100  0.2667  0.7881
 1152SOL     OW 4896   2.793   2.295   6.891  0.2579  0.5429  0.2410
 1152SOL    HW1 4897   2.775   2.235   6.963 -0.9132  1.7493  0.9826
 1152SOL    HW2 4898   2.884   2.321   6.904 -0.1744  1.3887  1.7925
 1153SOL     OW 4899   2.811   7.729  12.081 -0.0682 -0.1250  0.0009
 1153SOL    HW1 4900   2.759   7.759  12.156  0.4110  2.4140 -0.5914
 1153SOL    HW2 4901   2.755   7.663  12.039 -1.6618  0.5975  0.8764
 1154SOL     OW 4902   4.132   1.750   5.254  0.0301 -0.3954  0.6961
 1154SOL    HW1 4903   4.102   1.688   5.320  0.0059  0.3276  1.3758
 1154SOL    HW2 4904   4.117   1.836   5.293  2.9747  0.0348  1.0706
 1155SOL     OW 4905   2.832   0.612   1.777 -0.0254  0.1760 -0.2755
 1155SOL    HW1 4906   2.799   0.567   1.699  0.1359  0.9759 -0.8089
 1155SOL    HW2 4907   2.806   0.703   1.765  0.2128  0.3478  0.4924
 1156SOL     OW 4908   0.029   7.043  11.217  0.5555  0.0568  0.0169
 1156SOL    HW1 4909   0.024   7.094  11.298 -1.3265 -1.9599  1.3159
 1156SOL    HW2 4910   0.108   6.991  11.226  0.3034 -0.2340  0.6530
 1157SOL     OW 4911   6.054   1.891   4.535  0.4723  0.4108 -0.0333
 1157SOL    HW1 4912   6.101   1.920   4.458  1.6281  0.5600  0.7146
 1157SOL    HW2 4913   5.962   1.909   4.515  0.7414  0.3725 -1.3932
 1158SOL     OW 4914   2.431   0.226   7.337 -0.2751 -0.2658 -0.4740
 1158SOL    HW1 4915   2.340   0.201   7.354 -0.9364  2.0241 -0.2915
 1158SOL    HW2 4916   2.426   0.286   7.262  0.9520  0.6556  0.1424
 1159SOL     OW 4917   5.513   2.474   2.890  0.0099  0.2583  0.2837
 1159SOL    HW1 4918   5.510   2.483   2.795 -0.4358  2.4556  0.4607
 1159SOL    HW2 4919   5.457   2.399   2.909 -1.6117  1.0917 -1.0491
 1160SOL     OW 4920   3.552   6.646   3.397 -0.2280 -0.3097 -0.9052
 1160SOL    HW1 4921   3.498   6.716   3.432  1.1767 -0.2806  1.3758
 1160SOL    HW2 4922   3.634   6.688   3.372 -0.1855 -0.8094 -1.6642
 1161SOL     OW 4923   1.346   3.345   8.101  0.5516  0.2478 -0.1151
 1161SOL    HW1 4924   1.418   3.299   8.058  0.6408 -0.2231  0.5286
 1161SOL    HW2 4925   1.276   3.281   8.108 -0.1583  0.8687 -1.2601
 1162SOL     OW 4926   4.217   7.001   6.625  0.4279  0.0553 -0.1570
 1162SOL    HW1 4927   4.283   6.951   6.674 -1.1189 -0.2774  1.7290
 1162SOL    HW2 4928   4.267   7.045   6.556  2.1572 -2.5949 -0.7809
 1163SOL     OW 4929   0.534   3.793   5.887  0.0074 -0.2538  0.1652
 1163SOL    HW1 4930   0.454   3.842   5.870  0.0954 -0.2298 -0.1774
 1163SOL    HW2 4931   0.591   3.855   5.934  0.3528  0.1797 -0.7894
 1164SOL     OW 4932   5.752   3.312   5.513  0.0009 -0.4035  0.3704
 1164SOL    HW1 4933   5.696   3.380   5.550 -0.5987 -0.9029  0.3977
 1164SOL    HW2 4934   5.720   3.301   5.423  1.1994  0.5330 -0.2011
 1165SOL     OW 4935   2.171   4.584   8.770 -0.1268  0.7060 -0.1921
 1165SOL    HW1 4936   2.076   4.578   8.761 -0.3492  0.4454  1.8719
 1165SOL    HW2 4937   2.198   4.497   8.799  0.6480  0.9969 -0.0204
 1166SOL     OW 4938   3.018   2.436   1.200  0.0787 -0.6026  0.4312
 1166SOL    HW1 4939   2.962   2.380   1.146  0.6847 -1.6079  0.8163
 1166SOL    HW2 4940   3.076   2.480   1.137 -0.1963 -0.6468  0.1490
 1167SOL     OW 4941   6.715   2.958   5.851 -0.1473 -0.4060  0.3630
 1167SOL    HW1 4942   6.778   2.888   5.868  0.4883 -0.2557 -1.1927
 1167SOL    HW2 4943   6.630   2.913   5.852  0.1030 -0.8873  0.9689
 1168SOL     OW 4944   4.672   1.476   8.145 -0.0881 -0.3214 -0.1740
 1168SOL    HW1 4945   4.578   1.487   8.127 -0.4346 -0.8552  1.2242
 1168SOL    HW2 4946   4.687   1.382   8.140  0.0199 -0.3936  1.1810
 1169SOL     OW 4947   4.510   1.009   5.135 -0.1485  0.6048 -0.3751
 1169SOL    HW1 4948   4.484   1.071   5.067 -0.3994 -1.7839 -2.6254
 1169SOL    HW2 4949   4.590   0.968   5.101  0.3954  0.1614  1.3393
 1170SOL     OW 4950   4.715   4.628  12.266 -0.2123  0.4806  0.1849
 1170SOL    HW1 4951   4.672   4.658  12.186 -0.8055 -2.4274 -0.7027
 1170SOL    HW2 4952   4.805   4.608  12.239 -0.3786 -0.3927  0.2554
 1171SOL     OW 4953   4.747   1.561   5.925  0.0848 -0.3479 -0.6712
 1171SOL    HW1 4954   4.688   1.496   5.887 -0.8461 -0.1954  0.4486
 1171SOL    HW2 4955   4.815   1.573   5.860 -0.1617 -1.8547 -1.2456
 1172SOL     OW 4956   2.635   5.356   8.187  0.0144  0.6175 -0.2570
 1172SOL    HW1 4957   2.652   5.372   8.094  0.5067  0.7095 -0.1525
 1172SOL    HW2 4958   2.712   5.392   8.232 -0.2984  0.7279  0.1979
 1173SOL     OW 4959   2.249   1.933   6.163 -0.2054  0.3244 -0.1519
 1173SOL    HW1 4960   2.258   1.881   6.083 -3.0861 -0.7997  0.1090
 1173SOL    HW2 4961   2.273   2.022   6.138  0.8505 -0.3671 -1.7293
 1174SOL     OW 4962   3.778   2.516   1.046 -0.1535 -0.1537 -0.3181
 1174SOL    HW1 4963   3.726   2.489   1.121 -0.6670  0.2463 -0.5253
 1174SOL    HW2 4964   3.746   2.603   1.024  0.7318  0.1747 -0.3386
 1175SOL     OW 4965   3.115   2.582   4.479  0.2873 -0.1461 -0.3296
 1175SOL    HW1 4966   3.090   2.586   4.571  0.4320 -1.8069 -0.1968
 1175SOL    HW2 4967   3.180   2.652   4.469  0.2828  0.0404  0.8246
 1176SOL     OW 4968   5.769   6.790   9.550  0.1372 -0.1918 -0.1743
 1176SOL    HW1 4969   5.684   6.747   9.541  0.8928 -1.9504  0.6544
 1176SOL    HW2 4970   5.791   6.779   9.643  1.7089 -0.6364 -0.5851
 1177SOL     OW 4971   6.638   2.197   2.580  0.3838 -0.1515 -0.1589
 1177SOL    HW1 4972   6.551   2.191   2.542  0.5783 -0.6630 -0.5382
 1177SOL    HW2 4973   6.650   2.115   2.628  0.6883 -0.1269 -0.1884
 1178SOL     OW 4974   1.811   2.746  12.223 -0.9443 -0.0118 -0.0095
 1178SOL    HW1 4975   1.881   2.767  12.162 -1.0383  2.0534  0.5160
 1178SOL    HW2 4976   1.856   2.724  12.305 -0.8869 -0.5486 -0.1779
 1179SOL     OW 4977   7.096   1.777   1.330 -0.0265 -0.0076 -0.2384
 1179SOL    HW1 4978   7.173   1.795   1.385 -0.8852 -1.8211  1.6923
 1179SOL    HW2 4979   7.125   1.708   1.271  0.6317  1.3345 -1.5638
 1180SOL     OW 4980   7.729   5.373  10.292  0.4334 -0.1805  0.2839
 1180SOL    HW1 4981   7.762   5.298  10.243 -1.2876 -1.9353  1.6423
 1180SOL    HW2 4982   7.656   5.338  10.344 -0.4339  2.4370  1.0096
 1181SOL     OW 4983   3.712   2.864   0.010 -0.1556  0.3417 -0.1396
 1181SOL    HW1 4984   3.714   2.909  -0.075 -3.0021  0.7163 -0.0814
 1181SOL    HW2 4985   3.764   2.920   0.068 -0.7712  1.7432 -0.8995
 1182SOL     OW 4986   5.200   6.888   2.322  0.3956  0.1842  0.1343
 1182SOL    HW1 4987   5.131   6.840   2.277  0.6615  0.9481 -1.1231
 1182SOL    HW2 4988   5.154   6.948   2.380  0.0508 -0.8039  0.9057
 1183SOL     OW 4989   2.733   7.793   1.798  0.1126  0.5382  0.4403
 1183SOL    HW1 4990   2.705   7.868   1.852  2.4619  0.3106  2.1109
 1183SOL    HW2 4991   2.825   7.811   1.778  0.2348 -1.0887 -0.6027
 1184SOL     OW 4992   0.583   5.220   5.431  0.2236 -0.1150 -0.9686
 1184SOL    HW1 4993   0.491   5.237   5.448  0.1232 -0.9415 -0.6461
 1184SOL    HW2 4994   0.629   5.294   5.470 -0.2634 -0.0035 -0.6056
 1185SOL     OW 4995   0.245   3.929   2.057 -1.0282  0.2656  0.2290
 1185SOL    HW1 4996   0.185   3.855   2.072 -1.1374  0.0853 -0.9734
 1185SOL    HW2 4997   0.239   3.945   1.962  0.6729  0.3781  0.1116
 1186SOL     OW 4998   0.530   3.496   1.933  0.2371  0.2221 -0.2009
 1186SOL    HW1 4999   0.605   3.466   1.881  1.8919  1.0944  1.5253
 1186SOL    HW2 5000   0.566   3.509   2.021 -2.1674 -0.0984  0.9066
 1187SOL     OW 5001   5.748   7.125   0.797  1.0384 -0.2255  0.1159
 1187SOL    HW1 5002   5.822   7.171   0.757  1.6795 -0.8576  0.5509
 1187SOL    HW2 5003   5.690   7.195   0.826  0.7809  0.2628 -1.4587
 1188SOL     OW 5004   7.631   3.424   3.656  0.3170 -0.1076 -0.0810
 1188SOL    HW1 5005   7.550   3.375   3.640 -0.0928  0.4852  0.1422
 1188SOL    HW2 5006   7.648   3.470   3.574  0.2973 -0.0481 -0.0517
 1189SOL     OW 5007   4.610   2.563   9.864  0.1277  0.5751  0.2620
 1189SOL    HW1 5008   4.564   2.603   9.938  0.0728  2.4789 -0.7361
 1189SOL    HW2 5009   4.691   2.614   9.856  0.4485 -0.0403 -0.5767
 1190SOL     OW 5010   7.563   1.360   3.200 -0.2409  0.0750  0.0244
 1190SOL    HW1 5011   7.557   1.313   3.117 -1.3234 -0.4787  0.4025
 1190SOL    HW2 5012   7.534   1.297   3.266 -1.9372  1.2938  0.5276
 1191SOL     OW 5013   6.551   7.580  10.842  0.2661 -0.1017 -0.2390
 1191SOL    HW1 5014   6.466   7.592  10.884 -0.4106 -0.6245 -1.4190
 1191SOL    HW2 5015   6.602   7.657  10.869 -0.3287 -0.1286  1.0337
 1192SOL     OW 5016   2.746   0.646   4.642 -0.2825  0.5079 -0.0395
 1192SOL    HW1 5017   2.721   0.672   4.554 -0.1226 -1.4301 -0.6878
 1192SOL    HW2 5018   2.741   0.551   4.642 -1.2785  0.4863  2.3502
 1193SOL     OW 5019   5.573   3.135   2.566 -0.3296  0.9265  0.0848
 1193SOL    HW1 5020   5.542   3.068   2.505  0.6264  0.8685 -0.3588
 1193SOL    HW2 5021   5.539   3.217   2.531  0.3709  0.9168 -0.6576
 1194SOL     OW 5022   7.792   1.472   4.439 -0.0846  0.4230  0.2355
 1194SOL    HW1 5023   7.738   1.394   4.425  0.7844 -0.3967  1.2476
 1194SOL    HW2 5024   7.838   1.485   4.356 -1.3586  0.7718 -0.4323
 1195SOL     OW 5025   1.159   5.824   4.849  0.1410  0.1634 -0.1579
 1195SOL    HW1 5026   1.067   5.813   4.874  0.0846  1.7701  0.4208
 1195SOL    HW2 5027   1.156   5.851   4.758 -0.0497  1.4967  0.2280
 1196SOL     OW 5028   1.139   0.101   6.330 -0.2494  0.3694 -0.1696
 1196SOL    HW1 5029   1.189   0.182   6.319  0.7560 -0.0549  1.0149
 1196SOL    HW2 5030   1.205   0.031   6.324 -1.0250 -0.3414 -0.6716
 1197SOL     OW 5031   6.914   3.078   7.283 -0.1978  0.3449 -0.6814
 1197SOL    HW1 5032   6.918   3.171   7.304 -1.1158  0.3062 -0.3077
 1197SOL    HW2 5033   6.922   3.075   7.187  0.1566  0.7774 -0.6682
 1198SOL     OW 5034   3.556   4.744  11.366  0.1408 -0.1704  0.3336
 1198SOL    HW1 5035   3.587   4.833  11.349 -0.7502  0.0117 -0.4594
 1198SOL    HW2 5036   3.502   4.751  11.445 -1.1667  0.3202 -0.5624
 1199SOL     OW 5037   0.847   4.262   9.414  0.0213 -0.4985 -0.0241
 1199SOL    HW1 5038   0.931   4.257   9.369 -0.3576  1.0648 -0.9581
 1199SOL    HW2 5039   0.840   4.178   9.461  1.0149 -1.6635 -1.8416
 1200SOL     OW 5040   0.991   4.605   7.067 -0.4189 -0.0136 -0.5582
 1200SOL    HW1 5041   1.050   4.537   7.100 -0.5028  0.2281  0.0944
 1200SOL    HW2 5042   0.994   4.674   7.133 -1.6969 -0.1482 -0.3336
 1201SOL     OW 5043   6.089   1.980   6.492 -0.5378  0.2780  0.0007
 1201SOL    HW1 5044   6.006   1.950   6.530 -0.6638  2.0189  1.2523
 1201SOL    HW2 5045   6.064   2.043   6.425 -0.2340 -0.0232 -0.4021
 1202SOL     OW 5046   1.395   4.031   8.754  0.0741 -0.0454  0.0948
 1202SOL    HW1 5047   1.349   3.955   8.719 -1.4671  0.9005 -0.0700
 1202SOL    HW2 5048   1.334   4.104   8.740  1.4643  1.2131  0.2952
 1203SOL     OW 5049   6.566   0.669   0.514 -0.5015 -0.1160 -0.5724
 1203SOL    HW1 5050   6.474   0.646   0.527 -0.3857 -0.0930  0.3396
 1203SOL    HW2 5051   6.566   0.763   0.498 -0.7283 -0.2876 -1.7000
 1204SOL     OW 5052   1.538   0.815   0.033  0.3687 -0.3856 -0.0771
 1204SOL    HW1 5053   1.563   0.749  -0.032  1.5277 -0.3631  0.3169
 1204SOL    HW2 5054   1.503   0.887  -0.020 -0.9593 -1.3116 -0.5047
 1205SOL     OW 5055   0.727   0.444   8.959 -0.4272  0.1119 -0.2180
 1205SOL    HW1 5056   0.694   0.523   8.914  0.9504  0.9201  0.1374
 1205SOL    HW2 5057   0.759   0.476   9.043  0.0016 -0.8664 -0.0008
 1206SOL     OW 5058   6.986   2.316   8.626 -0.4791  0.6892  0.5209
 1206SOL    HW1 5059   6.966   2.402   8.663 -2.0844  1.1347 -1.2408
 1206SOL    HW2 5060   6.965   2.325   8.533  2.7081 -0.5783 -0.4430
 1207SOL     OW 5061   4.566   2.226   5.770 -0.7736  0.2551  0.2539
 1207SOL    HW1 5062   4.577   2.299   5.832  0.0436  0.6659 -0.3560
 1207SOL    HW2 5063   4.596   2.262   5.687 -1.6731 -0.3581 -0.3430
 1208SOL     OW 5064   4.299   3.532   4.602 -0.8830  0.5650 -0.3389
 1208SOL    HW1 5065   4.368   3.465   4.601 -0.9018  0.5481 -0.6234
 1208SOL    HW2 5066   4.240   3.504   4.672 -0.8269  0.3487 -0.3761
 1209SOL     OW 5067   5.675   0.974  10.886  0.6775 -0.0239  0.0073
 1209SOL    HW1 5068   5.702   0.997  10.976  1.0227 -2.4870  0.5969
 1209SOL    HW2 5069   5.650   0.882  10.891  1.9838 -0.6293 -2.7065
 1210SOL     OW 5070   6.685   0.918   0.505  0.3625 -0.1323  0.1232
 1210SOL    HW1 5071   6.674   0.989   0.441 -2.4753  1.1515  1.8824
 1210SOL    HW2 5072   6.754   0.950   0.563  1.5803 -0.4520 -1.0785
 1211SOL     OW 5073   5.376   3.873   1.641  0.1471  0.4001  0.2077
 1211SOL    HW1 5074   5.450   3.915   1.597  0.3873 -0.6054 -0.3866
 1211SOL    HW2 5075   5.338   3.942   1.696  2.7313  0.4852  2.0983
 1212SOL     OW 5076   3.351   7.219  10.562 -0.4571  0.0373  0.3674
 1212SOL    HW1 5077   3.392   7.257  10.484  1.8093 -2.0493  0.4290
 1212SOL    HW2 5078   3.388   7.268  10.635 -1.4350  0.9969  0.2434
 1213SOL     OW 5079   4.202   5.786   5.794 -0.3398  0.1258 -0.1557
 1213SOL    HW1 5080   4.208   5.872   5.835 -0.3488 -0.0624  0.2448
 1213SOL    HW2 5081   4.197   5.724   5.867  1.4470 -0.3675 -0.4010
 1214SOL     OW 5082   4.964   6.713   0.060 -0.0460 -0.2865 -0.0507
 1214SOL    HW1 5083   5.004   6.796   0.084 -0.9229  0.2397 -0.3572
 1214SOL    HW2 5084   4.879   6.713   0.104 -0.4345 -0.6128 -0.7737
 1215SOL     OW 5085   1.351   5.656   4.947  0.0959  0.0586  0.0783
 1215SOL    HW1 5086   1.309   5.711   4.881 -1.2839 -0.1100  0.7884
 1215SOL    HW2 5087   1.283   5.641   5.013  1.7891  1.2917  2.2305
 1216SOL     OW 5088   6.121   0.520  12.312 -0.0826 -0.1504 -0.1703
 1216SOL    HW1 5089   6.047   0.513  12.252 -0.8148  1.7981  0.4321
 1216SOL    HW2 5090   6.093   0.476  12.391 -0.4469  0.2065 -0.0972
 1217SOL     OW 5091   2.713   7.660   8.247  0.3471 -0.0571  0.8380
 1217SOL    HW1 5092   2.667   7.684   8.167  0.6672  3.6261  1.6076
 1217SOL    HW2 5093   2.776   7.594   8.219 -0.9611 -0.4212 -1.4873
 1218SOL     OW 5094   6.377   5.675   6.828 -0.4840  0.7209 -0.6197
 1218SOL    HW1 5095   6.392   5.643   6.739  2.2308 -2.5950  0.7876
 1218SOL    HW2 5096   6.298   5.630   6.856  0.3149 -0.6627 -0.4659
 1219SOL     OW 5097   5.334   6.155   6.521  0.0845  0.7138 -0.1729
 1219SOL    HW1 5098   5.360   6.116   6.605  0.5745  0.6501 -0.3531
 1219SOL    HW2 5099   5.321   6.248   6.541 -1.0050  0.4840  0.2389
 1220SOL     OW 5100   2.174   4.509   2.050  0.0675 -0.0486  0.0910
 1220SOL    HW1 5101   2.104   4.455   2.016  0.8752  0.2484 -2.2288
 1220SOL    HW2 5102   2.229   4.528   1.974  0.0965  3.6029  0.8222
 1221SOL     OW 5103   7.463   2.252   2.553 -0.4349 -0.1790  0.3280
 1221SOL    HW1 5104   7.374   2.218   2.537 -0.3952 -0.4259  0.6338
 1221SOL    HW2 5105   7.508   2.180   2.597  0.5977 -0.9133 -1.7941
 1222SOL     OW 5106   0.494   6.270   8.538  0.3811  0.6000 -0.1330
 1222SOL    HW1 5107   0.548   6.192   8.533  1.8758  1.6355 -1.4383
 1222SOL    HW2 5108   0.409   6.240   8.570  0.8416 -1.5778 -0.8167
 1223SOL     OW 5109   0.999   5.686   5.300  0.2022 -0.2657  0.4994
 1223SOL    HW1 5110   0.947   5.675   5.380 -0.2296  1.3150  0.4836
 1223SOL    HW2 5111   0.937   5.721   5.236  1.1134  1.0493  0.2928
 1224SOL     OW 5112   1.203   3.822   9.409 -0.0726  0.3425 -0.3902
 1224SOL    HW1 5113   1.291   3.852   9.433  0.4928 -1.6697  0.2764
 1224SOL    HW2 5114   1.207   3.811   9.314  0.8192 -0.8547 -0.2470
 1225SOL     OW 5115   1.130   7.110   9.435  0.1438  0.0620 -0.0860
 1225SOL    HW1 5116   1.073   7.069   9.369  1.6896  0.7709 -1.9628
 1225SOL    HW2 5117   1.073   7.127   9.509 -1.6640 -0.9063 -1.1888
 1226SOL     OW 5118   4.846   1.828   3.706 -0.2595  0.6319  0.0261
 1226SOL    HW1 5119   4.906   1.828   3.781 -1.9762  1.8144  1.4532
 1226SOL    HW2 5120   4.784   1.758   3.725  0.3421 -0.3094 -1.2525
 1227SOL     OW 5121   5.390   2.531   1.750  0.3638  0.7660 -0.0422
 1227SOL    HW1 5122   5.422   2.447   1.783  1.5500  1.0511 -0.4202
 1227SOL    HW2 5123   5.453   2.555   1.681 -1.4584  0.6714 -1.8259
 1228SOL     OW 5124   4.848   4.839   8.777 -0.1880  0.2319 -0.1938
 1228SOL    HW1 5125   4.845   4.858   8.870 -0.6614  1.1583 -0.3866
 1228SOL    HW2 5126   4.936   4.865   8.750 -0.3424  0.7923 -0.1674
 1229SOL     OW 5127   5.544   6.201   1.884  0.3248  0.1769  0.9506
 1229SOL    HW1 5128   5.499   6.264   1.940  0.3324  0.9295  0.1231
 1229SOL    HW2 5129   5.575   6.252   1.809  0.5257 -0.7665  0.3693
 1230SOL     OW 5130   3.198   7.222   0.206  0.3897 -0.3862  0.2796
 1230SOL    HW1 5131   3.109   7.254   0.211  0.5105  0.1807 -0.8029
 1230SOL    HW2 5132   3.193   7.131   0.237 -0.5398 -0.3265  0.3179
 1231SOL     OW 5133   4.925   6.985   0.983  0.1972 -0.0141 -0.2728
 1231SOL    HW1 5134   5.007   7.023   0.954  0.3917 -0.5686 -0.4662
 1231SOL    HW2 5135   4.950   6.911   1.037 -0.1703 -0.2793 -0.4547
 1232SOL     OW 5136   1.720   3.444   7.798 -0.7184 -0.4789 -0.2176
 1232SOL    HW1 5137   1.778   3.377   7.762  0.2677 -0.0674  0.5461
 1232SOL    HW2 5138   1.717   3.425   7.892 -0.2778  0.6353  0.0357
 1233SOL     OW 5139   4.832   3.567   4.989 -0.0639 -0.2872 -0.4243
 1233SOL    HW1 5140   4.891   3.509   4.941  1.8429  0.7378  0.5740
 1233SOL    HW2 5141   4.833   3.649   4.941 -1.1041 -0.4050 -0.6732
 1234SOL     OW 5142   2.481   5.545   8.345 -0.2466 -0.2083 -0.3285
 1234SOL    HW1 5143   2.552   5.564   8.406  0.1544 -0.8230 -0.5897
 1234SOL    HW2 5144   2.505   5.461   8.306 -0.5964  0.0745 -1.1793
 1235SOL     OW 5145   2.280   0.861  11.841 -0.2356  0.2092 -0.3279
 1235SOL    HW1 5146   2.240   0.782  11.876 -0.3861  1.0992  1.6228
 1235SOL    HW2 5147   2.353   0.879  11.900  0.5070  0.9022 -1.4270
 1236SOL     OW 5148   3.831   6.778  11.796 -0.6303  0.1308  0.0503
 1236SOL    HW1 5149   3.893   6.739  11.857 -0.4000  0.0640 -0.2282
 1236SOL    HW2 5150   3.812   6.708  11.732 -1.3993 -0.0308  0.4342
 1237SOL     OW 5151   5.333   4.025   6.008 -0.2566 -0.2966 -0.3358
 1237SOL    HW1 5152   5.239   4.026   6.029 -0.1475  0.2488  0.1528
 1237SOL    HW2 5153   5.337   4.027   5.913 -0.7506 -1.0223 -0.3816
 1238SOL     OW 5154   3.267   4.439   1.182 -0.8141 -0.1602  0.2467
 1238SOL    HW1 5155   3.175   4.468   1.180 -1.0536 -0.7954 -2.8441
 1238SOL    HW2 5156   3.317   4.517   1.157 -0.5888 -0.1196  0.8022
 1239SOL     OW 5157   7.695   6.489  10.495 -0.3000 -0.3271 -0.2239
 1239SOL    HW1 5158   7.741   6.409  10.521  0.3906 -0.0251 -0.4728
 1239SOL    HW2 5159   7.636   6.461  10.425 -1.2940 -0.9215  0.8314
 1240SOL     OW 5160   2.106   0.367   9.748 -0.6010  0.1765  0.2957
 1240SOL    HW1 5161   2.200   0.366   9.733 -0.5104  0.9410  0.7859
 1240SOL    HW2 5162   2.091   0.292   9.806 -0.2118  0.4092  0.6999
 1241SOL     OW 5163   0.983   7.942   6.908 -0.0557 -1.0717  0.3351
 1241SOL    HW1 5164   1.074   7.969   6.924 -0.8229  0.8808  1.8201
 1241SOL    HW2 5165   0.971   7.952   6.814  0.0094  3.2507  0.6013
 1242SOL     OW 5166   2.473   4.663  12.144  0.1348  0.1094  0.5350
 1242SOL    HW1 5167   2.518   4.715  12.078 -0.9674  0.4510  0.0404
 1242SOL    HW2 5168   2.542   4.608  12.182  0.6445 -0.6890 -1.4527
 1243SOL     OW 5169   2.174   3.811  11.801  0.2388  0.5451 -0.2952
 1243SOL    HW1 5170   2.086   3.778  11.822  0.0029  0.7505 -0.9593
 1243SOL    HW2 5171   2.217   3.738  11.756  0.7061  0.1474  0.7501
 1244SOL     OW 5172   5.220   1.468  10.310 -0.5952 -0.1681 -0.1151
 1244SOL    HW1 5173   5.272   1.538  10.271  1.3432 -1.0084  0.8231
 1244SOL    HW2 5174   5.200   1.500  10.398  1.8640 -1.4391  0.9910
 1245SOL     OW 5175   1.568   1.614   1.530  0.2554  0.5263  0.6913
 1245SOL    HW1 5176   1.528   1.563   1.600  1.5570  0.8170  1.6960
 1245SOL    HW2 5177   1.640   1.661   1.573  1.0428  0.7719 -0.8293
 1246SOL     OW 5178   6.653   5.081   9.742  0.0950 -0.1978 -0.0619
 1246SOL    HW1 5179   6.607   5.133   9.676 -1.8514  0.7121  1.8989
 1246SOL    HW2 5180   6.711   5.143   9.786  0.5471 -0.5406 -0.1706
 1247SOL     OW 5181   2.808   6.684   4.400  0.1131 -0.0967  0.4116
 1247SOL    HW1 5182   2.740   6.719   4.343  0.0707  1.2588  1.2285
 1247SOL    HW2 5183   2.788   6.591   4.408 -2.3685  0.4560  1.5768
 1248SOL     OW 5184   5.153   3.907   4.659 -0.5533 -0.7375  0.0463
 1248SOL    HW1 5185   5.083   3.908   4.725 -0.6504  2.5293  0.0479
 1248SOL    HW2 5186   5.108   3.921   4.576  0.0007  1.2977  0.0388
 1249SOL     OW 5187   2.317   0.315   4.624  0.1902  0.2754  0.2174
 1249SOL    HW1 5188   2.363   0.383   4.673 -2.5375  2.5840 -0.1355
 1249SOL    HW2 5189   2.307   0.351   4.536  1.4893 -2.0699 -0.9970
 1250SOL     OW 5190   2.165   1.470  10.001 -0.1012  0.2744 -0.6581
 1250SOL    HW1 5191   2.154   1.451  10.094  0.4223 -1.3872 -0.9102
 1250SOL    HW2 5192   2.260   1.469   9.987 -0.1362  1.2774 -1.0821
 1251SOL     OW 5193   1.663   6.129   5.685  0.2323 -0.1803  0.1897
 1251SOL    HW1 5194   1.641   6.054   5.741  1.1053 -1.3079 -0.9024
 1251SOL    HW2 5195   1.724   6.093   5.620  0.1907  1.3521 -0.7549
 1252SOL     OW 5196   0.577   5.098   2.783 -0.2522 -0.3365 -0.1305
 1252SOL    HW1 5197   0.504   5.100   2.722 -1.1042 -3.1262  0.6332
 1252SOL    HW2 5198   0.604   5.006   2.784  2.1728  0.3030  0.9191
 1253SOL     OW 5199   1.347   7.781   5.862  0.6143 -0.0230 -0.0880
 1253SOL    HW1 5200   1.420   7.729   5.896  1.6721 -0.0116 -2.1865
 1253SOL    HW2 5201   1.297   7.720   5.808  0.7373  0.6339 -0.9704
 1254SOL     OW 5202   1.150   0.646   3.736 -0.0840 -0.4738 -0.7738
 1254SOL    HW1 5203   1.168   0.646   3.830  0.5400  1.2467 -0.8701
 1254SOL    HW2 5204   1.120   0.735   3.717  1.1562 -0.3587 -2.4437
 1255SOL     OW 5205   7.646   0.926   8.384 -0.0610  0.1780 -0.0320
 1255SOL    HW1 5206   7.594   0.895   8.458 -0.9031 -0.8806 -1.0250
 1255SOL    HW2 5207   7.649   1.021   8.394 -0.3910  0.0754  1.1924
 1256SOL     OW 5208   4.033   3.878   1.113  0.2919  0.1364  0.2561
 1256SOL    HW1 5209   3.997   3.965   1.129 -0.5143 -0.4400  1.8900
 1256SOL    HW2 5210   3.960   3.819   1.133  1.1032 -0.9475  0.0974
 1257SOL     OW 5211   7.578   4.837   4.828 -0.1775 -0.3638  0.0670
 1257SOL    HW1 5212   7.612   4.903   4.888 -0.0803 -1.1922  0.9408
 1257SOL    HW2 5213   7.485   4.855   4.823 -0.0509  0.2394 -0.2153
 1258SOL     OW 5214   5.346   1.841  11.819 -0.7729  0.2450 -0.0120
 1258SOL    HW1 5215   5.341   1.879  11.906 -2.5245  1.5176 -0.6163
 1258SOL    HW2 5216   5.274   1.778  11.816 -1.6295  1.2388 -0.9789
 1259SOL     OW 5217   4.254   7.086   3.454  0.6629 -0.0224  0.3936
 1259SOL    HW1 5218   4.248   7.172   3.412  3.0027 -0.8084 -1.7831
 1259SOL    HW2 5219   4.165   7.050   3.446  0.4826  0.7649 -2.0211
 1260SOL     OW 5220   2.644   1.562   1.736 -0.2230  0.3893  0.2726
 1260SOL    HW1 5221   2.689   1.636   1.776  0.2543 -0.5553  1.5744
 1260SOL    HW2 5222   2.632   1.587   1.644  2.4069  0.9468  0.0122
 1261SOL     OW 5223   1.778   2.040   8.370  0.0039  0.0134  0.2502
 1261SOL    HW1 5224   1.762   2.127   8.335 -0.4684  0.3594  1.2779
 1261SOL    HW2 5225   1.694   1.994   8.358  0.0896 -0.1319  0.1969
 1262SOL     OW 5226   7.177   4.470  11.999  0.3705  0.4972  0.1659
 1262SOL    HW1 5227   7.116   4.522  12.051  0.6210 -0.0411  1.0181
 1262SOL    HW2 5228   7.253   4.528  11.987 -0.2027  1.0906 -0.7229
 1263SOL     OW 5229   7.809   3.242   2.689  0.1060 -0.1100 -0.2072
 1263SOL    HW1 5230   7.886   3.240   2.631 -0.4924  1.1216 -1.0854
 1263SOL    HW2 5231   7.759   3.318   2.660 -2.8392 -2.3141 -1.4628
 1264SOL     OW 5232   2.101   7.764   2.526  0.0311  0.4035 -0.7451
 1264SOL    HW1 5233   2.113   7.816   2.446  1.4332  0.6432 -0.4145
 1264SOL    HW2 5234   2.113   7.673   2.498  2.1116  0.5807 -0.5866
 1265SOL     OW 5235   5.275   7.350  10.740 -0.2148 -0.2993 -0.3347
 1265SOL    HW1 5236   5.242   7.349  10.830  0.4064  1.1774 -0.0587
 1265SOL    HW2 5237   5.217   7.412  10.694  0.5230  0.2761 -0.5078
 1266SOL     OW 5238   7.154   7.956   8.107 -0.4033  0.6680  0.0217
 1266SOL    HW1 5239   7.165   7.972   8.013  0.8914 -2.1055 -0.3942
 1266SOL    HW2 5240   7.059   7.962   8.121 -0.8178 -0.5364 -1.8443
 1267SOL     OW 5241   1.134   6.297   3.275  0.2782  0.0109 -0.1666
 1267SOL    HW1 5242   1.086   6.248   3.208 -2.3806  2.2192 -0.0608
 1267SOL    HW2 5243   1.150   6.383   3.235  0.1442  0.8087  1.4253
 1268SOL     OW 5244   0.898   1.518   4.684  0.2568  0.5864  0.2040
 1268SOL    HW1 5245   0.961   1.588   4.661 -0.6052  1.1670 -0.4547
 1268SOL    HW2 5246   0.925   1.444   4.630 -0.4196  1.2594 -1.1230
 1269SOL     OW 5247   5.396   3.363   4.243  0.8839  0.5406  0.0606
 1269SOL    HW1 5248   5.316   3.399   4.205  1.0297  0.2535 -0.5403
 1269SOL    HW2 5249   5.389   3.380   4.337 -0.5473 -0.7097  0.2190
 1270SOL     OW 5250   2.088   7.570   7.265  0.0444  0.6677 -0.3340
 1270SOL    HW1 5251   2.060   7.558   7.174  0.6722  1.2738 -0.6160
 1270SOL    HW2 5252   2.070   7.486   7.307  1.3319 -0.2130 -1.4396
 1271SOL     OW 5253   5.675   6.506   1.197 -0.2574  0.0902  0.0488
 1271SOL    HW1 5254   5.632   6.421   1.204  0.4556 -0.6058 -2.8229
 1271SOL    HW2 5255   5.604   6.569   1.185 -0.7119 -0.2890  0.7294
 1272SOL     OW 5256   6.922   5.235   5.240  0.2231  0.2657 -0.0321
 1272SOL    HW1 5257   6.976   5.245   5.162  2.2155 -0.0260  1.2215
 1272SOL    HW2 5258   6.836   5.268   5.215  0.2400 -1.5616 -2.8977
 1273SOL     OW 5259   5.167   2.827   0.134  0.7828 -0.0942 -0.3845
 1273SOL    HW1 5260   5.206   2.743   0.155  2.8511  0.9161  0.0524
 1273SOL    HW2 5261   5.090   2.805   0.081 -0.6054 -2.3677  2.3112
 1274SOL     OW 5262   5.694   7.861   4.664 -0.4147  0.1323 -0.6252
 1274SOL    HW1 5263   5.655   7.825   4.743  0.1281 -0.0381 -0.4268
 1274SOL    HW2 5264   5.659   7.950   4.658  0.7318  0.7173  0.6842
 1275SOL     OW 5265   0.227   6.241   5.289  0.4193  0.4201 -0.7182
 1275SOL    HW1 5266   0.305   6.267   5.338  0.1870 -0.1589 -0.0327
 1275SOL    HW2 5267   0.197   6.160   5.331 -0.9313  0.9781 -0.5624
 1276SOL     OW 5268   2.561   2.270   2.910  0.0203 -0.0958 -0.5991
 1276SOL    HW1 5269   2.589   2.313   2.829 -1.8167  0.8818 -0.7606
 1276SOL    HW2 5270   2.506   2.197   2.880  1.7846 -1.6235 -0.2752
 1277SOL     OW 5271   2.204   2.271   9.180  0.2850 -0.1217 -0.5080
 1277SOL    HW1 5272   2.245   2.261   9.094  0.6615 -0.6405 -0.2743
 1277SOL    HW2 5273   2.114   2.295   9.161  0.8685  1.8864 -1.0410
 1278SOL     OW 5274   5.050   5.992   8.466 -0.5297 -0.5743  0.0123
 1278SOL    HW1 5275   5.081   6.074   8.427 -1.4572 -0.1149  0.2233
 1278SOL    HW2 5276   5.069   6.000   8.559 -0.6309 -0.5953  0.0354
 1279SOL     OW 5277   3.415   0.718   5.778  0.0864  0.0340  0.0398
 1279SOL    HW1 5278   3.488   0.778   5.797  1.9258 -1.0908 -2.8694
 1279SOL    HW2 5279   3.362   0.765   5.713 -1.6943  0.6695  1.8295
 1280SOL     OW 5280   1.070   5.674   3.088  0.3254  0.7640  0.1452
 1280SOL    HW1 5281   1.112   5.724   3.158 -1.1198  0.8186  1.0132
 1280SOL    HW2 5282   1.053   5.738   3.019  0.8844  0.9059  0.1331
 1281SOL     OW 5283   0.217   4.128   9.298  0.1047  0.5252  0.0890
 1281SOL    HW1 5284   0.248   4.216   9.276  0.9206  0.7828  2.0714
 1281SOL    HW2 5285   0.225   4.122   9.393  1.5103 -2.2054 -0.0925
 1282SOL     OW 5286   0.902   5.782   7.430  0.2062  0.1301 -0.1677
 1282SOL    HW1 5287   0.857   5.865   7.449  1.3382  0.4179  1.4830
 1282SOL    HW2 5288   0.992   5.809   7.409  0.4061 -0.6459 -0.3164
 1283SOL     OW 5289   2.665   5.031  11.731 -0.1731  0.3275 -0.2914
 1283SOL    HW1 5290   2.708   5.037  11.816 -1.9333 -0.6333  0.7264
 1283SOL    HW2 5291   2.588   5.087  11.739 -0.2615  0.3798 -1.3316
 1284SOL     OW 5292   7.064   6.005  11.943 -0.3884 -0.0633 -0.2322
 1284SOL    HW1 5293   7.057   6.098  11.963 -0.9586 -0.6011  2.3809
 1284SOL    HW2 5294   6.975   5.979  11.918 -0.2118  0.0850 -1.0441
 1285SOL     OW 5295   6.938   0.863   5.841 -0.3726  0.2645  0.0401
 1285SOL    HW1 5296   7.018   0.889   5.795  0.1830 -0.2994  0.6523
 1285SOL    HW2 5297   6.867   0.890   5.784  0.2860 -0.0070 -0.9373
 1286SOL     OW 5298   4.864   5.779   4.681  1.2271 -0.5551 -0.1626
 1286SOL    HW1 5299   4.886   5.688   4.661  1.9619 -0.4612  0.1941
 1286SOL    HW2 5300   4.834   5.777   4.772  0.5661 -0.5445 -0.3744
 1287SOL     OW 5301   3.167   5.347   8.293 -0.2089  0.3376 -0.4074
 1287SOL    HW1 5302   3.235   5.407   8.324 -0.8939  1.5583 -1.1911
 1287SOL    HW2 5303   3.194   5.261   8.326  1.2391  0.9331  0.0357
 1288SOL     OW 5304   6.987   1.225  11.080  0.1277 -0.5133 -0.0750
 1288SOL    HW1 5305   7.011   1.204  11.170  1.6574  1.8700  0.1432
 1288SOL    HW2 5306   6.899   1.263  11.087 -0.2997 -1.5006  0.1971
 1289SOL     OW 5307   5.480   3.363   3.769  0.5205  0.3100  0.4060
 1289SOL    HW1 5308   5.480   3.441   3.713  0.8193  1.1464  1.5484
 1289SOL    HW2 5309   5.509   3.394   3.854 -1.9857 -0.4858  1.6586
 1290SOL     OW 5310   4.093   0.871   6.238 -0.1505 -0.6872  0.2322
 1290SOL    HW1 5311   4.172   0.821   6.260 -1.0065 -1.9956  0.4082
 1290SOL    HW2 5312   4.114   0.961   6.264  1.1235 -1.0831  0.6673
 1291SOL     OW 5313   2.204   6.636  12.006  0.5195  0.0415 -0.1987
 1291SOL    HW1 5314   2.241   6.678  11.929 -0.7177  0.6767 -0.4666
 1291SOL    HW2 5315   2.171   6.708  12.060 -2.8963 -0.5031 -1.3110
 1292SOL     OW 5316   0.834   0.588   6.461  0.6683 -0.6680 -0.5216
 1292SOL    HW1 5317   0.790   0.649   6.401  0.2537  0.1060  0.5327
 1292SOL    HW2 5318   0.768   0.522   6.480  0.3423 -0.1728  0.1134
 1293SOL     OW 5319   6.599   4.624   3.308  0.4817 -0.4413 -0.4430
 1293SOL    HW1 5320   6.589   4.610   3.214 -1.5677  0.4511 -0.4113
 1293SOL    HW2 5321   6.606   4.719   3.318 -1.8212 -0.3161  0.4482
 1294SOL     OW 5322   3.751   3.747   4.198  0.8526  0.5711  0.1633
 1294SOL    HW1 5323   3.793   3.739   4.284  0.3501  1.0714  0.4622
 1294SOL    HW2 5324   3.749   3.658   4.163 -1.0940 -0.0522  1.7014
 1295SOL     OW 5325   3.712   0.803   7.403  0.5610 -0.5079 -0.6475
 1295SOL    HW1 5326   3.685   0.712   7.392 -0.1528 -0.1594 -1.9996
 1295SOL    HW2 5327   3.798   0.798   7.446  0.7461 -1.8204 -1.1345
 1296SOL     OW 5328   5.888   0.286   2.111 -0.3161 -0.1756  0.0807
 1296SOL    HW1 5329   5.889   0.191   2.101 -1.9354 -0.5518  2.6194
 1296SOL    HW2 5330   5.825   0.316   2.045 -1.2513 -1.0817  0.5398
 1297SOL     OW 5331   4.722   0.852  10.012  0.5414  0.2376 -0.0261
 1297SOL    HW1 5332   4.724   0.853  10.108  1.1426  0.4188 -0.0387
 1297SOL    HW2 5333   4.796   0.906   9.985  0.5049  0.0187 -0.5935
 1298SOL     OW 5334   4.675   7.664   0.060 -0.4741  0.8458 -0.4895
 1298SOL    HW1 5335   4.627   7.666  -0.022  0.4511  0.4318 -1.0558
 1298SOL    HW2 5336   4.693   7.756   0.080  3.4659  0.9202 -3.2900
 1299SOL     OW 5337   5.671   5.524   0.617  0.4123  0.2562 -0.0556
 1299SOL    HW1 5338   5.684   5.472   0.696 -2.6397  1.0633  1.1056
 1299SOL    HW2 5339   5.644   5.460   0.551  1.8971 -0.2743 -0.1788
 1300SOL     OW 5340   0.102   6.527   7.465 -0.0305 -0.3889 -0.2093
 1300SOL    HW1 5341   0.018   6.554   7.503 -0.4521  0.8506 -1.9247
 1300SOL    HW2 5342   0.146   6.479   7.536 -0.3492  2.5631  2.2010
 1301SOL     OW 5343   4.085   6.082   6.158  0.1104 -0.4936 -0.2010
 1301SOL    HW1 5344   4.081   6.149   6.226  0.9795 -1.0109  0.3833
 1301SOL    HW2 5345   4.155   6.023   6.187  0.4284 -0.7793 -1.4943
 1302SOL     OW 5346   4.884   5.214   8.085  0.4207  0.2013 -0.5346
 1302SOL    HW1 5347   4.798   5.183   8.111  0.6023 -0.3753 -0.6118
 1302SOL    HW2 5348   4.929   5.136   8.053  0.4637  0.7325 -1.8671
 1303SOL     OW 5349   4.957   0.403   2.089 -0.2646 -0.1758 -0.4045
 1303SOL    HW1 5350   5.026   0.339   2.102 -1.0089 -1.1554 -1.1212
 1303SOL    HW2 5351   4.929   0.427   2.178  2.2670  1.7409 -0.0177
 1304SOL     OW 5352   7.446   7.228   1.462  0.2866  0.5502  0.1443
 1304SOL    HW1 5353   7.416   7.181   1.384 -0.8637  1.9551 -0.3045
 1304SOL    HW2 5354   7.386   7.200   1.531 -0.3805  1.2790 -0.1168
 1305SOL     OW 5355   4.856   4.075   8.105 -0.0698  0.5032 -0.5222
 1305SOL    HW1 5356   4.917   4.055   8.033  0.7047  0.5117  0.1222
 1305SOL    HW2 5357   4.878   4.165   8.129 -0.9038  0.7967 -0.8243
 1306SOL     OW 5358   2.139   2.342   8.518  0.2991  0.4400  0.0118
 1306SOL    HW1 5359   2.131   2.293   8.600 -4.0658  0.0077 -0.4497
 1306SOL    HW2 5360   2.167   2.429   8.544  0.1211 -0.0037  1.8118
 1307SOL     OW 5361   3.906   2.697   3.381 -0.4178  0.1417 -0.3678
 1307SOL    HW1 5362   3.826   2.732   3.341 -2.1923 -0.5858  2.2993
 1307SOL    HW2 5363   3.931   2.762   3.447 -0.2521 -0.7933  0.5109
 1308SOL     OW 5364   3.216   5.613   9.145  0.1902 -0.1776  0.2779
 1308SOL    HW1 5365   3.231   5.519   9.144 -2.1401 -0.5966 -0.8772
 1308SOL    HW2 5366   3.274   5.647   9.077 -0.6522 -1.1204 -0.9624
 1309SOL     OW 5367   6.554   0.609   3.139 -0.0315  0.1255 -0.0193
 1309SOL    HW1 5368   6.572   0.652   3.222 -0.7854 -0.7173  0.5892
 1309SOL    HW2 5369   6.492   0.539   3.160  1.1394 -1.2660 -0.9879
 1310SOL     OW 5370   2.666   4.740   9.250  0.1016 -0.3527 -0.5280
 1310SOL    HW1 5371   2.759   4.717   9.244 -0.1167 -0.9637 -2.1927
 1310SOL    HW2 5372   2.644   4.774   9.163 -0.8777  1.2555  0.3197
 1311SOL     OW 5373   0.032   6.259   4.144 -0.0440 -0.1238 -0.2160
 1311SOL    HW1 5374   0.043   6.319   4.217  0.2840  0.4871 -0.7562
 1311SOL    HW2 5375  -0.055   6.277   4.110 -0.2940 -0.5796  0.1672
 1312SOL     OW 5376   6.943   6.685  10.330  0.6093  0.0849 -0.3779
 1312SOL    HW1 5377   6.988   6.663  10.249  2.1793 -0.1802  0.5154
 1312SOL    HW2 5378   6.965   6.612  10.389  1.7232  1.5339  1.0776
 1313SOL     OW 5379   7.537   5.683   1.709 -0.4354  0.3726 -0.1892
 1313SOL    HW1 5380   7.599   5.726   1.767 -1.0773 -0.9910  1.6375
 1313SOL    HW2 5381   7.591   5.630   1.651  0.1840 -0.0752  0.7620
 1314SOL     OW 5382   1.253   3.362   4.618 -0.2398  0.3953  0.3689
 1314SOL    HW1 5383   1.213   3.333   4.536  0.2171 -2.0235  0.9130
 1314SOL    HW2 5384   1.347   3.345   4.606 -0.0680  0.7831  1.0960
 1315SOL     OW 5385   6.282   7.829   2.343 -0.0784  0.8485  0.1315
 1315SOL    HW1 5386   6.310   7.759   2.284  0.0490  1.7026 -0.8483
 1315SOL    HW2 5387   6.363   7.860   2.384  0.2755  2.2128 -1.4741
 1316SOL     OW 5388   3.022   2.813   9.208 -0.2043 -0.3105  0.0806
 1316SOL    HW1 5389   3.070   2.732   9.226  0.4353 -0.2140 -1.0815
 1316SOL    HW2 5390   2.959   2.788   9.139  0.8089  0.4280 -1.1538
 1317SOL     OW 5391   5.374   4.622   0.465  0.3678  0.0806 -0.1061
 1317SOL    HW1 5392   5.431   4.613   0.541 -1.0574 -0.8593  0.8807
 1317SOL    HW2 5393   5.380   4.715   0.442 -0.7772  0.8619  2.4558
 1318SOL     OW 5394   4.790   7.081   2.333  0.2815 -0.5076  0.1714
 1318SOL    HW1 5395   4.709   7.039   2.361  0.2254  0.2515  1.2352
 1318SOL    HW2 5396   4.809   7.043   2.247 -0.9902 -0.9794  0.0742
 1319SOL     OW 5397   1.265   4.615   0.457 -0.7688 -0.2838  0.3409
 1319SOL    HW1 5398   1.331   4.629   0.525 -1.0404  1.0233  0.3722
 1319SOL    HW2 5399   1.309   4.640   0.375 -1.1375  0.3548  0.3318
 1320SOL     OW 5400   7.583   6.668  10.653  0.5166  0.4570 -0.5714
 1320SOL    HW1 5401   7.583   6.595  10.591 -0.7304  1.3420 -1.6773
 1320SOL    HW2 5402   7.535   6.635  10.729  0.8937 -0.2171 -0.6199
 1321SOL     OW 5403   0.017   6.725   4.379 -0.0285  0.5861  0.0534
 1321SOL    HW1 5404   0.092   6.755   4.327 -0.9560  0.8007 -1.1930
 1321SOL    HW2 5405  -0.049   6.700   4.315 -1.6248  1.8752  1.1179
 1322SOL     OW 5406   2.992   7.387   0.212  0.1854  0.0260  0.1600
 1322SOL    HW1 5407   3.001   7.471   0.257 -0.7319 -0.3125  0.9996
 1322SOL    HW2 5408   2.899   7.383   0.187 -0.1327 -1.3835  1.4530
 1323SOL     OW 5409   7.938   6.398   1.798 -0.0785  0.5821  0.5557
 1323SOL    HW1 5410   7.858   6.432   1.757 -1.0831 -1.9315  0.2689
 1323SOL    HW2 5411   8.009   6.432   1.743 -1.1754  0.2868 -1.1290
 1324SOL     OW 5412   1.402   1.463   3.345 -0.1922  0.4423 -0.0316
 1324SOL    HW1 5413   1.407   1.500   3.433  0.7125 -1.9026  0.9916
 1324SOL    HW2 5414   1.465   1.513   3.294  0.5863  0.6847  1.1355
 1325SOL     OW 5415   4.301   1.200   7.501  0.0188  0.1810 -0.4915
 1325SOL    HW1 5416   4.371   1.264   7.511 -0.4624  0.6559 -0.1060
 1325SOL    HW2 5417   4.239   1.239   7.440 -0.0244 -0.1362 -0.6554
 1326SOL     OW 5418   1.798   5.243   5.574 -0.3324  0.0618 -0.0228
 1326SOL    HW1 5419   1.736   5.308   5.539 -1.8520  0.0597  2.4187
 1326SOL    HW2 5420   1.807   5.266   5.667  1.8554 -1.1458  0.1282
 1327SOL     OW 5421   0.086   2.798   4.520  0.4988  0.0372 -0.2840
 1327SOL    HW1 5422   0.021   2.842   4.575  0.0838 -1.3768  0.3921
 1327SOL    HW2 5423   0.139   2.870   4.484 -1.5223  1.2406 -1.0116
 1328SOL     OW 5424   4.226   4.632   5.604 -0.5949  0.1916  0.4658
 1328SOL    HW1 5425   4.255   4.699   5.666  1.1951  0.5599 -0.7009
 1328SOL    HW2 5426   4.306   4.601   5.562 -1.6171 -1.0017 -0.7031
 1329SOL     OW 5427   2.260   7.646   6.402  0.3506  0.1771 -0.3347
 1329SOL    HW1 5428   2.279   7.655   6.309 -0.9396  0.4756 -0.5841
 1329SOL    HW2 5429   2.274   7.553   6.421  0.5508  0.1041 -0.8282
 1330SOL     OW 5430   5.289   4.339   8.000  0.3203  0.5000  0.3853
 1330SOL    HW1 5431   5.343   4.358   8.076 -1.8469 -0.4116  2.2516
 1330SOL    HW2 5432   5.203   4.376   8.021 -0.8545 -1.3911 -0.7934
 1331SOL     OW 5433   1.191   0.260   2.055  0.4376  0.6609  0.1584
 1331SOL    HW1 5434   1.165   0.350   2.075 -1.3460  0.3918 -0.7075
 1331SOL    HW2 5435   1.286   0.263   2.048  0.3303  2.8828 -1.6519
 1332SOL     OW 5436   1.957   3.321   8.851 -0.8683 -0.0482  0.0863
 1332SOL    HW1 5437   2.046   3.327   8.816 -0.4645 -1.7003  0.7147
 1332SOL    HW2 5438   1.963   3.354   8.940 -1.0511  0.5401 -0.1180
 1333SOL     OW 5439   6.960   3.820   3.873 -0.0362 -0.4727 -0.2032
 1333SOL    HW1 5440   6.933   3.875   3.947 -1.8243 -1.9687  0.3484
 1333SOL    HW2 5441   6.932   3.869   3.796  1.4109  0.8807  0.0807
 1334SOL     OW 5442   3.394   4.970   7.994 -0.2291  0.3881 -0.3633
 1334SOL    HW1 5443   3.426   5.021   8.068 -1.4718 -0.7019  0.9970
 1334SOL    HW2 5444   3.373   5.035   7.927 -0.5462  1.5622  0.8308
 1335SOL     OW 5445   5.950   6.865   4.841  0.5018 -0.1414 -0.2185
 1335SOL    HW1 5446   5.993   6.917   4.773  1.4102  0.6923  0.9480
 1335SOL    HW2 5447   5.903   6.797   4.793  1.7994 -0.0934 -1.6342
 1336SOL     OW 5448   2.077   0.110   6.088  0.0043 -0.1167 -0.5432
 1336SOL    HW1 5449   2.080   0.118   6.183  0.8107  0.6698 -0.6152
 1336SOL    HW2 5450   2.156   0.157   6.058 -0.5774  0.2015 -1.6210
 1337SOL     OW 5451   6.690   4.425   2.380  0.1791  0.1450 -0.2743
 1337SOL    HW1 5452   6.600   4.458   2.374  0.3231  0.5131 -0.4411
 1337SOL    HW2 5453   6.691   4.372   2.460 -0.7775 -1.7261 -1.4395
 1338SOL     OW 5454   4.292   2.349   6.414 -0.5905 -0.0952 -0.1908
 1338SOL    HW1 5455   4.336   2.402   6.348 -0.0146 -0.8571 -0.4251
 1338SOL    HW2 5456   4.282   2.408   6.489 -0.3417  0.4686 -0.5934
 1339SOL     OW 5457   0.513   4.874   9.914  0.2360 -0.2321 -0.3678
 1339SOL    HW1 5458   0.439   4.841   9.965 -0.4709  0.5623 -0.8600
 1339SOL    HW2 5459   0.554   4.939   9.971 -1.0162  1.2226 -1.0609
 1340SOL     OW 5460   5.814   0.515  11.076  0.6263  0.2610 -0.6480
 1340SOL    HW1 5461   5.897   0.486  11.040  0.0195  0.4136 -2.2554
 1340SOL    HW2 5462   5.755   0.519  11.001 -1.3814 -1.6776  0.6690
 1341SOL     OW 5463   6.237   6.185  10.326 -0.5012  0.0513  0.2875
 1341SOL    HW1 5464   6.296   6.167  10.399 -1.1943 -0.4337  0.7294
 1341SOL    HW2 5465   6.155   6.213  10.367 -1.0256 -0.6111 -0.2864
 1342SOL     OW 5466   1.521   0.047   5.869  0.3391 -0.4618  0.1839
 1342SOL    HW1 5467   1.470   0.117   5.908 -2.5713 -1.3164 -1.7710
 1342SOL    HW2 5468   1.532   0.073   5.777  2.0313 -1.1181  0.1560
 1343SOL     OW 5469   2.426   5.856   7.560  0.0305  0.1530  0.2653
 1343SOL    HW1 5470   2.493   5.787   7.556  0.2661  0.4071 -0.3445
 1343SOL    HW2 5471   2.347   5.812   7.589  0.3887 -0.2119  0.7036
 1344SOL     OW 5472   4.534   2.317   3.163  0.2129  0.2952  0.2981
 1344SOL    HW1 5473   4.568   2.403   3.141 -1.2375  1.2724  1.6291
 1344SOL    HW2 5474   4.471   2.333   3.233 -0.8065 -1.7379 -0.0626
 1345SOL     OW 5475   2.919   6.033   2.462 -0.1774  0.5119  0.2640
 1345SOL    HW1 5476   2.858   6.062   2.394  1.1314  1.0155 -0.7301
 1345SOL    HW2 5477   2.998   6.085   2.447  0.7702 -0.6628  1.0492
 1346SOL     OW 5478   4.498   5.258   0.802  0.3460  0.0615  0.3045
 1346SOL    HW1 5479   4.486   5.295   0.889 -0.6192 -0.1475  0.2777
 1346SOL    HW2 5480   4.409   5.246   0.769  0.6473  2.7916 -1.8685
 1347SOL     OW 5481   6.913   3.785   7.170  0.0988 -0.1710 -0.4352
 1347SOL    HW1 5482   6.882   3.860   7.119 -1.7731  0.2239  1.1410
 1347SOL    HW2 5483   6.835   3.752   7.215  1.3255 -1.5206  0.8514
 1348SOL     OW 5484   6.185   6.268   7.625 -0.0868  0.3153  0.3518
 1348SOL    HW1 5485   6.101   6.308   7.643 -0.1439 -0.1182  1.0659
 1348SOL    HW2 5486   6.166   6.198   7.562 -0.4090 -0.3758  1.2006
 1349SOL     OW 5487   0.684   4.246  11.825  0.5090 -0.0674  0.1287
 1349SOL    HW1 5488   0.761   4.255  11.770  0.3879 -2.4748 -0.5490
 1349SOL    HW2 5489   0.677   4.330  11.871  3.4295  0.2636  0.1356
 1350SOL     OW 5490   0.273   7.932   2.262  0.0423  0.8558  0.2123
 1350SOL    HW1 5491   0.299   7.890   2.344  0.4323 -0.3932 -0.5302
 1350SOL    HW2 5492   0.351   7.983   2.237 -0.2311  1.5984  0.8209
 1351SOL     OW 5493   6.929   5.128   5.975  0.7573 -0.5563 -0.6077
 1351SOL    HW1 5494   6.876   5.178   5.913  1.8306  0.1854 -0.9583
 1351SOL    HW2 5495   6.872   5.116   6.051 -0.0950 -0.2624 -1.1850
 1352SOL     OW 5496   0.814   5.927   1.327 -0.2008  0.0886  0.0544
 1352SOL    HW1 5497   0.782   5.967   1.408 -0.9565 -0.4415  0.0328
 1352SOL    HW2 5498   0.764   5.846   1.320  0.1512 -0.0635 -0.7383
 1353SOL     OW 5499   6.144   2.052   6.942 -0.2563  0.3233 -0.5561
 1353SOL    HW1 5500   6.090   1.988   6.987  1.3628  0.6017  1.9681
 1353SOL    HW2 5501   6.161   2.013   6.856 -0.9559 -1.6842  0.1658
 1354SOL     OW 5502   5.935   7.689   3.435  0.3677 -0.2876  0.2844
 1354SOL    HW1 5503   5.967   7.657   3.519  0.2140  0.2444  0.5433
 1354SOL    HW2 5504   5.999   7.656   3.372  1.3640  0.6484  0.7807
 1355SOL     OW 5505   5.679   0.808   1.847 -0.3305 -0.0311 -0.5447
 1355SOL    HW1 5506   5.637   0.758   1.777 -2.1122 -1.6319  1.5611
 1355SOL    HW2 5507   5.613   0.871   1.875 -0.8382 -1.4746  1.7193
 1356SOL     OW 5508   6.754   5.091   1.910 -0.1195  0.5728  0.0830
 1356SOL    HW1 5509   6.843   5.122   1.924  1.0126 -2.7483  1.2538
 1356SOL    HW2 5510   6.707   5.116   1.989  1.0706 -1.4824  1.5219
 1357SOL     OW 5511   6.314   1.495  12.171  0.2668 -0.3360  0.2059
 1357SOL    HW1 5512   6.372   1.509  12.096 -0.5337 -0.4568 -0.4621
 1357SOL    HW2 5513   6.236   1.546  12.150  0.3331  0.2599  1.3386
 1358SOL     OW 5514   5.387   1.021   3.582 -0.4192 -0.2092  0.1231
 1358SOL    HW1 5515   5.364   1.114   3.578  2.4275  0.6415  0.7633
 1358SOL    HW2 5516   5.359   0.993   3.669 -1.5631 -0.0467 -0.1841
 1359SOL     OW 5517   2.468   3.406   5.215  0.0503 -0.0891  1.0134
 1359SOL    HW1 5518   2.374   3.408   5.198  0.3705 -0.6790 -1.0741
 1359SOL    HW2 5519   2.477   3.358   5.297 -1.3420 -2.2339 -0.0172
 1360SOL     OW 5520   3.418   1.727   6.789  0.0002  0.4080 -0.1024
 1360SOL    HW1 5521   3.362   1.654   6.762  0.7243 -0.7170  1.2870
 1360SOL    HW2 5522   3.493   1.722   6.729 -0.8903  1.3526 -1.3669
 1361SOL     OW 5523   2.448   1.981   5.211 -0.3371  0.1361 -0.0968
 1361SOL    HW1 5524   2.462   2.047   5.280 -0.0315  0.3036 -0.3200
 1361SOL    HW2 5525   2.512   2.003   5.144 -2.0096  1.2854 -1.4024
 1362SOL     OW 5526   5.092   4.607  11.100 -0.3259  0.0356 -0.2239
 1362SOL    HW1 5527   5.176   4.582  11.138  0.1426  1.4726 -0.2329
 1362SOL    HW2 5528   5.052   4.525  11.071  1.8019 -0.5561 -1.7148
 1363SOL     OW 5529   7.768   7.619  11.284  1.1201 -0.2251 -0.4773
 1363SOL    HW1 5530   7.674   7.603  11.295  0.9632  0.0183 -1.4392
 1363SOL    HW2 5531   7.773   7.697  11.230  1.8875  1.0227  1.3018
 1364SOL     OW 5532   4.016   5.830   2.695 -0.1855 -0.2343 -0.0018
 1364SOL    HW1 5533   4.041   5.878   2.774 -0.1225  0.1475 -0.2493
 1364SOL    HW2 5534   4.088   5.844   2.635 -0.4196 -0.1794 -0.2726
 1365SOL     OW 5535   6.164   5.450   5.334 -0.1370  0.2005  0.0548
 1365SOL    HW1 5536   6.081   5.422   5.372  0.8022 -1.0326  1.2933
 1365SOL    HW2 5537   6.207   5.368   5.308  0.8553  0.7864 -0.1940
 1366SOL     OW 5538   7.664   7.030   7.729  0.4489 -0.6042  0.0692
 1366SOL    HW1 5539   7.742   6.974   7.729 -1.5335 -3.5605  0.7250
 1366SOL    HW2 5540   7.686   7.100   7.791  2.4852 -1.4831  0.4359
 1367SOL     OW 5541   1.125   3.274   7.921  0.0929  0.1822 -0.3963
 1367SOL    HW1 5542   1.163   3.360   7.903 -0.9592  0.7002 -0.2034
 1367SOL    HW2 5543   1.081   3.249   7.840 -0.4267  0.2697 -0.1431
 1368SOL     OW 5544   5.283   5.944   0.392 -0.4532  0.3177 -0.3781
 1368SOL    HW1 5545   5.285   5.920   0.485 -0.3331 -0.9255 -0.6830
 1368SOL    HW2 5546   5.286   6.040   0.392  0.3819  0.3153  0.8764
 1369SOL     OW 5547   2.663   0.335   9.197 -0.0443  0.3396  0.2543
 1369SOL    HW1 5548   2.717   0.337   9.118  0.0187 -0.7671  0.2509
 1369SOL    HW2 5549   2.631   0.424   9.207  0.3945  0.6145 -0.7144
 1370SOL     OW 5550   7.474   0.956   4.687 -0.3466  0.0085 -0.0816
 1370SOL    HW1 5551   7.519   0.897   4.748 -1.0257 -0.4537 -0.0144
 1370SOL    HW2 5552   7.465   1.038   4.736 -0.1105 -0.0838  0.1221
 1371SOL     OW 5553   1.972   5.658   4.914 -0.1123  0.4553  0.1398
 1371SOL    HW1 5554   2.002   5.738   4.871 -0.2416 -0.0310 -0.8769
 1371SOL    HW2 5555   1.925   5.688   4.991 -0.7233  1.3833 -0.5842
 1372SOL     OW 5556   0.108   5.178   6.320  0.4216  0.7929  0.0618
 1372SOL    HW1 5557   0.118   5.146   6.410 -2.5557  0.1549  0.2774
 1372SOL    HW2 5558   0.096   5.099   6.267  1.4651  1.1989 -0.8251
 1373SOL     OW 5559   6.519   3.066   4.007  0.3752  0.4199 -0.5393
 1373SOL    HW1 5560   6.529   3.155   3.971  0.2353  0.5179 -0.3383
 1373SOL    HW2 5561   6.607   3.042   4.035  0.3849  0.5572 -0.4503
 1374SOL     OW 5562   2.063   1.304   6.887 -0.1063  0.0055  0.0180
 1374SOL    HW1 5563   2.012   1.349   6.954 -1.5832  0.1558 -1.1460
 1374SOL    HW2 5564   2.140   1.271   6.933 -0.3121  1.4037  1.4565
 1375SOL     OW 5565   5.247   2.380   6.879 -0.4293 -0.3346 -0.1168
 1375SOL    HW1 5566   5.203   2.447   6.825 -0.0903 -1.0739 -1.3443
 1375SOL    HW2 5567   5.176   2.320   6.904 -0.3367 -0.8899 -1.1318
 1376SOL     OW 5568   7.743   1.932   6.249  0.4365  0.0997  0.5160
 1376SOL    HW1 5569   7.648   1.931   6.259  0.5602 -0.8620  1.9932
 1376SOL    HW2 5570   7.758   1.915   6.157 -0.8099 -3.6707  0.8433
 1377SOL     OW 5571   2.796   5.723   7.984 -0.0904 -0.1827 -0.3051
 1377SOL    HW1 5572   2.874   5.668   7.982 -0.7515 -1.1626  0.1211
 1377SOL    HW2 5573   2.727   5.666   8.018 -0.8031  0.9043  0.1374
 1378SOL     OW 5574   5.083   6.309  11.481  0.6663 -0.1981 -0.2866
 1378SOL    HW1 5575   5.035   6.240  11.527 -0.0255 -0.1418 -0.9141
 1378SOL    HW2 5576   5.025   6.385  11.485 -0.2042 -0.6548 -2.7513
 1379SOL     OW 5577   6.006   0.040   7.706 -0.5276 -0.9254 -0.1122
 1379SOL    HW1 5578   6.023   0.124   7.747 -1.1095 -1.2924  0.9300
 1379SOL    HW2 5579   6.015   0.056   7.612 -0.2574  0.1993  0.0958
 1380SOL     OW 5580   0.877   0.061   0.490  0.2683  0.1003 -0.1216
 1380SOL    HW1 5581   0.963   0.086   0.456  0.7479  0.0641  1.0184
 1380SOL    HW2 5582   0.885  -0.032   0.509 -0.5004 -0.2441 -1.3651
 1381SOL     OW 5583   1.191   4.471   1.464 -1.0028  0.0274  1.0045
 1381SOL    HW1 5584   1.098   4.453   1.481 -1.2876 -0.8841 -1.1954
 1381SOL    HW2 5585   1.203   4.450   1.372  0.7108  3.0690  0.3995
 1382SOL     OW 5586   3.958   7.155  12.228  0.1180  0.3823 -0.2609
 1382SOL    HW1 5587   3.940   7.061  12.234  1.6363 -0.0165 -1.3243
 1382SOL    HW2 5588   3.956   7.186  12.318 -1.5258 -0.4202  0.0159
 1383SOL     OW 5589   6.366   4.900   3.937 -0.2806 -0.1132 -0.4369
 1383SOL    HW1 5590   6.443   4.843   3.942 -0.1965  0.0393  0.0429
 1383SOL    HW2 5591   6.365   4.946   4.021 -1.8531 -1.3274  0.2450
 1384SOL     OW 5592   6.387   7.546   1.120 -0.4860  0.3601 -0.1087
 1384SOL    HW1 5593   6.402   7.628   1.074 -1.4023  0.5250 -0.1234
 1384SOL    HW2 5594   6.456   7.488   1.089 -0.4601  0.7990 -0.8885
 1385SOL     OW 5595   2.574   6.230  11.240  0.7712  0.1629  0.5119
 1385SOL    HW1 5596   2.590   6.140  11.268 -0.0757 -0.4050 -0.7357
 1385SOL    HW2 5597   2.479   6.240  11.242  0.6282  0.0592 -2.0561
 1386SOL     OW 5598   7.073   5.978   4.305 -0.2345 -0.4823  0.1238
 1386SOL    HW1 5599   7.052   5.891   4.340 -0.4905 -0.3398  0.3300
 1386SOL    HW2 5600   7.030   5.980   4.219 -3.8995  0.9468  1.7732
 1387SOL     OW 5601   0.416   2.273   1.411 -0.8537 -0.2991  0.1132
 1387SOL    HW1 5602   0.387   2.196   1.361  0.1227 -1.7769  1.7151
 1387SOL    HW2 5603   0.339   2.301   1.460 -1.3353  0.0634 -0.8177
 1388SOL     OW 5604   6.236   7.678   5.353 -0.1629  0.1234  0.6436
 1388SOL    HW1 5605   6.144   7.654   5.343  0.4184 -2.0173 -0.0517
 1388SOL    HW2 5606   6.267   7.691   5.263  0.5654 -0.6868  0.7689
 1389SOL     OW 5607   6.191   0.101   8.169 -0.0890 -0.0954 -0.2820
 1389SOL    HW1 5608   6.268   0.113   8.115  2.6061 -1.8656  2.7866
 1389SOL    HW2 5609   6.138   0.179   8.153  2.0587  1.0002 -2.8773
 1390SOL     OW 5610   6.871   2.200   4.159 -0.0372  0.4114 -0.7662
 1390SOL    HW1 5611   6.936   2.220   4.092  0.3427  0.1163 -0.4882
 1390SOL    HW2 5612   6.796   2.256   4.137  0.6820  1.5207 -0.5087
 1391SOL     OW 5613   7.710   3.066   7.104  0.0400 -0.7208 -0.3063
 1391SOL    HW1 5614   7.778   3.124   7.069  0.2490 -1.4055 -1.0628
 1391SOL    HW2 5615   7.701   3.093   7.195 -1.3870  1.9881 -1.1152
 1392SOL     OW 5616   1.704   0.553   4.897 -0.1584  0.5966 -0.1029
 1392SOL    HW1 5617   1.789   0.520   4.870 -0.3771 -1.4859  1.5075
 1392SOL    HW2 5618   1.724   0.625   4.958  0.4253  0.6377 -0.3382
 1393SOL     OW 5619   1.577   5.222   1.745 -0.4138  0.0657 -0.0222
 1393SOL    HW1 5620   1.574   5.191   1.654  1.9824 -0.2109 -0.0745
 1393SOL    HW2 5621   1.630   5.157   1.791 -1.1972  0.4526  1.4908
 1394SOL     OW 5622   0.731   1.041  10.355  0.2247 -0.4288  0.6697
 1394SOL    HW1 5623   0.688   0.974  10.302 -0.8736  1.7098 -1.3212
 1394SOL    HW2 5624   0.687   1.038  10.440  1.1609 -3.0725  1.1517
 1395SOL     OW 5625   1.818   6.299   9.928 -0.1903  0.7811  0.0994
 1395SOL    HW1 5626   1.899   6.292   9.979 -0.4985  2.8680  0.9751
 1395SOL    HW2 5627   1.792   6.208   9.913  1.7398  0.0608  0.6933
 1396SOL     OW 5628   2.552   7.161   6.933  0.5226  0.4443 -1.1398
 1396SOL    HW1 5629   2.607   7.227   6.892  0.1409  1.2080 -0.4432
 1396SOL    HW2 5630   2.546   7.091   6.868  1.2947  0.8943 -1.7056
 1397SOL     OW 5631   1.910   5.223   3.368  0.0920 -0.4323  0.3145
 1397SOL    HW1 5632   1.967   5.147   3.377  0.3831 -0.2467  0.0890
 1397SOL    HW2 5633   1.887   5.247   3.458  0.0700 -0.7326  0.3879
 1398SOL     OW 5634   4.414   4.626   0.247  0.1188 -0.6499  0.3978
 1398SOL    HW1 5635   4.467   4.657   0.174  1.5535 -1.8100  0.9028
 1398SOL    HW2 5636   4.460   4.548   0.279 -0.6367 -0.3621  2.3266
 1399SOL     OW 5637   2.499   4.003   8.830  0.0959  0.4979  0.0657
 1399SOL    HW1 5638   2.504   4.052   8.913 -0.5099 -0.0661  0.4410
 1399SOL    HW2 5639   2.584   3.960   8.823  0.2923  0.8595  0.1975
 1400SOL     OW 5640   3.082   5.763   9.955 -0.0547 -0.3428 -0.4072
 1400SOL    HW1 5641   3.064   5.672   9.979 -0.0931  0.2239  1.9419
 1400SOL    HW2 5642   3.177   5.768   9.950  0.1578  0.0537  2.3488
 1401SOL     OW 5643   4.499   7.065  11.569  0.4692 -0.0805  0.1878
 1401SOL    HW1 5644   4.561   6.992  11.565 -0.7585 -1.3445  2.2117
 1401SOL    HW2 5645   4.443   7.054  11.493  1.0886 -0.5016 -0.2145
 1402SOL     OW 5646   7.321   6.168   7.644 -0.1451  0.1119 -0.0055
 1402SOL    HW1 5647   7.370   6.211   7.575  0.4110  1.8722  1.4259
 1402SOL    HW2 5648   7.236   6.212   7.645 -0.4243 -0.4157 -0.0444
 1403SOL     OW 5649   1.661   4.148   2.702 -0.4546 -0.1671  0.2188
 1403SOL    HW1 5650   1.578   4.191   2.684 -1.4413 -2.2140 -0.5052
 1403SOL    HW2 5651   1.663   4.141   2.798 -0.4933  1.0215  0.3150
 1404SOL     OW 5652   6.865   2.414   0.801  0.7447  0.2465 -0.4423
 1404SOL    HW1 5653   6.915   2.390   0.723  2.5683 -1.2847  1.0975
 1404SOL    HW2 5654   6.890   2.349   0.867 -0.2600  1.8210  1.6177
 1405SOL     OW 5655   1.413   5.180  10.733 -0.0214 -0.8057  0.2076
 1405SOL    HW1 5656   1.442   5.268  10.758 -1.1415 -0.2106 -0.5281
 1405SOL    HW2 5657   1.358   5.193  10.656  1.2105 -2.3307 -1.0077
 1406SOL     OW 5658   5.322   3.261   5.096 -0.0465 -0.0944  0.2056
 1406SOL    HW1 5659   5.339   3.295   5.184  0.8191  0.2403 -0.0768
 1406SOL    HW2 5660   5.353   3.330   5.037 -0.8863 -0.1928 -0.3645
 1407SOL     OW 5661   5.314   7.261   2.010 -0.2060  0.6930  0.4265
 1407SOL    HW1 5662   5.278   7.350   2.006  0.5868  0.9893 -2.2586
 1407SOL    HW2 5663   5.244   7.209   2.051 -0.5640  2.5393  2.3410
 1408SOL     OW 5664   0.375   6.601   1.802  0.1628 -0.5068  0.5597
 1408SOL    HW1 5665   0.311   6.617   1.871 -1.0096  0.2903 -0.6579
 1408SOL    HW2 5666   0.432   6.678   1.805 -1.3213  0.7338 -0.8240
 1409SOL     OW 5667   0.732   1.109   0.962  0.0952  0.2518  0.1555
 1409SOL    HW1 5668   0.760   1.196   0.990  2.5871 -0.3792 -0.1267
 1409SOL    HW2 5669   0.750   1.053   1.037 -0.2506 -0.2555 -0.1342
 1410SOL     OW 5670   5.265   2.198   2.608  0.1819  0.5257  0.3372
 1410SOL    HW1 5671   5.221   2.282   2.619 -0.1810  0.7504 -2.2097
 1410SOL    HW2 5672   5.193   2.134   2.601  0.4329  0.1062  1.4893
 1411SOL     OW 5673   4.522   1.961   5.290  0.4773 -0.1766  0.5046
 1411SOL    HW1 5674   4.492   2.034   5.236 -1.3631 -0.6187  0.8657
 1411SOL    HW2 5675   4.549   1.894   5.227 -0.4649 -0.2154  0.1295
 1412SOL     OW 5676   7.593   0.540   6.991 -0.1348  0.0055  0.0105
 1412SOL    HW1 5677   7.592   0.550   6.896  0.6210  0.1032  0.0032
 1412SOL    HW2 5678   7.686   0.527   7.012  0.0258  2.2793  0.9450
 1413SOL     OW 5679   6.385   2.871  10.012 -0.0876 -0.4865 -0.4863
 1413SOL    HW1 5680   6.436   2.835   9.939  0.8657 -0.7100  0.2696
 1413SOL    HW2 5681   6.342   2.795  10.051 -1.6644 -0.2076 -1.5852
 1414SOL     OW 5682   6.549   0.969   3.251 -0.2694 -0.1939 -0.1544
 1414SOL    HW1 5683   6.619   0.987   3.188  0.0334  2.1506  0.7748
 1414SOL    HW2 5684   6.469   0.971   3.198  0.0937  0.3814 -0.7056
 1415SOL     OW 5685   5.176   3.060   3.042  0.5424  0.4013 -0.0872
 1415SOL    HW1 5686   5.178   3.059   3.138  1.6306 -0.0198 -0.0918
 1415SOL    HW2 5687   5.104   3.002   3.019  0.3689  0.3859  0.4793
 1416SOL     OW 5688   5.563   5.272   3.292 -0.1947 -1.0583 -0.3088
 1416SOL    HW1 5689   5.632   5.247   3.354  1.1709  0.5541 -1.0791
 1416SOL    HW2 5690   5.484   5.278   3.346  0.9196  0.1734  1.3271
 1417SOL     OW 5691   4.883   0.529   0.740 -0.2638 -0.1848  0.1697
 1417SOL    HW1 5692   4.821   0.595   0.772  0.7634 -0.6593  3.5729
 1417SOL    HW2 5693   4.935   0.576   0.675 -3.8248  0.3034 -2.6538
 1418SOL     OW 5694   5.044   6.536   1.160  0.3846 -0.5998 -0.6888
 1418SOL    HW1 5695   4.980   6.469   1.135 -0.0247 -0.0054 -1.2796
 1418SOL    HW2 5696   5.091   6.498   1.234  0.7775 -1.9063 -1.5794
 1419SOL     OW 5697   2.038   6.572   1.254 -0.2972 -0.1581 -0.2639
 1419SOL    HW1 5698   2.006   6.489   1.289 -0.5715 -2.0846 -4.4727
 1419SOL    HW2 5699   1.961   6.629   1.251 -1.2263 -1.4350 -1.5707
 1420SOL     OW 5700   5.777   5.695   6.799 -0.4797  0.2170  0.0742
 1420SOL    HW1 5701   5.845   5.756   6.770 -0.6580  0.9108  1.0496
 1420SOL    HW2 5702   5.823   5.636   6.860 -0.5204  0.0013 -0.1032
 1421SOL     OW 5703   4.887   7.355  10.365 -0.2975  0.0116  0.4812
 1421SOL    HW1 5704   4.970   7.377  10.323 -1.7657 -0.6123 -3.2232
 1421SOL    HW2 5705   4.910   7.307  10.444  2.7977  1.6005  0.6856
 1422SOL     OW 5706   0.178   2.078   6.586  0.2634 -0.3152 -0.0159
 1422SOL    HW1 5707   0.238   2.135   6.538 -1.5130  0.8682 -0.9388
 1422SOL    HW2 5708   0.216   1.990   6.576  1.0146  0.1760 -1.9191
 1423SOL     OW 5709   2.754   0.121   0.997 -0.2558 -0.0219  0.4443
 1423SOL    HW1 5710   2.737   0.027   1.008  2.2675 -0.7436 -1.1062
 1423SOL    HW2 5711   2.690   0.149   0.931  0.0085 -1.0379 -0.2667
 1424SOL     OW 5712   0.342   3.914   7.545 -0.3919  0.0099 -0.1034
 1424SOL    HW1 5713   0.327   3.820   7.546  0.7792 -0.2640 -2.4724
 1424SOL    HW2 5714   0.290   3.946   7.472  0.1233  1.0289 -0.0444
 1425SOL     OW 5715   0.992   0.482   0.061  0.4491 -0.5491 -0.4617
 1425SOL    HW1 5716   0.900   0.458   0.071  0.7661 -1.8228 -0.4734
 1425SOL    HW2 5717   1.004   0.494  -0.033  0.2607 -0.2065 -0.4443
 1426SOL     OW 5718   5.944   4.177   6.777 -0.1777 -0.0686  0.2256
 1426SOL    HW1 5719   6.009   4.164   6.846  0.8356 -0.4095 -0.7732
 1426SOL    HW2 5720   5.971   4.119   6.706 -1.1377  0.3607 -0.5217
 1427SOL     OW 5721   2.004   1.955   0.239  0.6427 -0.2886  0.3242
 1427SOL    HW1 5722   2.046   1.892   0.181  2.8319  0.6420  0.8110
 1427SOL    HW2 5723   2.026   1.926   0.327 -0.3510 -0.1510  0.6365
 1428SOL     OW 5724   3.916   3.811  10.166  0.1150  0.0918  0.1299
 1428SOL    HW1 5725   3.846   3.787  10.106 -0.0782 -0.5806  0.6095
 1428SOL    HW2 5726   3.871   3.846  10.243  0.3867  1.9778 -0.5118
 1429SOL     OW 5727   6.079   6.587   5.969 -0.3882 -0.1731  0.1446
 1429SOL    HW1 5728   6.149   6.533   5.933 -1.7285 -1.8413 -0.0794
 1429SOL    HW2 5729   6.119   6.632   6.043  1.0747 -0.5748 -0.3682
 1430SOL     OW 5730   7.044   1.954  10.456  0.1586 -0.0185 -0.3753
 1430SOL    HW1 5731   7.056   2.039  10.413 -0.1226 -0.3978 -1.2344
 1430SOL    HW2 5732   7.004   1.899  10.389  1.2152 -1.1147 -0.1342
 1431SOL     OW 5733   5.606   0.836   9.524 -0.1382  0.0157  0.0464
 1431SOL    HW1 5734   5.628   0.744   9.539 -1.1566 -0.5178 -1.4651
 1431SOL    HW2 5735   5.675   0.885   9.569  1.2537 -1.4999 -0.3335
 1432SOL     OW 5736   6.580   4.661   9.917 -0.1794 -0.4012  0.1470
 1432SOL    HW1 5737   6.506   4.601   9.907 -0.7268  0.3301 -0.3284
 1432SOL    HW2 5738   6.611   4.677   9.828 -1.4994  1.7624 -0.0117
 1433SOL     OW 5739   7.529   3.630  11.226 -0.8194 -0.3620 -0.1859
 1433SOL    HW1 5740   7.623   3.649  11.224 -0.9622  0.6235  1.3347
 1433SOL    HW2 5741   7.523   3.537  11.203  0.4932 -0.3496 -0.6548
 1434SOL     OW 5742   2.474   6.825   5.796 -0.1752  0.2926  0.3968
 1434SOL    HW1 5743   2.439   6.803   5.883  1.0366  0.1126  0.8580
 1434SOL    HW2 5744   2.558   6.780   5.792 -0.2457  0.2573 -0.9070
 1435SOL     OW 5745   1.372   7.797   3.569 -0.6265  0.4108 -0.3696
 1435SOL    HW1 5746   1.451   7.797   3.514 -2.3172  1.0729 -3.0034
 1435SOL    HW2 5747   1.317   7.728   3.531 -0.9364 -0.8126  2.1143
 1436SOL     OW 5748   2.243   4.638   4.330 -0.8517  0.0709 -0.3917
 1436SOL    HW1 5749   2.292   4.716   4.356  0.4452 -0.3412 -1.4941
 1436SOL    HW2 5750   2.308   4.568   4.325 -1.5082 -0.4911 -1.9137
 1437SOL     OW 5751   5.117   0.213   2.859 -0.4767  0.0552 -0.8190
 1437SOL    HW1 5752   5.182   0.283   2.854  0.6965 -1.0305 -1.4889
 1437SOL    HW2 5753   5.134   0.171   2.943  0.1073 -0.6030 -1.2572
 1438SOL     OW 5754   3.587   4.419   2.200 -0.3132 -0.0257  0.4592
 1438SOL    HW1 5755   3.677   4.427   2.166 -0.7138 -1.2355 -1.0273
 1438SOL    HW2 5756   3.552   4.508   2.194 -0.0312  0.0098 -1.5098
 1439SOL     OW 5757   5.120   4.168  10.381 -0.4560  0.0313  0.2075
 1439SOL    HW1 5758   5.122   4.223  10.303 -1.0264  0.9560  0.8307
 1439SOL    HW2 5759   5.036   4.188  10.423  0.3212  0.4134  1.6525
 1440SOL     OW 5760   7.030   0.747  11.569 -0.0456 -0.7781  0.3660
 1440SOL    HW1 5761   6.938   0.769  11.552 -0.3070 -1.3396  1.0177
 1440SOL    HW2 5762   7.050   0.678  11.507 -0.1243 -0.7838  0.3467
 1441SOL     OW 5763   1.422   0.592   8.305 -0.3804  0.3885  0.0715
 1441SOL    HW1 5764   1.427   0.536   8.382 -0.4682 -0.7215 -0.6974
 1441SOL    HW2 5765   1.358   0.548   8.248 -0.1881  1.0831 -0.6980
 1442SOL     OW 5766   7.974   2.536   9.382 -0.5149  0.0187  0.1311
 1442SOL    HW1 5767   8.050   2.481   9.366  0.7214  1.3995  0.9648
 1442SOL    HW2 5768   7.913   2.513   9.312  1.0175 -0.5247 -1.0896
 1443SOL     OW 5769   6.595   5.991  11.009  0.2004  0.5705 -0.1438
 1443SOL    HW1 5770   6.564   5.977  10.919 -1.6182 -1.3423  0.7085
 1443SOL    HW2 5771   6.565   6.080  11.030 -2.0830 -0.0503 -0.4597
 1444SOL     OW 5772   6.153   2.238  12.191 -0.1982 -0.4069  0.4715
 1444SOL    HW1 5773   6.107   2.243  12.274 -0.8346 -0.0537  0.1087
 1444SOL    HW2 5774   6.240   2.275  12.209  0.2739 -1.8550  1.3648
 1445SOL     OW 5775   5.909   2.062   5.390  0.5290  0.9381 -0.1520
 1445SOL    HW1 5776   5.823   2.071   5.431  0.9593  2.3607  0.4968
 1445SOL    HW2 5777   5.923   1.968   5.385 -1.2531  0.6551 -0.6836
 1446SOL     OW 5778   2.572   3.718   1.446  0.5733 -0.2221 -0.3229
 1446SOL    HW1 5779   2.602   3.776   1.516  0.8619  0.0393 -0.6590
 1446SOL    HW2 5780   2.508   3.661   1.488  0.4988  0.1513  0.0803
 1447SOL     OW 5781   4.607   3.234   3.925  0.5528 -0.3347  0.3958
 1447SOL    HW1 5782   4.547   3.280   3.983 -0.5996 -0.0792 -0.9561
 1447SOL    HW2 5783   4.569   3.147   3.915  0.2991 -0.1146 -0.6065
 1448SOL     OW 5784   2.298   3.414   7.598 -0.2025  0.5462  0.2274
 1448SOL    HW1 5785   2.294   3.473   7.674 -1.5923 -0.7659  1.2213
 1448SOL    HW2 5786   2.317   3.328   7.636  2.0020  0.3172 -1.2106
 1449SOL     OW 5787   6.763   2.747  11.824 -0.2144 -0.7088  0.1264
 1449SOL    HW1 5788   6.693   2.754  11.889  0.5105  1.4795  0.7748
 1449SOL    HW2 5789   6.718   2.746  11.740 -1.0906  1.2257  0.5077
 1450SOL     OW 5790   0.400   6.091   5.904 -0.0781 -0.2973  0.1121
 1450SOL    HW1 5791   0.403   6.164   5.842  0.3074  0.2730  0.7859
 1450SOL    HW2 5792   0.331   6.115   5.966  1.3314  0.4558  1.4619
 1451SOL     OW 5793   0.708   2.960  11.379  0.2682 -0.0621  0.5246
 1451SOL    HW1 5794   0.617   2.987  11.390 -0.8886 -2.2498 -2.4699
 1451SOL    HW2 5795   0.744   2.962  11.468 -1.8606  3.3257  1.5069
 1452SOL     OW 5796   2.811   3.754   7.037  0.4922  0.1287 -0.4198
 1452SOL    HW1 5797   2.871   3.681   7.019  0.8012  0.7175 -1.8910
 1452SOL    HW2 5798   2.849   3.828   6.991 -2.1418  0.1996 -2.7150
 1453SOL     OW 5799   2.891   3.809   0.569 -0.2388  0.0384 -0.0232
 1453SOL    HW1 5800   2.888   3.757   0.649 -3.3060 -2.4939 -1.5521
 1453SOL    HW2 5801   2.842   3.889   0.591 -0.9529 -0.5828  0.7191
 1454SOL     OW 5802   0.620   3.351  10.416  0.5217  0.1128  0.4183
 1454SOL    HW1 5803   0.545   3.312  10.461  1.0455 -0.0566  1.1609
 1454SOL    HW2 5804   0.583   3.388  10.336 -0.5972  1.2789  1.4348
 1455SOL     OW 5805   3.151   7.906   8.326  0.7246 -0.2746  0.9248
 1455SOL    HW1 5806   3.056   7.918   8.326  0.4843 -2.0121  1.2428
 1455SOL    HW2 5807   3.175   7.909   8.233  0.2927 -0.3407  0.8095
 1456SOL     OW 5808   1.059   1.017  10.053 -0.9695  0.1979  0.6238
 1456SOL    HW1 5809   0.971   1.052  10.038 -0.6827  0.9912  0.7308
 1456SOL    HW2 5810   1.115   1.070   9.996 -0.5563 -0.2829  0.5797
 1457SOL     OW 5811   4.656   2.998   1.408 -0.5764  0.1912  0.5005
 1457SOL    HW1 5812   4.750   2.986   1.419 -0.4059  0.4067 -0.5719
 1457SOL    HW2 5813   4.627   2.920   1.360 -0.7543  0.6055 -0.0784
 1458SOL     OW 5814   7.836   2.817   0.446 -0.0567  0.7264  0.3074
 1458SOL    HW1 5815   7.858   2.782   0.532  1.0990 -0.9472 -0.5968
 1458SOL    HW2 5816   7.741   2.803   0.438 -0.0377  0.1564  0.9892
 1459SOL     OW 5817   6.701   7.326   3.835  0.1634  0.0720 -0.4038
 1459SOL    HW1 5818   6.789   7.291   3.852 -0.3921 -3.1313 -3.1440
 1459SOL    HW2 5819   6.642   7.270   3.885 -0.5031  0.0802 -1.1620
 1460SOL     OW 5820   6.603   4.076   7.804 -0.2880  0.0852  0.0596
 1460SOL    HW1 5821   6.565   4.025   7.876 -0.9028  0.0545 -0.2897
 1460SOL    HW2 5822   6.643   4.010   7.747  0.3811  0.1238  0.4682
 1461SOL     OW 5823   0.519   2.411   1.794 -0.4509 -0.1695 -0.5974
 1461SOL    HW1 5824   0.604   2.453   1.805  0.1945 -1.8080  1.3247
 1461SOL    HW2 5825   0.459   2.482   1.770  1.4086  1.0202 -1.9496
 1462SOL     OW 5826   2.484   3.002   2.806  0.4144  0.0611 -0.5795
 1462SOL    HW1 5827   2.521   2.972   2.723  0.8347  0.2733 -0.4747
 1462SOL    HW2 5828   2.560   3.011   2.864  0.0231 -0.9909  0.1223
 1463SOL     OW 5829   3.992   4.194  10.295  0.5394  0.2613 -0.0781
 1463SOL    HW1 5830   3.896   4.193  10.302  0.5180 -0.1062 -0.3634
 1463SOL    HW2 5831   4.010   4.249  10.219  0.5299 -0.0582 -0.3147
 1464SOL     OW 5832   5.906   4.003   3.069  0.3333 -0.8446 -0.2983
 1464SOL    HW1 5833   5.920   4.006   3.164  1.2699 -1.1210 -0.4126
 1464SOL    HW2 5834   5.812   3.994   3.058  0.1778 -0.4266  0.6001
 1465SOL     OW 5835   2.868   1.090   6.300  0.3573 -0.1195  0.2792
 1465SOL    HW1 5836   2.864   1.053   6.388 -0.1679 -0.9123 -0.0630
 1465SOL    HW2 5837   2.789   1.058   6.257 -0.3244  1.7175  0.0716
 1466SOL     OW 5838   1.298   1.838  12.263 -0.0298 -0.1059  0.1160
 1466SOL    HW1 5839   1.228   1.795  12.214  0.0523 -0.5886  0.4121
 1466SOL    HW2 5840   1.354   1.766  12.292  0.2357  0.2233  0.4269
 1467SOL     OW 5841   7.284   2.496   8.890 -0.0156  0.6016  0.2452
 1467SOL    HW1 5842   7.297   2.493   8.985 -0.4202  3.3515  0.4783
 1467SOL    HW2 5843   7.255   2.586   8.873  1.1888  0.5437 -2.6385
 1468SOL     OW 5844   3.192   2.768   5.925  0.0387 -0.2739 -0.1884
 1468SOL    HW1 5845   3.216   2.826   5.996 -0.4353  1.5551 -1.4426
 1468SOL    HW2 5846   3.158   2.826   5.857 -0.4216 -2.0261 -1.5401
 1469SOL     OW 5847   1.005   1.453  11.425  0.1665 -0.6074  0.5308
 1469SOL    HW1 5848   0.990   1.499  11.342 -0.8253 -1.4860  0.2054
 1469SOL    HW2 5849   1.053   1.516  11.479  0.1767  0.2427 -0.4457
 1470SOL     OW 5850   3.608   0.122  10.593  0.1270 -0.4841 -0.2168
 1470SOL    HW1 5851   3.596   0.102  10.686  0.1423  0.7641  0.0695
 1470SOL    HW2 5852   3.703   0.138  10.585  0.1147 -0.5220 -0.4325
 1471SOL     OW 5853   2.438   5.021   0.809  0.2551 -0.2638  0.0732
 1471SOL    HW1 5854   2.458   4.938   0.851  0.5521 -0.3392 -0.2113
 1471SOL    HW2 5855   2.390   5.071   0.875 -1.4219 -1.3003 -0.3136
 1472SOL     OW 5856   4.551   5.460   2.881  0.3413 -0.5692  0.1216
 1472SOL    HW1 5857   4.484   5.395   2.904 -0.1546 -0.1225 -0.0335
 1472SOL    HW2 5858   4.599   5.475   2.962 -1.4424  1.0664  0.9522
 1473SOL     OW 5859   0.160   6.051  11.553 -0.2723  0.0323  0.0453
 1473SOL    HW1 5860   0.095   6.065  11.622  0.5419  0.9485  0.6511
 1473SOL    HW2 5861   0.143   6.121  11.489  0.1024  0.2671  0.2000
 1474SOL     OW 5862   4.156   1.501   1.865 -0.7580 -0.2195  0.2158
 1474SOL    HW1 5863   4.174   1.544   1.948  0.9174 -0.7506  0.1727
 1474SOL    HW2 5864   4.094   1.431   1.886  0.1917 -0.7917  1.1586
 1475SOL     OW 5865   5.195   4.959   0.928 -0.7426  0.0696  0.6681
 1475SOL    HW1 5866   5.172   4.950   0.836 -1.1558  0.4976  0.7258
 1475SOL    HW2 5867   5.179   4.872   0.965 -0.8617 -0.0226  0.4019
 1476SOL     OW 5868   0.267   1.706  10.871 -0.2336 -0.5965 -0.4293
 1476SOL    HW1 5869   0.281   1.629  10.815 -0.2254 -2.8068  2.3523
 1476SOL    HW2 5870   0.204   1.760  10.823 -0.1223 -2.2376 -2.5818
 1477SOL     OW 5871   1.267   2.775  12.144 -0.8795 -0.2592 -0.2235
 1477SOL    HW1 5872   1.338   2.743  12.088 -0.2121  2.4409 -1.0384
 1477SOL    HW2 5873   1.196   2.796  12.083 -0.9372  0.6785  0.1556
 1478SOL     OW 5874   0.975   7.323  12.218 -0.3491 -0.0405 -0.6090
 1478SOL    HW1 5875   0.909   7.255  12.217  0.0660 -0.4580 -2.0863
 1478SOL    HW2 5876   1.031   7.304  12.142  1.8497 -0.0771  0.9130
 1479SOL     OW 5877   6.628   5.573   8.066 -0.2996  0.3225  0.0672
 1479SOL    HW1 5878   6.583   5.521   7.999 -0.3181  1.4519 -0.8276
 1479SOL    HW2 5879   6.693   5.624   8.017 -0.6667  1.5678  0.8325
 1480SOL     OW 5880   0.397   2.862   2.495 -0.4146  0.5681 -0.3731
 1480SOL    HW1 5881   0.455   2.938   2.492 -1.1060  1.0820 -1.3556
 1480SOL    HW2 5882   0.315   2.896   2.532 -0.3041 -0.0033  0.4081
 1481SOL     OW 5883   7.825   2.929  11.974  0.2241  0.0457  0.1135
 1481SOL    HW1 5884   7.731   2.910  11.979  0.4877 -1.3519  0.1533
 1481SOL    HW2 5885   7.848   2.913  11.883  0.9031 -2.1903  0.6213
 1482SOL     OW 5886   3.922   4.305   7.156 -0.1763 -0.0281 -0.4907
 1482SOL    HW1 5887   3.965   4.381   7.196 -1.1557  1.7440 -2.5724
 1482SOL    HW2 5888   3.930   4.320   7.062 -1.1538 -2.1067 -0.9561
 1483SOL     OW 5889   2.389   1.982   0.787 -0.2733 -0.2702 -0.0907
 1483SOL    HW1 5890   2.314   2.037   0.808 -0.5874 -0.4643 -0.7014
 1483SOL    HW2 5891   2.445   1.987   0.865 -0.7016  0.2332  0.1858
 1484SOL     OW 5892   0.488   3.872   5.481 -0.0197 -0.6750  0.9931
 1484SOL    HW1 5893   0.559   3.925   5.444 -0.2680  0.3711  1.9412
 1484SOL    HW2 5894   0.424   3.937   5.512 -0.5895 -1.5558  1.7090
 1485SOL     OW 5895   6.625   4.857   9.086  0.6772  0.0495  0.2271
 1485SOL    HW1 5896   6.656   4.903   9.163  0.0633 -1.1244  1.2133
 1485SOL    HW2 5897   6.703   4.842   9.033  0.9500  1.7483  0.1024
 1486SOL     OW 5898   0.102   0.655   4.756  0.0791 -0.5939  0.0376
 1486SOL    HW1 5899   0.021   0.628   4.800 -0.6308 -0.1432 -0.9470
 1486SOL    HW2 5900   0.111   0.593   4.684 -0.4462  0.4958 -1.0003
 1487SOL     OW 5901   5.472   3.586   8.684  0.4903 -0.6845 -0.3352
 1487SOL    HW1 5902   5.541   3.599   8.619  1.0650 -1.9098  0.0006
 1487SOL    HW2 5903   5.457   3.492   8.684 -0.9635 -0.4686 -0.1622
 1488SOL     OW 5904   6.402   7.482   5.510  0.0443 -0.1578 -0.1542
 1488SOL    HW1 5905   6.494   7.471   5.485  0.4566  2.1550  0.0969
 1488SOL    HW2 5906   6.375   7.562   5.465 -1.7154 -0.5226  0.1863
 1489SOL     OW 5907   0.139   0.108  10.078  0.0798 -0.0673  0.0057
 1489SOL    HW1 5908   0.052   0.136  10.108 -0.4241  1.9057 -2.8757
 1489SOL    HW2 5909   0.123   0.023  10.037 -0.1068 -0.5917  1.1390
 1490SOL     OW 5910   0.619   5.864   3.072 -0.7448  0.6750  0.0250
 1490SOL    HW1 5911   0.548   5.923   3.099  0.1572  1.7693  0.0890
 1490SOL    HW2 5912   0.698   5.906   3.105 -0.1118 -0.9106  0.6030
 1491SOL     OW 5913   0.032   1.734  12.373 -0.2821 -0.2488  0.6129
 1491SOL    HW1 5914   0.057   1.758  12.284 -0.2323 -1.9499  0.1371
 1491SOL    HW2 5915  -0.033   1.665  12.362 -0.7413 -0.0450  1.8979
 1492SOL     OW 5916   6.411   3.565   4.788 -0.5860 -0.5443  0.2289
 1492SOL    HW1 5917   6.357   3.600   4.718  0.9574  1.6406  0.0442
 1492SOL    HW2 5918   6.416   3.471   4.769 -2.3784 -0.4318 -1.0217
 1493SOL     OW 5919   4.680   5.529   3.329 -0.2890  0.4558 -0.3378
 1493SOL    HW1 5920   4.632   5.482   3.397  0.9238 -1.3876 -0.6794
 1493SOL    HW2 5921   4.629   5.608   3.313 -3.4334 -1.5547 -1.0021
 1494SOL     OW 5922   3.236   6.982   6.406  0.2688  0.7266 -0.3763
 1494SOL    HW1 5923   3.146   6.992   6.438 -0.1509 -3.0299  0.1297
 1494SOL    HW2 5924   3.286   6.959   6.484  1.1935  0.5083 -1.0282
 1495SOL     OW 5925   1.332   7.209  12.211  0.3481  0.1902 -0.0313
 1495SOL    HW1 5926   1.335   7.294  12.256  0.6644  0.4499 -0.5347
 1495SOL    HW2 5927   1.262   7.220  12.146  1.3144  0.5482 -1.0385
 1496SOL     OW 5928   3.134   6.327  10.528 -0.0881 -0.0452  0.5408
 1496SOL    HW1 5929   3.118   6.413  10.489  0.1120 -0.5946 -0.7966
 1496SOL    HW2 5930   3.048   6.299  10.560 -0.3842  0.1570 -0.0584
 1497SOL     OW 5931   6.757   0.788  11.489  0.3811  0.2576  0.1268
 1497SOL    HW1 5932   6.753   0.758  11.398  0.1025  2.1827 -0.5419
 1497SOL    HW2 5933   6.766   0.708  11.540 -3.2261 -1.2378 -1.2970
 1498SOL     OW 5934   7.968   7.229   9.858 -0.0548 -0.2864 -0.0942
 1498SOL    HW1 5935   7.924   7.314   9.870 -0.1279 -0.4060  0.4958
 1498SOL    HW2 5936   8.031   7.224   9.930 -0.2140 -0.8422  0.0072
 1499SOL     OW 5937   3.372   0.121   1.080  0.1921  0.2456  0.0139
 1499SOL    HW1 5938   3.361   0.079   0.995 -0.7881  0.5636 -0.0225
 1499SOL    HW2 5939   3.467   0.131   1.089  0.4432 -1.5776 -0.1597
 1500SOL     OW 5940   0.299   4.743   1.285 -0.5632  0.1471  0.1339
 1500SOL    HW1 5941   0.339   4.824   1.253 -0.3170  0.2369  0.6512
 1500SOL    HW2 5942   0.272   4.697   1.206 -0.5952  0.6782 -0.1704
 1501SOL     OW 5943   2.713   6.053   0.188  0.3454  0.7148 -0.1975
 1501SOL    HW1 5944   2.727   6.070   0.095  0.6771  0.0097 -0.2847
 1501SOL    HW2 5945   2.694   5.960   0.192 -1.8165  1.1342  0.2155
 1502SOL     OW 5946   6.259   5.981   8.859 -0.7458  0.4467 -0.4842
 1502SOL    HW1 5947   6.265   5.893   8.897  0.0996 -0.6352 -2.8974
 1502SOL    HW2 5948   6.203   6.030   8.919 -1.3624 -1.7852  0.8629
 1503SOL     OW 5949   5.241   4.506   0.042 -0.2089  0.2601 -0.2375
 1503SOL    HW1 5950   5.239   4.473  -0.048  0.0470  0.4998 -0.3299
 1503SOL    HW2 5951   5.206   4.595   0.036 -0.6965  0.0920 -0.0172
 1504SOL     OW 5952   0.155   7.138   4.154  0.2132  0.0478 -0.2559
 1504SOL    HW1 5953   0.124   7.213   4.205 -1.8301 -2.7513  3.0416
 1504SOL    HW2 5954   0.231   7.106   4.201  0.3140 -0.7088 -0.9122
 1505SOL     OW 5955   4.407   1.535   3.182  0.3847  0.1835  0.4268
 1505SOL    HW1 5956   4.501   1.524   3.170  0.4138  1.8983 -1.6352
 1505SOL    HW2 5957   4.371   1.446   3.178  1.7267 -0.3321 -1.0599
 1506SOL     OW 5958   2.617   5.745  10.635  0.5560  0.0707 -0.7123
 1506SOL    HW1 5959   2.565   5.687  10.690 -0.7408  0.5897 -1.3458
 1506SOL    HW2 5960   2.683   5.688  10.594  0.9719 -0.4690  0.6525
 1507SOL     OW 5961   5.920   2.546   1.404  0.0772 -0.1044  0.4344
 1507SOL    HW1 5962   5.951   2.597   1.329 -0.8229  1.6098  1.1783
 1507SOL    HW2 5963   5.859   2.483   1.366  2.2796 -1.6893 -0.6918
 1508SOL     OW 5964   1.422   6.420   1.635  0.7230 -0.0416 -0.0407
 1508SOL    HW1 5965   1.445   6.494   1.579 -0.1331 -0.4411 -0.9512
 1508SOL    HW2 5966   1.427   6.455   1.724  1.7044  0.7180 -0.3761
 1509SOL     OW 5967   4.580   4.994   0.774  0.0045  0.1128 -0.2255
 1509SOL    HW1 5968   4.638   4.974   0.848  1.1325 -0.5920 -1.2704
 1509SOL    HW2 5969   4.567   5.089   0.779  0.3207  0.1195  0.6946
 1510SOL     OW 5970   7.179   6.484  11.698  0.2127 -0.0252  0.7637
 1510SOL    HW1 5971   7.203   6.396  11.669 -2.8064 -0.8119  0.2460
 1510SOL    HW2 5972   7.203   6.487  11.791  0.1688 -1.4962  0.8434
 1511SOL     OW 5973   2.358   3.831   6.948  0.1454 -0.4883 -0.2897
 1511SOL    HW1 5974   2.424   3.784   6.998  1.8060 -0.9447 -2.7345
 1511SOL    HW2 5975   2.376   3.924   6.966 -1.0828 -0.6123  2.0067
 1512SOL     OW 5976   6.017   0.661  10.611 -0.2101 -0.6603 -0.3678
 1512SOL    HW1 5977   6.069   0.713  10.550  0.9539 -2.2893 -0.8437
 1512SOL    HW2 5978   5.984   0.724  10.675  0.9622  0.6715 -1.0248
 1513SOL     OW 5979   5.233   3.502   7.815  0.1554 -0.1120  0.2652
 1513SOL    HW1 5980   5.279   3.579   7.847 -0.0522 -0.6798  2.0162
 1513SOL    HW2 5981   5.141   3.530   7.808  0.4522  0.5497 -1.7098
 1514SOL     OW 5982   1.054   0.824   8.573 -0.0748  0.3076 -0.2223
 1514SOL    HW1 5983   1.051   0.918   8.552 -0.6711  0.1783 -0.7667
 1514SOL    HW2 5984   1.009   0.817   8.657  1.6806  0.7401  0.8112
 1515SOL     OW 5985   4.625   6.911   4.390 -0.0633 -0.1822 -0.1305
 1515SOL    HW1 5986   4.650   6.865   4.470 -0.6725 -2.8480 -1.3587
 1515SOL    HW2 5987   4.671   6.995   4.395  2.0969 -1.3748  1.7122
 1516SOL     OW 5988   4.702   2.132   6.966  0.2523  0.3257 -1.4981
 1516SOL    HW1 5989   4.762   2.206   6.972 -0.8296  1.2531 -1.6973
 1516SOL    HW2 5990   4.753   2.056   6.993  1.5275  1.0704 -1.7702
 1517SOL     OW 5991   4.920   1.347   7.932  0.1121 -0.3577  0.2096
 1517SOL    HW1 5992   4.983   1.408   7.969  3.1398 -3.3767  0.4700
 1517SOL    HW2 5993   4.889   1.390   7.852  1.6228  1.7447  0.6801
 1518SOL     OW 5994   7.093   2.670   0.750 -0.5900 -0.3247 -0.1196
 1518SOL    HW1 5995   7.128   2.759   0.746  1.9648 -1.2157  0.5987
 1518SOL    HW2 5996   7.134   2.632   0.828  0.8946 -3.0835 -2.0952
 1519SOL     OW 5997   0.170   3.856   2.492 -0.0374  0.1931 -0.4771
 1519SOL    HW1 5998   0.234   3.822   2.428 -0.2381 -0.8418 -0.1506
 1519SOL    HW2 5999   0.087   3.856   2.444 -0.5659 -2.3473  0.2447
 1520SOL     OW 6000   7.579   4.497   2.596 -0.4098  0.2358 -0.0420
 1520SOL    HW1 6001   7.493   4.457   2.581  1.0798 -2.9756 -0.8107
 1520SOL    HW2 6002   7.640   4.444   2.545  2.2601  1.5410  1.5582
 1521SOL     OW 6003   6.021   6.291  10.474 -0.0217  0.3098  0.5424
 1521SOL    HW1 6004   6.086   6.355  10.504  0.4970 -0.5750  1.3942
 1521SOL    HW2 6005   5.938   6.326  10.505  0.1844  0.8736  0.4723
 1522SOL     OW 6006   4.112   3.852   7.787  0.1130 -0.8276  0.1017
 1522SOL    HW1 6007   4.184   3.915   7.788  0.1851 -0.9089  0.0517
 1522SOL    HW2 6008   4.128   3.798   7.710  1.0903 -2.1000  1.1429
 1523SOL     OW 6009   7.467   2.935   1.653 -0.7162  0.5204 -0.1096
 1523SOL    HW1 6010   7.398   2.869   1.663  0.2068 -0.4483  0.0658
 1523SOL    HW2 6011   7.466   2.983   1.736 -1.2794  0.6269 -0.1725
 1524SOL     OW 6012   7.096   3.654  11.112  0.8547  0.1602  0.7154
 1524SOL    HW1 6013   7.107   3.727  11.053  1.3098 -0.0774  0.5022
 1524SOL    HW2 6014   7.140   3.580  11.069 -0.9227 -0.6502  0.1821
 1525SOL     OW 6015   1.466   1.064   7.017  0.0788  0.2418 -0.2627
 1525SOL    HW1 6016   1.418   1.068   6.935 -0.8832  0.3771  0.2857
 1525SOL    HW2 6017   1.398   1.056   7.084  0.6806  2.6020  0.7183
 1526SOL     OW 6018   5.544   7.127   1.919  0.0837 -0.2966  0.4085
 1526SOL    HW1 6019   5.596   7.188   1.972 -1.3643  0.6601  0.7987
 1526SOL    HW2 6020   5.457   7.167   1.915 -0.3950 -1.3798 -0.9869
 1527SOL     OW 6021   0.166   4.785   3.131  0.7956  0.4195  0.2431
 1527SOL    HW1 6022   0.175   4.789   3.226  1.7040 -0.3461  0.1979
 1527SOL    HW2 6023   0.115   4.863   3.109  2.0623  1.5645  1.1898
 1528SOL     OW 6024   2.273   6.698   1.369  0.9872 -0.5214 -0.4592
 1528SOL    HW1 6025   2.327   6.628   1.333 -0.4268 -1.6829 -0.3946
 1528SOL    HW2 6026   2.190   6.690   1.323 -0.4859 -1.3224  2.1594
 1529SOL     OW 6027   1.465   1.636  12.370  0.4815  0.1583  0.3177
 1529SOL    HW1 6028   1.450   1.645  12.464 -0.3529  1.5736  0.0869
 1529SOL    HW2 6029   1.505   1.550  12.360  1.1824  0.2401  2.0359
 1530SOL     OW 6030   2.675   4.386   6.214  0.0052 -0.4264 -0.1299
 1530SOL    HW1 6031   2.764   4.418   6.229  0.7445 -2.6669  0.6359
 1530SOL    HW2 6032   2.624   4.425   6.284  0.3285  0.9860 -0.6485
 1531SOL     OW 6033   0.974   7.616   1.672 -0.1300 -0.0074 -0.1897
 1531SOL    HW1 6034   0.903   7.647   1.615  0.0913  0.0735 -0.4195
 1531SOL    HW2 6035   0.987   7.524   1.647 -1.2460 -0.5213  0.9475
 1532SOL     OW 6036   5.584   5.042   0.146 -0.0314 -0.3858  0.0492
 1532SOL    HW1 6037   5.584   5.125   0.098 -0.0262  0.9008  2.1352
 1532SOL    HW2 6038   5.639   4.984   0.094  1.8304  1.6176 -0.3682
 1533SOL     OW 6039   4.944   5.417   0.198 -0.1556 -0.2897  0.4253
 1533SOL    HW1 6040   5.008   5.478   0.235  1.7006 -1.2100 -1.0786
 1533SOL    HW2 6041   4.980   5.330   0.219 -2.1654 -0.8979  1.5795
 1534SOL     OW 6042   1.625   5.748   1.277 -0.6083  0.4777  0.1398
 1534SOL    HW1 6043   1.607   5.674   1.334 -0.4045 -0.4120 -0.9093
 1534SOL    HW2 6044   1.574   5.730   1.198  0.0666  1.0432 -0.4404
 1535SOL     OW 6045   0.591   7.257   5.037  0.2795  0.4416  0.2388
 1535SOL    HW1 6046   0.587   7.226   4.946  0.3434 -1.4836  0.8664
 1535SOL    HW2 6047   0.577   7.352   5.030 -0.0181  0.2928 -1.7440
 1536SOL     OW 6048   5.085   7.107   6.591 -0.2310  0.4693 -0.3070
 1536SOL    HW1 6049   5.030   7.077   6.663 -0.4759 -1.0973 -1.1032
 1536SOL    HW2 6050   5.024   7.140   6.526 -0.1539 -0.0707 -0.6580
 1537SOL     OW 6051   3.020   3.291   7.070  0.2309 -0.0699  0.3745
 1537SOL    HW1 6052   3.109   3.277   7.039  0.4420 -0.9878  1.3185
 1537SOL    HW2 6053   3.028   3.295   7.165 -0.5558  1.3877  0.4006
 1538SOL     OW 6054   2.387   6.650   7.565 -0.1007 -0.0144 -0.2030
 1538SOL    HW1 6055   2.359   6.568   7.606 -1.9866  0.6691  0.0014
 1538SOL    HW2 6056   2.458   6.626   7.507 -2.4195 -2.3385 -2.3311
 1539SOL     OW 6057   6.028   6.750   0.018 -0.0560 -0.1540  0.2663
 1539SOL    HW1 6058   6.092   6.815   0.049  1.4495 -1.3127 -0.3089
 1539SOL    HW2 6059   5.973   6.799  -0.043 -1.2663  1.4505  2.4997
 1540SOL     OW 6060   0.704   1.825   4.012 -0.2497 -0.1779 -0.0145
 1540SOL    HW1 6061   0.686   1.733   4.035  0.2882 -0.5631 -1.0883
 1540SOL    HW2 6062   0.629   1.873   4.046 -1.1288 -1.1795 -0.4824
 1541SOL     OW 6063   5.486   4.116  12.351  0.0283 -0.1927  0.1994
 1541SOL    HW1 6064   5.519   4.027  12.339 -0.8167 -0.8192  2.2124
 1541SOL    HW2 6065   5.392   4.105  12.364 -0.1015  1.0103  0.3702
 1542SOL     OW 6066   2.602   6.573   4.805 -0.6557  0.5352  0.2380
 1542SOL    HW1 6067   2.618   6.486   4.766 -0.3609  0.5423  0.3406
 1542SOL    HW2 6068   2.639   6.634   4.741  0.2322  0.5283  0.7298
 1543SOL     OW 6069   0.377   6.809   4.971 -0.4618  0.0132 -0.0312
 1543SOL    HW1 6070   0.295   6.847   5.001 -1.3819 -1.4119 -0.6225
 1543SOL    HW2 6071   0.413   6.874   4.911  0.2474  1.8659  2.2468
 1544SOL     OW 6072   2.739   0.703   3.671 -0.8766  0.4106  0.3170
 1544SOL    HW1 6073   2.823   0.747   3.666  0.3922 -1.6806  1.3701
 1544SOL    HW2 6074   2.674   0.772   3.662  0.9547  2.3567  1.2379
 1545SOL     OW 6075   6.031   5.724   9.483  0.2823 -0.3921 -0.5154
 1545SOL    HW1 6076   6.088   5.796   9.453 -0.0416 -0.6205 -1.7177
 1545SOL    HW2 6077   5.942   5.760   9.476  0.2583  0.1874  1.9642
 1546SOL     OW 6078   4.514   2.911   0.114  0.5243 -0.6691  0.3338
 1546SOL    HW1 6079   4.595   2.912   0.064  1.2572 -0.2484  1.4787
 1546SOL    HW2 6080   4.453   2.858   0.062  1.3823 -0.6126 -0.7554
 1547SOL     OW 6081   3.063   3.961  10.760  0.3135  0.0183 -0.1197
 1547SOL    HW1 6082   3.045   4.053  10.742  0.8144  0.2355  0.4539
 1547SOL    HW2 6083   3.151   3.946  10.725  0.1974 -0.2694 -0.2934
 1548SOL     OW 6084   3.685   6.774   8.591 -0.3531 -1.1352 -0.6314
 1548SOL    HW1 6085   3.721   6.792   8.504 -0.4968 -0.3687 -0.5349
 1548SOL    HW2 6086   3.652   6.684   8.585  0.2061 -1.3110 -1.1768
 1549SOL     OW 6087   1.524   4.837   8.086  0.5435 -0.3050 -0.5664
 1549SOL    HW1 6088   1.606   4.859   8.042  1.2562 -2.0646 -0.2060
 1549SOL    HW2 6089   1.549   4.774   8.154 -0.9050  0.3013  0.5836
 1550SOL     OW 6090   4.988   1.147   1.243 -0.4907  0.1313  0.3908
 1550SOL    HW1 6091   5.040   1.210   1.292 -1.2811  0.1054  1.2976
 1550SOL    HW2 6092   5.052   1.089   1.201  0.2313 -0.4217  2.1571
 1551SOL     OW 6093   6.797   1.408  11.183  0.4271 -0.1264 -0.7077
 1551SOL    HW1 6094   6.736   1.335  11.193  1.2997 -1.2074 -2.5544
 1551SOL    HW2 6095   6.742   1.483  11.161 -0.3417 -0.7284 -0.8861
 1552SOL     OW 6096   4.827   4.116   0.989  0.3131  0.2903 -0.2305
 1552SOL    HW1 6097   4.841   4.082   0.901 -0.1302  0.2688 -0.2950
 1552SOL    HW2 6098   4.914   4.144   1.018  1.2694 -3.2586  0.8315
 1553SOL     OW 6099   4.454   1.073   1.756 -0.6548  0.3712  0.4820
 1553SOL    HW1 6100   4.501   1.081   1.673  0.7218  1.5720  1.3249
 1553SOL    HW2 6101   4.367   1.108   1.738 -0.1343  1.3405 -0.2921
 1554SOL     OW 6102   0.240   2.149  10.791  0.5347  0.0529 -0.2768
 1554SOL    HW1 6103   0.201   2.063  10.773 -4.2258  1.9793 -0.4981
 1554SOL    HW2 6104   0.228   2.162  10.885 -0.0970  0.9799 -0.4699
 1555SOL     OW 6105   6.724   4.074   3.042  0.0254  0.3725 -0.5328
 1555SOL    HW1 6106   6.648   4.064   3.098 -0.4119  1.4086 -0.9160
 1555SOL    HW2 6107   6.763   4.158   3.068  0.5122  0.2864 -0.9530
 1556SOL     OW 6108   5.831   6.679   4.687  0.3524 -0.4025  0.0990
 1556SOL    HW1 6109   5.841   6.702   4.595  0.4158 -1.7802 -0.2627
 1556SOL    HW2 6110   5.763   6.611   4.687 -0.0330 -0.0342  1.1309
 1557SOL     OW 6111   5.709   3.891   0.424  0.8151  0.2805 -0.3231
 1557SOL    HW1 6112   5.728   3.852   0.338  2.0369  0.2673 -0.0627
 1557SOL    HW2 6113   5.772   3.849   0.483  0.0922  0.4114  0.5547
 1558SOL     OW 6114   4.566   2.386   7.719 -0.4732 -0.0417  0.0724
 1558SOL    HW1 6115   4.597   2.447   7.653  1.0844 -0.2324  0.5772
 1558SOL    HW2 6116   4.471   2.397   7.720 -0.4899  0.2464 -1.8828
 1559SOL     OW 6117   2.713   5.654  12.248  0.2006  1.3082  0.0176
 1559SOL    HW1 6118   2.763   5.705  12.183  0.8615  2.0379  1.0541
 1559SOL    HW2 6119   2.741   5.690  12.332  0.8878 -0.9564  0.8252
 1560SOL     OW 6120   1.549   6.064   9.073  0.1976 -0.1245  0.1502
 1560SOL    HW1 6121   1.540   6.062   9.168 -0.5603  2.0149  0.1694
 1560SOL    HW2 6122   1.491   5.995   9.042  1.5230 -1.8273  1.2494
 1561SOL     OW 6123   4.546   0.525   3.449  0.0069  0.7074  0.9703
 1561SOL    HW1 6124   4.450   0.529   3.450 -0.1664 -1.8554  0.7162
 1561SOL    HW2 6125   4.570   0.511   3.541 -0.0425 -0.6148  0.8068
 1562SOL     OW 6126   1.605   2.971   6.647  0.1141 -0.0657  0.3720
 1562SOL    HW1 6127   1.624   3.007   6.734  0.8879  1.2467 -0.2911
 1562SOL    HW2 6128   1.558   3.041   6.603 -0.0197 -0.6064 -0.3550
 1563SOL     OW 6129   3.598   7.829   2.971  0.6385  0.0294  0.5998
 1563SOL    HW1 6130   3.536   7.890   3.012  1.8144  0.9802  1.0273
 1563SOL    HW2 6131   3.607   7.861   2.882 -0.4722 -0.9079  0.1277
 1564SOL     OW 6132   0.045   4.098   0.648  0.2512 -0.2056 -0.0049
 1564SOL    HW1 6133  -0.032   4.130   0.694 -0.6171 -1.3697 -0.6228
 1564SOL    HW2 6134   0.014   4.076   0.560  1.4871  0.1992 -0.5748
 1565SOL     OW 6135   4.749   4.715   0.936  0.1336 -0.2132 -0.0541
 1565SOL    HW1 6136   4.749   4.810   0.945  0.4178 -0.3299  1.2845
 1565SOL    HW2 6137   4.815   4.697   0.869 -1.0535  0.6164 -1.5017
 1566SOL     OW 6138   7.132   7.185   1.538 -0.1846 -0.2874  0.1336
 1566SOL    HW1 6139   7.046   7.171   1.499  0.0142 -2.5458  0.3889
 1566SOL    HW2 6140   7.166   7.097   1.553  1.2184  0.5229  2.1259
 1567SOL     OW 6141   2.107   5.339  11.400  0.3009 -0.7225 -0.3726
 1567SOL    HW1 6142   2.116   5.431  11.423  1.5856 -1.0722  0.7034
 1567SOL    HW2 6143   2.185   5.298  11.438  0.6965 -1.9728 -2.3469
 1568SOL     OW 6144   6.007   1.831   7.020 -0.2336  0.1652  0.8526
 1568SOL    HW1 6145   5.953   1.782   7.082 -1.3292  1.5565  1.0539
 1568SOL    HW2 6146   6.051   1.764   6.968 -3.7246 -1.1074 -0.7229
 1569SOL     OW 6147   3.347   2.520   2.698 -0.0956 -0.2808 -0.5389
 1569SOL    HW1 6148   3.329   2.478   2.782  1.6209 -1.9681 -0.9468
 1569SOL    HW2 6149   3.282   2.483   2.638  0.2569 -0.9820 -0.4920
 1570SOL     OW 6150   7.545   3.578   3.863  0.4528  0.0014  0.0379
 1570SOL    HW1 6151   7.578   3.513   3.801  0.6528  1.3951 -1.3775
 1570SOL    HW2 6152   7.531   3.656   3.811 -1.3008  0.6602  1.3766
 1571SOL     OW 6153   4.811   7.688   3.994  0.3033 -0.8133  0.0060
 1571SOL    HW1 6154   4.749   7.634   4.042  0.0769 -1.5081 -1.0099
 1571SOL    HW2 6155   4.891   7.685   4.046  0.4849 -2.6753 -0.3054
 1572SOL     OW 6156   6.259   7.556   9.152 -0.7923  0.0455  0.2781
 1572SOL    HW1 6157   6.301   7.629   9.107 -0.6580 -0.6045 -0.6733
 1572SOL    HW2 6158   6.170   7.553   9.117 -0.2877 -1.2980 -1.0020
 1573SOL     OW 6159   5.574   2.413   3.554  0.1529  0.0678 -0.1605
 1573SOL    HW1 6160   5.544   2.430   3.464 -0.0963 -0.5096 -0.1875
 1573SOL    HW2 6161   5.578   2.318   3.561 -0.5936  0.0886  0.6870
 1574SOL     OW 6162   1.203   5.142  11.501 -0.1905 -0.0916  0.0669
 1574SOL    HW1 6163   1.204   5.047  11.501  0.4610 -0.0862 -0.3171
 1574SOL    HW2 6164   1.238   5.167  11.416 -0.0512  0.4966  0.2907
 1575SOL     OW 6165   5.584   0.301   3.535 -0.1426  0.0533  0.2283
 1575SOL    HW1 6166   5.536   0.219   3.530  1.0878 -0.8082  1.7931
 1575SOL    HW2 6167   5.524   0.366   3.499 -1.7922 -1.2514  0.5142
 1576SOL     OW 6168   3.997   6.358   8.427 -0.6202  0.1397 -0.2470
 1576SOL    HW1 6169   3.986   6.291   8.359  0.8246 -0.0948 -0.2808
 1576SOL    HW2 6170   3.966   6.316   8.507 -0.9321 -0.1033 -0.4893
 1577SOL     OW 6171   5.512   3.605  10.288  0.1808 -0.4160 -0.4150
 1577SOL    HW1 6172   5.452   3.641  10.353  0.9812  1.4692 -0.6554
 1577SOL    HW2 6173   5.599   3.625  10.323  0.6658  2.2814 -2.8041
 1578SOL     OW 6174   5.140   0.673   5.854 -0.2684  0.1516  0.8690
 1578SOL    HW1 6175   5.106   0.754   5.815  1.6499  0.4558 -0.3139
 1578SOL    HW2 6176   5.148   0.693   5.947  1.5882  1.9139  0.4106
 1579SOL     OW 6177   7.237   4.113   1.192  0.3552  0.4953 -0.2138
 1579SOL    HW1 6178   7.186   4.056   1.135  0.7373 -0.4748  0.3770
 1579SOL    HW2 6179   7.190   4.196   1.192 -1.3867 -0.4296  0.4942
 1580SOL     OW 6180   4.720   5.670   4.061  0.7412  0.2917 -0.7083
 1580SOL    HW1 6181   4.687   5.637   4.144  2.0978 -0.7882 -0.5613
 1580SOL    HW2 6182   4.641   5.694   4.012 -0.2467 -1.4162 -0.0744
 1581SOL     OW 6183   0.196   0.730   8.171  0.6050  0.3063  0.4810
 1581SOL    HW1 6184   0.251   0.809   8.163 -0.1486  0.8921  0.9745
 1581SOL    HW2 6185   0.243   0.664   8.120  0.4585  1.5004 -1.3081
 1582SOL     OW 6186   1.887   1.487   4.502  0.0970 -0.2228  0.6476
 1582SOL    HW1 6187   1.935   1.410   4.472 -0.5403 -0.3363 -0.1227
 1582SOL    HW2 6188   1.796   1.457   4.508 -0.2328  0.5780 -0.1097
 1583SOL     OW 6189   0.608   4.037   6.604  0.1095 -0.3719 -0.0836
 1583SOL    HW1 6190   0.514   4.028   6.595  0.0223  1.5507 -1.4881
 1583SOL    HW2 6191   0.621   4.063   6.696 -0.6448 -1.2587  0.2855
 1584SOL     OW 6192   5.038   5.394   9.781 -0.3473  0.9145 -0.1098
 1584SOL    HW1 6193   5.026   5.325   9.715  0.1506  0.7513 -0.0387
 1584SOL    HW2 6194   5.103   5.453   9.742  0.8363  0.1904  0.6969
 1585SOL     OW 6195   1.386   5.598   1.966  0.2987 -0.2477  0.3712
 1585SOL    HW1 6196   1.349   5.653   1.897  2.1272 -0.7892 -1.1484
 1585SOL    HW2 6197   1.376   5.508   1.933  1.4849 -0.4980  0.6433
 1586SOL     OW 6198   2.849   2.416   8.645 -0.2391  0.0121  0.1672
 1586SOL    HW1 6199   2.849   2.510   8.664  0.6088  0.3693 -1.4519
 1586SOL    HW2 6200   2.766   2.400   8.600  1.1085  0.7688 -2.8260
 1587SOL     OW 6201   5.317   3.552   5.343 -0.2884  0.1016 -0.7936
 1587SOL    HW1 6202   5.407   3.581   5.325 -0.1786 -0.2519 -0.8277
 1587SOL    HW2 6203   5.322   3.513   5.430 -0.4253  0.1362 -0.7696
 1588SOL     OW 6204   3.242   5.372   9.520 -0.1089 -0.2382 -0.0061
 1588SOL    HW1 6205   3.166   5.389   9.463 -1.0708 -1.7633  0.7356
 1588SOL    HW2 6206   3.204   5.357   9.606  1.2356  0.9100  0.8140
 1589SOL     OW 6207   3.785   1.205   6.968 -0.4814  0.7698 -0.0856
 1589SOL    HW1 6208   3.789   1.110   6.964  1.2817  0.7056  1.8547
 1589SOL    HW2 6209   3.799   1.233   6.877 -0.8732 -0.7965 -0.6585
 1590SOL     OW 6210   1.673   7.725   4.682 -0.3392 -0.7910 -0.1057
 1590SOL    HW1 6211   1.687   7.634   4.706 -0.5520 -0.8350 -0.1476
 1590SOL    HW2 6212   1.753   7.770   4.709 -0.3683 -0.9306  0.2124
 1591SOL     OW 6213   7.540   4.035   1.563 -0.3753  0.1706 -0.0976
 1591SOL    HW1 6214   7.504   3.947   1.560 -1.8307  0.7216  0.4474
 1591SOL    HW2 6215   7.465   4.092   1.548  0.9188  1.2975 -3.1118
 1592SOL     OW 6216   3.669   1.700   9.193 -0.0226  0.1754  0.2678
 1592SOL    HW1 6217   3.590   1.731   9.149  0.9999  1.0566 -1.0245
 1592SOL    HW2 6218   3.670   1.606   9.176 -1.9389 -0.2862  2.2440
 1593SOL     OW 6219   7.709   2.253   5.163 -0.0467  0.2507 -0.2481
 1593SOL    HW1 6220   7.715   2.293   5.076 -1.4185 -0.8067 -0.8582
 1593SOL    HW2 6221   7.766   2.177   5.158  1.3596  1.2176  0.4223
 1594SOL     OW 6222   3.171   5.104   3.256  0.4165  0.9178  0.0897
 1594SOL    HW1 6223   3.119   5.145   3.187  2.0113 -0.9460 -2.3586
 1594SOL    HW2 6224   3.253   5.152   3.256  0.7738  0.3127  0.0244
 1595SOL     OW 6225   3.291   4.637  10.945  0.2941 -0.6021 -0.1636
 1595SOL    HW1 6226   3.296   4.636  11.040  1.8282  3.1904 -0.0391
 1595SOL    HW2 6227   3.382   4.640  10.915 -0.1333  1.7581 -1.4870
 1596SOL     OW 6228   2.647   0.565   1.286 -0.1666 -0.5813  0.0187
 1596SOL    HW1 6229   2.681   0.477   1.269 -0.3247 -0.5307 -0.5578
 1596SOL    HW2 6230   2.599   0.588   1.207 -1.9820 -0.8392  1.0063
 1597SOL     OW 6231   6.603   0.127   3.044 -0.2599 -0.2371 -0.2336
 1597SOL    HW1 6232   6.687   0.167   3.023 -0.1338  0.0606  0.8235
 1597SOL    HW2 6233   6.541   0.172   2.987  0.0085  0.8961  0.3530
 1598SOL     OW 6234   4.528   5.473  12.399  0.5407  0.1769 -0.2230
 1598SOL    HW1 6235   4.593   5.427  12.345  1.1401 -0.5366  1.0475
 1598SOL    HW2 6236   4.476   5.402  12.438  0.0728  0.6817  0.0768
 1599SOL     OW 6237   2.271   4.171   2.217  0.1106  0.0531  0.8245
 1599SOL    HW1 6238   2.358   4.156   2.181  0.1077  0.7300  0.5241
 1599SOL    HW2 6239   2.282   4.244   2.277 -0.4614  0.8998 -0.0689
 1600SOL     OW 6240   1.108   3.701   4.959  0.0074 -0.0315  0.5774
 1600SOL    HW1 6241   1.165   3.676   4.885 -0.8404 -1.4065  0.3456
 1600SOL    HW2 6242   1.136   3.789   4.982  0.6826  0.2167 -1.0299
 1601SOL     OW 6243   6.400   6.367   6.325 -0.1876  0.1609  0.0452
 1601SOL    HW1 6244   6.460   6.343   6.396  2.1640 -1.2196 -2.2199
 1601SOL    HW2 6245   6.362   6.284   6.296 -1.0447  0.6924 -0.4014
 1602SOL     OW 6246   6.180   4.528   8.264  0.1962 -0.3143 -0.5801
 1602SOL    HW1 6247   6.275   4.540   8.257  0.1632  1.0446  0.7695
 1602SOL    HW2 6248   6.160   4.462   8.198  2.0256 -0.3782 -1.1487
 1603SOL     OW 6249   5.199   0.391   3.224  0.7249 -0.5028  0.0831
 1603SOL    HW1 6250   5.178   0.328   3.155  1.6851  0.9790 -1.6273
 1603SOL    HW2 6251   5.180   0.343   3.305  0.5319 -2.6678 -1.1445
 1604SOL     OW 6252   5.697   2.098   1.994  0.1096  0.6064  0.1364
 1604SOL    HW1 6253   5.708   2.147   2.076 -1.6558  0.5723  0.4273
 1604SOL    HW2 6254   5.777   2.117   1.944  0.8884  1.2228  1.5406
 1605SOL     OW 6255   6.338   7.191   2.724  0.3536  0.2402  0.0939
 1605SOL    HW1 6256   6.427   7.165   2.700 -0.1887 -1.6190 -0.0523
 1605SOL    HW2 6257   6.313   7.257   2.659  0.9329 -0.6286 -1.0318
 1606SOL     OW 6258   3.433   5.217   9.431 -0.1408  0.1718  0.1251
 1606SOL    HW1 6259   3.471   5.210   9.519  0.0107 -1.0216 -0.0220
 1606SOL    HW2 6260   3.364   5.283   9.440 -1.0198 -0.8746  1.4872
 1607SOL     OW 6261   0.403   2.920   9.729  0.0011  0.2692  0.4277
 1607SOL    HW1 6262   0.336   2.866   9.688  0.1903  1.6416 -1.8660
 1607SOL    HW2 6263   0.357   2.966   9.799 -1.3130  0.6784 -0.6635
 1608SOL     OW 6264   3.759   5.740  10.801 -0.6167  0.1571  0.1128
 1608SOL    HW1 6265   3.724   5.777  10.720  1.7603  1.0156 -0.6204
 1608SOL    HW2 6266   3.716   5.790  10.871 -2.5849 -0.4924 -0.5753
 1609SOL     OW 6267   5.251   3.069   7.733 -0.5822  0.3777  0.5106
 1609SOL    HW1 6268   5.174   3.013   7.733 -0.7885  0.6194 -0.9088
 1609SOL    HW2 6269   5.267   3.088   7.641  1.7672 -0.4783  0.6629
 1610SOL     OW 6270   2.194   2.925   9.891  0.3683  0.4986  0.1214
 1610SOL    HW1 6271   2.199   3.010   9.935 -1.5478  0.0904  1.2290
 1610SOL    HW2 6272   2.198   2.861   9.962 -0.3018 -0.2654 -0.5149
 1611SOL     OW 6273   6.105   2.096   2.449 -0.5428 -0.2998  0.5063
 1611SOL    HW1 6274   6.049   2.088   2.371 -1.0957  0.5940  0.7889
 1611SOL    HW2 6275   6.066   2.168   2.498  1.5294  1.1535  0.1585
 1612SOL     OW 6276   5.001   2.246   5.195  0.3232  0.4151  0.4391
 1612SOL    HW1 6277   4.945   2.169   5.189  0.5427  0.2527  0.4416
 1612SOL    HW2 6278   5.012   2.275   5.104  0.3995  0.3275  0.4206
 1613SOL     OW 6279   6.895   0.664   1.499 -0.7746  0.5091  0.8843
 1613SOL    HW1 6280   6.842   0.641   1.423  0.6408  1.3097 -0.3878
 1613SOL    HW2 6281   6.857   0.746   1.531  1.0591  2.4038 -1.4858
 1614SOL     OW 6282   1.182   5.544  12.317 -0.5554 -0.3301 -0.0953
 1614SOL    HW1 6283   1.140   5.459  12.309  0.2622 -0.6745 -0.7189
 1614SOL    HW2 6284   1.238   5.536  12.394  1.8042 -1.3593 -1.8122
 1615SOL     OW 6285   3.335   3.835   1.237  0.3015  0.1906 -0.1867
 1615SOL    HW1 6286   3.272   3.801   1.174 -0.2772  0.1606  0.4022
 1615SOL    HW2 6287   3.399   3.764   1.247  0.8535  0.5024 -1.3371
 1616SOL     OW 6288   0.670   7.822   4.663 -0.7582  0.2442  0.1676
 1616SOL    HW1 6289   0.586   7.853   4.698 -0.3726 -0.6136  1.9426
 1616SOL    HW2 6290   0.656   7.820   4.568 -2.8968 -0.2487  0.4292
 1617SOL     OW 6291   6.090   7.573   3.638 -0.5208  0.1216 -0.1202
 1617SOL    HW1 6292   6.180   7.545   3.623 -1.0460 -0.9657 -1.3531
 1617SOL    HW2 6293   6.051   7.501   3.688 -1.3008 -0.4530 -1.5115
 1618SOL     OW 6294   6.266   3.916   3.457 -0.1552  0.6155  0.1841
 1618SOL    HW1 6295   6.286   4.008   3.443  1.4865  0.3148  0.2768
 1618SOL    HW2 6296   6.248   3.910   3.551 -0.8297  0.9162  0.0819
 1619SOL     OW 6297   0.342   7.816   3.982  0.2497 -0.1884  0.1643
 1619SOL    HW1 6298   0.356   7.864   4.063 -1.7087 -1.5105  1.3804
 1619SOL    HW2 6299   0.267   7.758   4.001 -0.5467 -0.2557 -2.7154
 1620SOL     OW 6300   5.031   1.403   4.452  0.4348  0.2325 -0.4857
 1620SOL    HW1 6301   4.966   1.419   4.521  1.6289 -1.0966  1.0184
 1620SOL    HW2 6302   4.997   1.451   4.376 -0.7893  1.9958  1.0792
 1621SOL     OW 6303   0.203   5.437   3.798  0.1075  0.6081 -0.4272
 1621SOL    HW1 6304   0.148   5.424   3.720 -0.7744 -0.8383  0.3868
 1621SOL    HW2 6305   0.229   5.529   3.793 -2.1132  1.2733 -1.0448
 1622SOL     OW 6306   6.366   5.584   0.635 -0.9522 -0.3950  0.1467
 1622SOL    HW1 6307   6.434   5.650   0.647 -0.8771 -0.3649 -0.3854
 1622SOL    HW2 6308   6.413   5.505   0.608 -1.0337 -0.6972  0.8704
 1623SOL     OW 6309   0.887   6.235  11.261  0.1410 -0.2076 -0.6565
 1623SOL    HW1 6310   0.928   6.157  11.223 -0.8738 -0.5579 -1.0801
 1623SOL    HW2 6311   0.898   6.225  11.355  0.5181 -0.5801 -0.7375
 1624SOL     OW 6312   0.941   3.901  12.273 -0.1710  0.0305  0.6968
 1624SOL    HW1 6313   0.939   3.907  12.178 -0.3304 -0.5084  0.6604
 1624SOL    HW2 6314   0.854   3.929  12.301 -0.2354 -0.1274  0.6591
 1625SOL     OW 6315   5.445   4.855  12.354  0.1946  0.2980  0.2354
 1625SOL    HW1 6316   5.526   4.884  12.313  0.5058  0.7451  1.1317
 1625SOL    HW2 6317   5.376   4.892  12.299  0.5612 -0.9683 -1.1459
 1626SOL     OW 6318   6.137   6.796   5.722  0.3878  0.5917 -0.0213
 1626SOL    HW1 6319   6.048   6.779   5.753 -0.3201  2.5683 -0.7865
 1626SOL    HW2 6320   6.127   6.814   5.628  1.7871 -0.3981 -0.3811
 1627SOL     OW 6321   7.474   2.097   9.668  0.7633  0.3000 -0.2112
 1627SOL    HW1 6322   7.518   2.035   9.725 -1.1979 -1.2573 -0.2658
 1627SOL    HW2 6323   7.531   2.104   9.591  0.6100 -2.2801 -0.6530
 1628SOL     OW 6324   6.098   6.133   7.009 -0.0711  0.1588  0.2138
 1628SOL    HW1 6325   6.081   6.121   6.915 -0.2420  0.3644  0.2160
 1628SOL    HW2 6326   6.169   6.196   7.012  0.8723 -0.8681  0.2014
 1629SOL     OW 6327   7.181   4.495   9.228 -0.1572  0.2047  0.4734
 1629SOL    HW1 6328   7.231   4.484   9.309 -0.1106 -0.9066  0.3123
 1629SOL    HW2 6329   7.217   4.429   9.169 -0.7210  0.4808 -0.1876
 1630SOL     OW 6330   2.892   0.944  11.173  0.2038 -0.2230 -0.0217
 1630SOL    HW1 6331   2.881   0.926  11.079 -1.0017  2.2539 -0.4311
 1630SOL    HW2 6332   2.955   1.017  11.176 -2.4766  2.2232  0.7554
 1631SOL     OW 6333   4.560   2.178   4.219 -0.0543 -0.0953 -0.2398
 1631SOL    HW1 6334   4.632   2.241   4.225 -0.1556  0.2461 -2.1209
 1631SOL    HW2 6335   4.603   2.092   4.227  0.4331  0.1372 -0.3028
 1632SOL     OW 6336   6.610   3.249   0.212  0.0394  0.2844  0.0060
 1632SOL    HW1 6337   6.636   3.157   0.200 -0.2889  0.2970 -0.8065
 1632SOL    HW2 6338   6.649   3.273   0.296 -0.2299 -0.7319  0.4518
 1633SOL     OW 6339   4.145   5.041   3.026  0.0723 -0.5781 -0.3029
 1633SOL    HW1 6340   4.063   5.088   3.013  0.2457 -0.1209  0.2393
 1633SOL    HW2 6341   4.141   4.969   2.963 -1.2483 -1.2535  0.5149
 1634SOL     OW 6342   4.916   5.487   4.631 -0.4868 -0.0359 -0.3445
 1634SOL    HW1 6343   4.966   5.413   4.665 -2.0688 -0.5224  1.0528
 1634SOL    HW2 6344   4.870   5.451   4.555 -1.0787 -0.4515  0.1994
 1635SOL     OW 6345   4.201   4.923   9.771  0.6919 -0.2532  0.2157
 1635SOL    HW1 6346   4.236   5.011   9.786 -0.7847  0.4828 -0.3845
 1635SOL    HW2 6347   4.118   4.922   9.819  1.2695 -1.7730  1.2312
 1636SOL     OW 6348   5.875   4.879  11.617 -0.0575  0.3817 -0.4771
 1636SOL    HW1 6349   5.890   4.952  11.557  1.2543  0.6097  0.0722
 1636SOL    HW2 6350   5.831   4.919  11.692  0.1833  0.5236 -0.4071
 1637SOL     OW 6351   0.189   2.383   1.540 -0.0898  0.5643  0.1534
 1637SOL    HW1 6352   0.242   2.456   1.506 -2.0592  1.2841 -1.6319
 1637SOL    HW2 6353   0.173   2.406   1.631  1.8826  0.7611  0.4924
 1638SOL     OW 6354   7.753   6.268   4.369  0.1305  0.5000  0.1311
 1638SOL    HW1 6355   7.778   6.361   4.363  0.4161  0.4447  0.4515
 1638SOL    HW2 6356   7.749   6.239   4.278  0.1580  0.7996  0.0329
 1639SOL     OW 6357   7.358   2.617  10.876 -0.2772 -0.4180  0.0062
 1639SOL    HW1 6358   7.413   2.541  10.857 -0.4488 -0.9131  1.3662
 1639SOL    HW2 6359   7.350   2.663  10.792 -0.3406 -2.0122 -0.8974
 1640SOL     OW 6360   5.396   4.396  10.086 -0.0225 -0.1101 -0.7605
 1640SOL    HW1 6361   5.312   4.356  10.062  0.0964 -0.3245 -0.8247
 1640SOL    HW2 6362   5.429   4.433  10.004 -0.2896  0.4142 -0.6323
 1641SOL     OW 6363   5.524   4.152   3.292  0.7223 -0.1284 -0.3697
 1641SOL    HW1 6364   5.543   4.236   3.333  1.2171  0.8359 -2.4374
 1641SOL    HW2 6365   5.429   4.148   3.285  0.6320 -0.3399  0.8781
 1642SOL     OW 6366   4.198   0.113   8.023 -0.4852 -0.3082 -0.2288
 1642SOL    HW1 6367   4.167   0.126   7.933  0.5465  0.0821 -0.5352
 1642SOL    HW2 6368   4.206   0.019   8.032 -0.0665 -0.3206 -0.7244
 1643SOL     OW 6369   3.239   3.250   8.694 -0.4020  0.2556 -0.0104
 1643SOL    HW1 6370   3.304   3.287   8.634 -1.0211  0.9364 -0.2613
 1643SOL    HW2 6371   3.257   3.156   8.692  2.7467  0.6237  2.4341
 1644SOL     OW 6372   0.313   6.534  12.229  0.7632  0.2957  0.2893
 1644SOL    HW1 6373   0.273   6.563  12.311  0.8884  0.2638  0.3606
 1644SOL    HW2 6374   0.314   6.439  12.236  0.2765  0.2684  0.0196
 1645SOL     OW 6375   3.768   7.334  12.102  0.3371  0.1804 -0.2783
 1645SOL    HW1 6376   3.830   7.316  12.031  0.8873  1.7120 -0.2050
 1645SOL    HW2 6377   3.816   7.312  12.182 -0.5732 -2.3962 -0.3418
 1646SOL     OW 6378   7.444   7.248  10.577 -0.0011 -0.1034 -0.1850
 1646SOL    HW1 6379   7.527   7.210  10.606  0.0894  0.2654  0.0509
 1646SOL    HW2 6380   7.380   7.219  10.642  0.2610  0.9853  0.5897
 1647SOL     OW 6381   6.901   6.081   0.485 -0.7215  0.1785 -0.2539
 1647SOL    HW1 6382   6.841   6.147   0.519 -0.2565  1.0062 -0.9972
 1647SOL    HW2 6383   6.883   6.079   0.391 -0.1306 -0.1398 -0.3628
 1648SOL     OW 6384   6.739   1.982  11.108  0.0334  0.1174  0.1879
 1648SOL    HW1 6385   6.744   2.069  11.145 -0.8583  0.2752 -0.0304
 1648SOL    HW2 6386   6.692   1.930  11.174  1.3627 -0.4389  0.7227
 1649SOL     OW 6387   6.058   0.368   9.346 -0.2894  0.4573 -0.5790
 1649SOL    HW1 6388   6.109   0.440   9.382  0.7377  0.7787 -2.5395
 1649SOL    HW2 6389   6.123   0.307   9.312 -1.1797 -0.5556 -0.5158
 1650SOL     OW 6390   1.943   6.034   7.806 -0.0153 -0.1623 -0.2209
 1650SOL    HW1 6391   1.913   6.122   7.785  0.3757  0.3102  1.1168
 1650SOL    HW2 6392   1.958   6.035   7.900  2.5134 -0.8661 -0.5380
 1651SOL     OW 6393   6.211   3.078   6.977  0.1391 -0.7960 -0.2141
 1651SOL    HW1 6394   6.272   3.046   7.043  1.3552 -0.0372 -0.9203
 1651SOL    HW2 6395   6.127   3.082   7.022  0.6430 -1.6660  0.8563
 1652SOL     OW 6396   0.615   2.310   7.932  0.2292 -0.4907  0.0340
 1652SOL    HW1 6397   0.563   2.285   8.009 -2.1583  0.7517 -1.0385
 1652SOL    HW2 6398   0.701   2.331   7.967 -0.2667 -1.6135  2.1087
 1653SOL     OW 6399   6.745   2.456   0.215  0.0599  0.7103  0.0041
 1653SOL    HW1 6400   6.808   2.487   0.150 -0.9335  0.6948 -0.9953
 1653SOL    HW2 6401   6.724   2.367   0.188 -0.4824  0.7592  0.2473
 1654SOL     OW 6402   6.390   0.598   2.733  0.1778  0.0192 -0.1473
 1654SOL    HW1 6403   6.295   0.612   2.732 -0.0611 -1.1567  1.3435
 1654SOL    HW2 6404   6.410   0.563   2.645 -0.8547 -0.1962 -0.3104
 1655SOL     OW 6405   2.895   2.218  12.448 -0.1638 -0.3390 -0.0068
 1655SOL    HW1 6406   2.951   2.143  12.432 -0.8237 -1.1458  1.2739
 1655SOL    HW2 6407   2.940   2.268  12.516  0.1981  0.3438 -0.7443
 1656SOL     OW 6408   4.341   1.245   3.063 -0.3550 -0.1594  0.1382
 1656SOL    HW1 6409   4.305   1.323   3.022 -2.1491 -0.8406  0.3107
 1656SOL    HW2 6410   4.269   1.210   3.116  0.6211 -1.5300  0.6445
 1657SOL     OW 6411   0.454   0.492   8.202 -0.4459 -0.5033 -0.2160
 1657SOL    HW1 6412   0.494   0.408   8.180 -0.6051 -0.7802  0.5165
 1657SOL    HW2 6413   0.396   0.511   8.129 -0.0794 -0.8205 -0.5918
 1658SOL     OW 6414   7.233   7.535   0.049  0.3526  0.7436  0.3555
 1658SOL    HW1 6415   7.166   7.589   0.090 -1.2228 -0.0799 -1.0137
 1658SOL    HW2 6416   7.190   7.451   0.035  1.7500  0.1220 -0.3842
 1659SOL     OW 6417   7.631   1.786   5.257  0.5482  0.0339  0.3955
 1659SOL    HW1 6418   7.536   1.784   5.269  0.6191  1.0373  1.3304
 1659SOL    HW2 6419   7.665   1.803   5.345  1.5131  1.1429 -0.1670
 1660SOL     OW 6420   5.055   6.950   9.581  0.4417 -0.1860 -0.2595
 1660SOL    HW1 6421   5.001   6.925   9.656  0.0554  1.3366  0.0088
 1660SOL    HW2 6422   5.043   6.879   9.518 -0.7136 -0.5869  0.3815
 1661SOL     OW 6423   3.264   6.506   5.592  0.6319 -0.6211 -0.0498
 1661SOL    HW1 6424   3.222   6.583   5.553  1.6648 -0.5639 -1.0991
 1661SOL    HW2 6425   3.194   6.464   5.643 -0.5960 -0.3048 -1.3826
 1662SOL     OW 6426   1.919   7.731   0.186 -0.0714  0.2307  0.6651
 1662SOL    HW1 6427   1.826   7.727   0.163  0.0705  0.0482  0.1022
 1662SOL    HW2 6428   1.945   7.640   0.199 -0.1482  0.3271  1.5971
 1663SOL     OW 6429   5.677   5.121   8.408 -0.4603 -0.0881 -0.3563
 1663SOL    HW1 6430   5.662   5.026   8.403  0.3357 -0.2343 -0.0868
 1663SOL    HW2 6431   5.630   5.148   8.486  0.0034 -0.4114  0.0440
 1664SOL     OW 6432   7.004   5.253   9.585 -0.7261  0.4136 -0.0654
 1664SOL    HW1 6433   7.055   5.333   9.572 -0.9399  0.7466  1.0163
 1664SOL    HW2 6434   6.992   5.248   9.680 -0.1003 -1.3041 -0.0519
 1665SOL     OW 6435   5.900   7.948  11.512  0.3065  0.0204  0.6001
 1665SOL    HW1 6436   5.842   7.986  11.578  0.3817 -0.8356  1.1749
 1665SOL    HW2 6437   5.903   8.013  11.442 -1.7492 -0.1294  0.3214
 1666SOL     OW 6438   7.060   5.603  10.646 -0.1630  0.2183  0.0089
 1666SOL    HW1 6439   7.084   5.554  10.568 -1.0334  0.1570 -0.2377
 1666SOL    HW2 6440   7.041   5.691  10.614  0.4938  0.4763  0.3114
 1667SOL     OW 6441   4.923   7.454   7.408  0.1642  0.1216 -0.1245
 1667SOL    HW1 6442   4.965   7.419   7.330 -0.2526  1.1153 -0.8222
 1667SOL    HW2 6443   4.841   7.407   7.414  0.1927  0.0479 -0.2960
 1668SOL     OW 6444   5.712   6.280   0.253  0.2191  0.0211 -0.4212
 1668SOL    HW1 6445   5.793   6.233   0.234 -0.6482 -1.4927 -0.5994
 1668SOL    HW2 6446   5.729   6.370   0.225  0.8962 -0.8550 -3.1967
 1669SOL     OW 6447   4.544   4.677   0.016  0.7665  0.2064 -0.5785
 1669SOL    HW1 6448   4.501   4.754  -0.021  1.4479  0.7513 -0.2562
 1669SOL    HW2 6449   4.593   4.639  -0.057 -0.2867 -0.4591 -0.9660
 1670SOL     OW 6450   5.810   5.435   9.283 -0.1247  0.1216 -0.0812
 1670SOL    HW1 6451   5.862   5.407   9.358 -1.1157  0.0724  0.6086
 1670SOL    HW2 6452   5.814   5.362   9.221  0.5751  0.1059 -0.0197
 1671SOL     OW 6453   0.828   7.858  11.538  0.0312  0.3218 -0.3855
 1671SOL    HW1 6454   0.906   7.908  11.562  0.8296 -0.8720 -0.4104
 1671SOL    HW2 6455   0.840   7.773  11.580 -0.2285 -0.6027 -2.1051
 1672SOL     OW 6456   2.837   1.745   7.901  0.0907  0.2655  0.2505
 1672SOL    HW1 6457   2.744   1.732   7.914  0.4212 -0.5403  2.0944
 1672SOL    HW2 6458   2.869   1.661   7.869  0.6518 -0.5394  2.7259
 1673SOL     OW 6459   6.442   6.364   8.876 -0.2198  0.4676 -0.3085
 1673SOL    HW1 6460   6.514   6.328   8.928 -0.8612 -1.6785 -0.7955
 1673SOL    HW2 6461   6.428   6.451   8.911  2.3565  0.8255  0.0532
 1674SOL     OW 6462   2.484   0.542   0.440  0.1335  0.2388 -0.8451
 1674SOL    HW1 6463   2.404   0.531   0.492  1.8071 -0.4859  1.7725
 1674SOL    HW2 6464   2.512   0.452   0.421  0.7374  0.4708 -1.0601
 1675SOL     OW 6465   5.149   3.187   8.354  0.4595  0.6215  0.0594
 1675SOL    HW1 6466   5.227   3.140   8.382  1.3122  2.2960  0.6715
 1675SOL    HW2 6467   5.143   3.262   8.413 -2.0715  0.1551  0.5320
 1676SOL     OW 6468   0.127   0.266   1.248 -0.4928 -0.4915  0.3580
 1676SOL    HW1 6469   0.053   0.207   1.261  0.6271 -2.3799 -1.1889
 1676SOL    HW2 6470   0.188   0.245   1.318 -0.2654 -0.9253  0.0371
 1677SOL     OW 6471   5.070   4.504   4.541  0.5969  0.5225 -0.6152
 1677SOL    HW1 6472   5.067   4.570   4.471  1.5669  0.7197 -0.4868
 1677SOL    HW2 6473   5.054   4.554   4.621  1.7071  0.6842 -0.4783
 1678SOL     OW 6474   3.430   4.457  11.536 -0.0920 -0.0753  0.0593
 1678SOL    HW1 6475   3.379   4.476  11.615 -0.6449 -0.2841 -0.2371
 1678SOL    HW2 6476   3.399   4.520  11.471  0.0160 -0.2165 -0.1310
 1679SOL     OW 6477   4.717   5.142  11.226 -0.2543 -0.5799  0.1846
 1679SOL    HW1 6478   4.737   5.147  11.132  0.8194 -0.1102  0.4122
 1679SOL    HW2 6479   4.698   5.050  11.242 -0.7956 -0.6022 -0.5624
 1680SOL     OW 6480   3.276   7.163   9.876 -0.7389 -0.3389 -0.3978
 1680SOL    HW1 6481   3.369   7.141   9.876 -0.7302 -0.3101 -0.7043
 1680SOL    HW2 6482   3.266   7.226   9.947 -0.4184  0.0969 -0.7319
 1681SOL     OW 6483   2.952   7.463  11.666  0.1834 -0.1248  0.1438
 1681SOL    HW1 6484   3.036   7.496  11.635 -0.8845  2.2189 -0.4079
 1681SOL    HW2 6485   2.909   7.538  11.708 -1.1723 -1.5519  1.4813
 1682SOL     OW 6486   3.559   1.484   2.402 -0.2652  0.8742  0.0184
 1682SOL    HW1 6487   3.625   1.425   2.365 -1.4684 -0.2642 -0.4298
 1682SOL    HW2 6488   3.520   1.527   2.326 -2.2214 -0.9025 -0.0861
 1683SOL     OW 6489   3.870   0.062   4.426  0.0732  0.3930  0.0277
 1683SOL    HW1 6490   3.871   0.027   4.515 -0.4035 -1.0248 -0.4961
 1683SOL    HW2 6491   3.777   0.071   4.404  0.1536  2.6593  0.3561
 1684SOL     OW 6492   1.399   3.355   1.139 -0.2098  0.3557 -0.0816
 1684SOL    HW1 6493   1.416   3.267   1.107  1.3595  0.1986  1.0667
 1684SOL    HW2 6494   1.447   3.360   1.222 -1.0005  1.9942  0.3198
 1685SOL     OW 6495   5.934   4.684   0.771  0.1224 -0.4011 -0.0458
 1685SOL    HW1 6496   5.874   4.743   0.726  0.0927 -0.0228  0.4794
 1685SOL    HW2 6497   5.969   4.628   0.702  0.6837  0.6774 -0.6546
 1686SOL     OW 6498   6.091   0.156   2.291 -0.2284  0.4301 -0.6763
 1686SOL    HW1 6499   6.064   0.247   2.295 -0.0672  0.4303  0.7151
 1686SOL    HW2 6500   6.122   0.135   2.379 -0.1052 -0.9208 -1.0086
 1687SOL     OW 6501   5.920   0.609   5.542  0.1979 -0.2867  0.0188
 1687SOL    HW1 6502   5.889   0.568   5.461  1.1208 -0.3648 -0.3017
 1687SOL    HW2 6503   5.917   0.538   5.607  0.1527 -0.4106 -0.1179
 1688SOL     OW 6504   7.668   1.894   9.426  0.5755 -0.3682 -0.2687
 1688SOL    HW1 6505   7.670   1.990   9.419  0.7061 -0.3503  0.0287
 1688SOL    HW2 6506   7.703   1.864   9.342  1.5252 -0.1414  0.0340
 1689SOL     OW 6507   5.518   7.571   1.466  0.4889 -0.1847  0.0659
 1689SOL    HW1 6508   5.509   7.517   1.388  0.6593 -0.7818  0.4559
 1689SOL    HW2 6509   5.533   7.509   1.537 -0.0633  0.3229  0.6404
 1690SOL     OW 6510   6.478   6.745  11.277 -0.4754  0.1826 -0.7820
 1690SOL    HW1 6511   6.544   6.731  11.345 -1.8121  1.6985  0.9382
 1690SOL    HW2 6512   6.496   6.678  11.211  2.3972  0.1891 -0.1208
 1691SOL     OW 6513   3.026   2.033   0.945 -0.2657 -0.0266  0.1548
 1691SOL    HW1 6514   3.098   2.087   0.912 -0.1415 -1.4738 -2.1236
 1691SOL    HW2 6515   2.980   2.004   0.866 -2.8521  0.1496  1.5151
 1692SOL     OW 6516   4.663   5.389  12.113  0.0949  0.6574 -0.1041
 1692SOL    HW1 6517   4.660   5.329  12.038 -0.6286 -0.6034  0.8949
 1692SOL    HW2 6518   4.714   5.343  12.179 -3.3427 -0.5541  1.9908
 1693SOL     OW 6519   6.377   1.794   0.321 -0.0094  0.3649  0.2618
 1693SOL    HW1 6520   6.434   1.720   0.340  0.5010  0.5633 -0.4558
 1693SOL    HW2 6521   6.394   1.815   0.229 -2.8712 -0.9948 -0.6836
 1694SOL     OW 6522   7.610   7.058   4.138 -0.0919  0.0735 -0.5078
 1694SOL    HW1 6523   7.595   7.059   4.232 -0.8291  1.1193 -0.6263
 1694SOL    HW2 6524   7.527   7.086   4.100  0.2761 -0.0888 -1.4658
 1695SOL     OW 6525   5.277   5.849   6.976 -0.2702 -0.2980 -0.1695
 1695SOL    HW1 6526   5.318   5.895   7.050  1.8549 -0.5927 -1.0991
 1695SOL    HW2 6527   5.195   5.896   6.961  0.3116  1.1442  0.9508
 1696SOL     OW 6528   4.570   0.706   1.224 -0.2854  0.2901 -0.4153
 1696SOL    HW1 6529   4.509   0.654   1.172 -0.7776 -0.6380  1.0545
 1696SOL    HW2 6530   4.515   0.755   1.284  0.3092  1.0055 -0.4325
 1697SOL     OW 6531   7.455   0.760   0.211  0.3615  0.2167  0.3820
 1697SOL    HW1 6532   7.528   0.756   0.150  1.0008  0.6107  1.0940
 1697SOL    HW2 6533   7.398   0.829   0.176  0.7172  0.4300  0.2159
 1698SOL     OW 6534   0.962   3.192   2.686 -0.2246 -0.2990  0.1659
 1698SOL    HW1 6535   0.944   3.266   2.745 -0.9818  0.3439 -0.8403
 1698SOL    HW2 6536   1.027   3.140   2.733  1.0320  1.4918  0.5103
 1699SOL     OW 6537   1.593   5.877   6.236  0.2812 -0.3485  0.1973
 1699SOL    HW1 6538   1.523   5.943   6.237 -0.4412 -1.0924  0.1104
 1699SOL    HW2 6539   1.659   5.911   6.296 -0.2774  0.2410  0.4904
 1700SOL     OW 6540   4.912   1.915   3.230  0.3297  0.1594  0.3914
 1700SOL    HW1 6541   4.841   1.897   3.292  0.4494  0.8390  0.7363
 1700SOL    HW2 6542   4.984   1.860   3.260  0.4600  0.6564  0.9913
 1701SOL     OW 6543   6.401   1.261   2.279 -0.1041 -0.0764  0.5642
 1701SOL    HW1 6544   6.352   1.334   2.241 -0.2698  0.9493  2.6234
 1701SOL    HW2 6545   6.444   1.220   2.204 -1.7426  0.7869 -0.9239
 1702SOL     OW 6546   7.134   1.029  10.991 -0.2122 -0.1596  0.0466
 1702SOL    HW1 6547   7.089   0.954  11.028  0.2112  0.4620  1.9246
 1702SOL    HW2 6548   7.077   1.104  11.011  0.4718  0.3113  0.2740
 1703SOL     OW 6549   1.718   2.045   9.340 -0.1327 -0.3085 -0.0132
 1703SOL    HW1 6550   1.726   2.113   9.274  1.2746 -0.2062  0.2241
 1703SOL    HW2 6551   1.705   2.093   9.422  0.6123 -0.3179  0.1188
 1704SOL     OW 6552   2.285   5.079   9.465 -0.5170  0.2419  0.8163
 1704SOL    HW1 6553   2.306   5.027   9.387 -0.8999  0.4207  0.5891
 1704SOL    HW2 6554   2.211   5.134   9.438 -0.2380  0.7748  1.1071
 1705SOL     OW 6555   0.779   7.129   9.121  0.6089 -0.0091 -0.4511
 1705SOL    HW1 6556   0.775   7.219   9.090  1.0118  0.0179 -0.4309
 1705SOL    HW2 6557   0.767   7.135   9.216  1.5290  0.1091 -0.3370
 1706SOL     OW 6558   5.630   1.029   9.306 -0.2482  0.2844 -0.0763
 1706SOL    HW1 6559   5.604   0.951   9.354 -1.4535  1.1346  0.7157
 1706SOL    HW2 6560   5.720   1.045   9.333 -0.4282 -0.0858  0.7804
 1707SOL     OW 6561   6.465   5.176   9.323  0.1665  0.5633 -0.5026
 1707SOL    HW1 6562   6.505   5.210   9.243  1.3326  0.2440 -0.0709
 1707SOL    HW2 6563   6.398   5.115   9.292 -0.5518  1.6922 -1.2471
 1708SOL     OW 6564   5.684   1.014   5.784 -0.4382  0.3701 -0.4877
 1708SOL    HW1 6565   5.635   0.940   5.820  1.1539 -0.7760 -0.5673
 1708SOL    HW2 6566   5.681   1.080   5.853 -2.8482  0.7313 -0.8615
 1709SOL     OW 6567   1.493   2.311   5.101  0.2713 -0.2840  0.0590
 1709SOL    HW1 6568   1.432   2.352   5.162 -0.5519  1.0053 -1.5292
 1709SOL    HW2 6569   1.518   2.228   5.142  1.5829  1.4950  3.2010
 1710SOL     OW 6570   0.540   6.474   2.526  0.1559  0.4496  0.1979
 1710SOL    HW1 6571   0.557   6.553   2.474 -0.9453 -1.2466 -2.9902
 1710SOL    HW2 6572   0.472   6.500   2.588 -1.5745  1.6181 -2.0575
 1711SOL     OW 6573   6.268   6.040   0.867 -0.0707 -0.0592  0.1277
 1711SOL    HW1 6574   6.298   5.973   0.929  0.4796 -0.3457 -0.4259
 1711SOL    HW2 6575   6.174   6.026   0.860 -0.0745 -0.2895  0.5865
 1712SOL     OW 6576   2.847   2.225   8.311 -0.1063 -0.2219  0.1903
 1712SOL    HW1 6577   2.891   2.142   8.328 -1.1603 -0.8666 -0.1898
 1712SOL    HW2 6578   2.897   2.264   8.239  1.0108 -0.0329  1.0363
 1713SOL     OW 6579   4.898   6.584   4.222  0.5234 -0.1117 -0.1491
 1713SOL    HW1 6580   4.975   6.624   4.261  1.2639  0.1413 -1.7965
 1713SOL    HW2 6581   4.927   6.496   4.197 -0.4790 -0.9614  1.5150
 1714SOL     OW 6582   1.362   5.133   9.586 -0.3908  0.4842  0.4644
 1714SOL    HW1 6583   1.381   5.226   9.604 -0.1469  0.4200  0.5428
 1714SOL    HW2 6584   1.410   5.086   9.654  0.2387  0.2556 -0.1306
 1715SOL     OW 6585   7.273   2.009   0.655  0.0831 -0.4200 -0.4806
 1715SOL    HW1 6586   7.298   1.980   0.743 -0.0762 -1.4958 -0.7773
 1715SOL    HW2 6587   7.350   1.993   0.601  0.4539  0.9661 -0.4038
 1716SOL     OW 6588   7.295   6.314   4.913 -0.7477  0.4672 -0.2888
 1716SOL    HW1 6589   7.274   6.293   5.004 -1.1015  2.4037  0.1187
 1716SOL    HW2 6590   7.236   6.386   4.891  0.9816  1.6429 -1.2658
 1717SOL     OW 6591   1.709   4.653   6.124 -0.4163  0.4391 -1.0929
 1717SOL    HW1 6592   1.719   4.575   6.179 -0.1855 -0.1082 -1.8808
 1717SOL    HW2 6593   1.786   4.651   6.066 -1.5394 -0.0255 -2.6538
 1718SOL     OW 6594   1.503   3.452   0.453  0.1908 -0.3855 -0.4911
 1718SOL    HW1 6595   1.591   3.435   0.419  0.1914  0.1207 -0.7635
 1718SOL    HW2 6596   1.517   3.515   0.525  0.1061 -0.7662 -0.1389
 1719SOL     OW 6597   1.073   7.666   5.458  0.4202 -0.5089  0.2588
 1719SOL    HW1 6598   1.011   7.704   5.519  2.0674  0.8738  1.1519
 1719SOL    HW2 6599   1.019   7.624   5.391 -1.4274 -0.7756  1.8535
 1720SOL     OW 6600   4.566   1.295   0.837  0.4639  0.4743 -0.1996
 1720SOL    HW1 6601   4.592   1.333   0.922 -0.2620  1.2772 -0.3207
 1720SOL    HW2 6602   4.575   1.200   0.850 -0.9673  0.4883  1.2538
 1721SOL     OW 6603   1.040   6.282   5.756 -0.1518 -0.3234  0.0273
 1721SOL    HW1 6604   0.980   6.254   5.687  2.4158  1.8253 -3.3942
 1721SOL    HW2 6605   0.985   6.324   5.821 -2.5111 -0.0027 -2.0511
 1722SOL     OW 6606   5.792   4.841   1.396  0.2275 -0.2760  0.3451
 1722SOL    HW1 6607   5.814   4.854   1.488 -1.1217 -1.4027  0.8574
 1722SOL    HW2 6608   5.821   4.751   1.377 -0.4482 -0.4173 -0.0352
 1723SOL     OW 6609   3.852   0.405   5.140  0.2045 -0.3494  0.0020
 1723SOL    HW1 6610   3.802   0.426   5.061  1.0309 -0.7980 -0.6568
 1723SOL    HW2 6611   3.919   0.344   5.110 -0.3953 -1.7204  1.3278
 1724SOL     OW 6612   7.223   0.025   3.059 -0.3327  0.3610 -0.5484
 1724SOL    HW1 6613   7.184   0.008   2.973 -2.2342 -0.4747  0.4216
 1724SOL    HW2 6614   7.178  -0.035   3.118  2.2722 -0.4778  0.7579
 1725SOL     OW 6615   2.135   4.262   6.018 -0.1579 -0.5742 -0.5222
 1725SOL    HW1 6616   2.202   4.321   6.051  1.8522 -2.4949 -0.9325
 1725SOL    HW2 6617   2.103   4.304   5.938  3.9702 -1.5813 -2.9892
 1726SOL     OW 6618   7.066   4.439   8.632 -0.3870 -0.1553 -0.2629
 1726SOL    HW1 6619   7.022   4.360   8.664  1.3833 -1.7726 -1.5438
 1726SOL    HW2 6620   7.159   4.416   8.634  0.2218  2.1134 -0.2257
 1727SOL     OW 6621   2.064   6.575   7.032 -0.4386  0.3576  0.2035
 1727SOL    HW1 6622   2.097   6.596   7.119 -0.5019 -1.7611  0.7824
 1727SOL    HW2 6623   1.995   6.640   7.016 -0.7250  0.5064  1.9157
 1728SOL     OW 6624   1.472   7.479  11.133 -0.3707  0.0250 -0.1377
 1728SOL    HW1 6625   1.427   7.561  11.155 -2.0924 -0.6398 -0.9879
 1728SOL    HW2 6626   1.493   7.488  11.040 -0.9000 -0.6193 -0.3291
 1729SOL     OW 6627   6.477   4.970   9.932  0.4893 -0.0427 -0.1003
 1729SOL    HW1 6628   6.483   4.875   9.942  0.3148  0.0368  0.8438
 1729SOL    HW2 6629   6.549   4.993   9.872  0.6417 -0.7478 -0.1908
 1730SOL     OW 6630   3.540   5.986   9.747 -0.3369  0.1438 -0.5733
 1730SOL    HW1 6631   3.555   6.044   9.822 -0.4726 -1.9746  1.2101
 1730SOL    HW2 6632   3.528   5.900   9.787 -1.4820 -0.8927 -2.9972
 1731SOL     OW 6633   0.113   4.259   8.008  0.3859  0.1427  0.1383
 1731SOL    HW1 6634   0.062   4.306   8.074 -0.1813  0.3690 -0.4541
 1731SOL    HW2 6635   0.190   4.227   8.056  0.5348  1.2342  0.6662
 1732SOL     OW 6636   6.266   7.016   9.884 -0.4480 -0.1274 -0.1686
 1732SOL    HW1 6637   6.317   7.097   9.881  1.0719 -1.0090  0.3720
 1732SOL    HW2 6638   6.178   7.042   9.858  0.0416  1.6519 -0.2100
 1733SOL     OW 6639   4.543   6.810   4.897 -0.5470  0.0147 -0.0851
 1733SOL    HW1 6640   4.515   6.899   4.918 -1.6263  0.2445 -2.1761
 1733SOL    HW2 6641   4.550   6.766   4.981 -0.1756  2.0045  0.9914
 1734SOL     OW 6642   6.988   1.495   9.395 -0.1846  0.3792 -0.0364
 1734SOL    HW1 6643   6.960   1.475   9.485  0.4682  0.8747  0.2928
 1734SOL    HW2 6644   7.084   1.494   9.400 -0.1126  2.2531 -0.2759
 1735SOL     OW 6645   7.912   1.525  10.958  0.9446 -0.4913  0.1905
 1735SOL    HW1 6646   7.910   1.568  10.872 -1.0944 -1.0427 -0.0742
 1735SOL    HW2 6647   7.914   1.597  11.021 -1.7494  0.0754 -0.2631
 1736SOL     OW 6648   0.925   1.983   5.949  0.2167  0.5299 -0.1612
 1736SOL    HW1 6649   0.984   1.922   5.993  0.1155 -2.5813 -3.8542
 1736SOL    HW2 6650   0.982   2.055   5.921  1.7501 -0.9638 -1.0826
 1737SOL     OW 6651   1.583   1.253  11.823 -0.1816  0.2599  0.1360
 1737SOL    HW1 6652   1.575   1.315  11.750  1.0805  1.0530  0.6261
 1737SOL    HW2 6653   1.677   1.237  11.830 -0.1631  1.0500  2.2689
 1738SOL     OW 6654   7.967   2.819   9.367  0.6126  0.3983  0.2173
 1738SOL    HW1 6655   8.007   2.821   9.280  0.3998 -0.4258  0.0950
 1738SOL    HW2 6656   7.969   2.727   9.393  0.3404  0.5845  0.9329
 1739SOL     OW 6657   2.727   2.745   9.273 -0.4113  0.1275 -0.2214
 1739SOL    HW1 6658   2.807   2.720   9.319 -0.7414  2.9137  2.1324
 1739SOL    HW2 6659   2.679   2.662   9.262  1.7336 -1.2810  0.3305
 1740SOL     OW 6660   1.010   7.514  10.052  0.5756  0.0741 -0.0570
 1740SOL    HW1 6661   1.013   7.602  10.089 -0.4750  0.5784 -1.1062
 1740SOL    HW2 6662   0.934   7.474  10.093  0.2806  0.1207 -0.5528
 1741SOL     OW 6663   5.153   3.901  10.390 -0.0885 -0.3595 -0.2421
 1741SOL    HW1 6664   5.228   3.902  10.450  0.0896  0.2111 -0.4730
 1741SOL    HW2 6665   5.132   3.993  10.376 -1.5607 -0.5092  0.7293
 1742SOL     OW 6666   6.865   4.590   4.899  0.0012 -0.1534 -0.5768
 1742SOL    HW1 6667   6.912   4.514   4.934 -0.0603 -0.7601 -1.7700
 1742SOL    HW2 6668   6.839   4.640   4.977 -0.6766 -1.7828  0.2802
 1743SOL     OW 6669   7.671   1.894   4.917  0.2460 -0.1732 -0.0708
 1743SOL    HW1 6670   7.746   1.869   4.864  1.5471  0.9877  1.1555
 1743SOL    HW2 6671   7.637   1.973   4.876 -0.0451 -0.4458 -0.3632
 1744SOL     OW 6672   5.515   1.603   3.394  0.1386 -0.4976 -0.0454
 1744SOL    HW1 6673   5.545   1.592   3.484 -1.9199  1.1492  0.9232
 1744SOL    HW2 6674   5.468   1.522   3.374 -0.7934 -0.2238  0.9724
 1745SOL     OW 6675   1.808   3.308   1.702 -0.5491  0.1959 -0.2053
 1745SOL    HW1 6676   1.806   3.241   1.633  2.0790 -1.3084  1.0297
 1745SOL    HW2 6677   1.834   3.388   1.656 -0.4513 -0.3935 -1.2198
 1746SOL     OW 6678   7.394   0.507  10.450 -0.1151  0.5002 -0.2398
 1746SOL    HW1 6679   7.375   0.414  10.439  0.8589  0.3341 -0.6355
 1746SOL    HW2 6680   7.355   0.549  10.374 -2.9347  0.8102  1.2570
 1747SOL     OW 6681   3.474   7.162   8.152 -0.2744 -0.0712 -0.0932
 1747SOL    HW1 6682   3.543   7.105   8.118 -1.0248 -0.7076 -0.5812
 1747SOL    HW2 6683   3.472   7.236   8.091 -0.0359 -0.0584 -0.0858
 1748SOL     OW 6684   5.410   2.501   2.557 -0.0874  0.0108  0.5174
 1748SOL    HW1 6685   5.422   2.466   2.469 -0.5101  0.6339  0.2003
 1748SOL    HW2 6686   5.468   2.577   2.561 -1.1216  0.8503  0.2496
 1749SOL     OW 6687   1.278   0.795  11.538  0.2404  0.1810  0.1538
 1749SOL    HW1 6688   1.321   0.852  11.602 -0.3531  1.8963 -0.8983
 1749SOL    HW2 6689   1.345   0.777  11.473  0.1890  0.4145  0.0344
 1750SOL     OW 6690   5.021   4.959   6.448 -0.1467 -0.0672  0.2687
 1750SOL    HW1 6691   4.992   4.871   6.425 -1.2362  0.7335 -1.6392
 1750SOL    HW2 6692   5.110   4.947   6.481 -0.4057 -1.9066  0.3791
 1751SOL     OW 6693   1.373   1.808  10.483  0.3170  0.3520  0.0915
 1751SOL    HW1 6694   1.301   1.853  10.528 -1.6503 -1.0092 -1.5181
 1751SOL    HW2 6695   1.408   1.748  10.549 -0.1684  0.9037  0.8630
 1752SOL     OW 6696   3.678   4.898   7.855 -0.0260  0.3348  0.0130
 1752SOL    HW1 6697   3.721   4.814   7.840  0.9876  0.6853  0.8470
 1752SOL    HW2 6698   3.637   4.889   7.941  0.3587  0.7882  0.2514
 1753SOL     OW 6699   6.219   2.207   5.973 -0.5954 -0.0568  0.1318
 1753SOL    HW1 6700   6.305   2.208   6.014  0.4521 -1.3546 -1.8961
 1753SOL    HW2 6701   6.171   2.139   6.021 -0.2410  0.1089  0.7429
 1754SOL     OW 6702   0.259   7.079   9.258 -0.2914  0.0389  0.5001
 1754SOL    HW1 6703   0.179   7.132   9.259 -0.3746 -0.0934  1.1083
 1754SOL    HW2 6704   0.318   7.122   9.319  0.5359  0.7635 -0.7625
 1755SOL     OW 6705   7.322   0.406  12.193 -0.2573  0.1942 -0.0301
 1755SOL    HW1 6706   7.386   0.471  12.163 -1.0011  0.6695 -0.6310
 1755SOL    HW2 6707   7.350   0.385  12.282  1.6800 -0.8387 -0.8248
 1756SOL     OW 6708   5.570   2.653   6.827  0.3839 -0.0552  0.0058
 1756SOL    HW1 6709   5.538   2.639   6.916 -1.7735 -0.6492 -0.8028
 1756SOL    HW2 6710   5.600   2.744   6.826  0.0428  0.0864  1.2196
 1757SOL     OW 6711   2.499   0.924  11.991  0.2896  0.8128 -0.1243
 1757SOL    HW1 6712   2.513   1.006  12.039 -0.4890  0.2015  1.2351
 1757SOL    HW2 6713   2.548   0.859  12.042  0.7646  0.3936 -1.0962
 1758SOL     OW 6714   5.992   7.404   5.551 -0.3393 -0.2425  0.0770
 1758SOL    HW1 6715   5.945   7.400   5.468 -2.1520 -0.8261  1.0816
 1758SOL    HW2 6716   5.985   7.495   5.578 -2.6691 -0.6495  1.1234
 1759SOL     OW 6717   3.957   2.864   1.731 -0.0077  0.3072  0.3066
 1759SOL    HW1 6718   3.926   2.784   1.690  1.4698  0.2060 -0.6902
 1759SOL    HW2 6719   3.893   2.931   1.705 -0.1670 -0.1583 -0.5237
 1760SOL     OW 6720   1.753   4.733   9.988 -0.5553 -0.3736  0.0758
 1760SOL    HW1 6721   1.716   4.708  10.072 -1.8469  1.3083  0.0448
 1760SOL    HW2 6722   1.834   4.780  10.010 -0.5017 -0.5858  0.3311
 1761SOL     OW 6723   2.641   7.174   5.548  0.3287 -0.5331  0.1254
 1761SOL    HW1 6724   2.637   7.088   5.507 -0.5127  0.1340 -1.2834
 1761SOL    HW2 6725   2.695   7.227   5.489 -0.8168  0.4197 -0.1131
 1762SOL     OW 6726   6.506   3.104   7.797 -0.2095 -0.4404 -0.0270
 1762SOL    HW1 6727   6.552   3.062   7.725 -0.1135  0.9171 -0.7926
 1762SOL    HW2 6728   6.553   3.186   7.811 -0.3850 -0.5738  1.4194
 1763SOL     OW 6729   2.933   1.078   8.020  0.0287 -0.3394 -0.1075
 1763SOL    HW1 6730   3.005   1.016   8.018  0.1608 -0.2140  0.6473
 1763SOL    HW2 6731   2.855   1.024   8.036  0.0001 -0.4284 -0.5307
 1764SOL     OW 6732   4.956   1.587  10.442 -1.0575  0.2146  0.1298
 1764SOL    HW1 6733   4.998   1.549  10.519  0.6423  2.1489  0.2472
 1764SOL    HW2 6734   4.868   1.550  10.441 -0.2992 -1.7622  1.5574
 1765SOL     OW 6735   7.233   6.758   1.961 -0.1373  0.3980  0.4538
 1765SOL    HW1 6736   7.305   6.807   1.921 -0.2717  0.4743  0.3040
 1765SOL    HW2 6737   7.273   6.713   2.035  1.1823 -3.4096 -2.2642
 1766SOL     OW 6738   3.277   1.957   7.257 -0.5062 -0.6665  0.2459
 1766SOL    HW1 6739   3.246   1.963   7.166 -0.0023 -2.4622 -0.0718
 1766SOL    HW2 6740   3.301   2.047   7.279  1.8006 -0.5065 -2.2943
 1767SOL     OW 6741   2.031   4.879   2.334  0.4389 -0.2317 -0.1691
 1767SOL    HW1 6742   2.095   4.809   2.324 -0.4990 -0.9192 -1.7290
 1767SOL    HW2 6743   1.947   4.834   2.342  0.0553  0.6732  1.2465
 1768SOL     OW 6744   3.784   4.769   9.589  0.0396  0.5465  0.5864
 1768SOL    HW1 6745   3.714   4.808   9.537 -0.3315  0.5949  1.1023
 1768SOL    HW2 6746   3.791   4.679   9.557 -0.4042  0.4809  0.6670
 1769SOL     OW 6747   1.369   2.567   0.121 -0.5387  0.0371 -0.0648
 1769SOL    HW1 6748   1.434   2.501   0.143  0.3602 -0.2692 -3.0986
 1769SOL    HW2 6749   1.288   2.518   0.109 -0.2029 -0.3296 -0.9056
 1770SOL     OW 6750   6.461   0.878   9.459  0.3273 -0.4621 -0.7207
 1770SOL    HW1 6751   6.526   0.810   9.478  0.6384 -0.2084 -0.8716
 1770SOL    HW2 6752   6.451   0.875   9.364  0.8290  0.1394 -0.8023
 1771SOL     OW 6753   4.727   4.605   1.392 -0.6780  0.2259 -0.1979
 1771SOL    HW1 6754   4.665   4.618   1.319  0.0534  0.5250 -0.7822
 1771SOL    HW2 6755   4.780   4.530   1.364 -0.3332  0.4028 -0.0161
 1772SOL     OW 6756   4.998   0.896   5.775  0.0866 -0.0839  0.2421
 1772SOL    HW1 6757   4.945   0.891   5.695  0.6718 -0.2145 -0.1431
 1772SOL    HW2 6758   4.938   0.872   5.845 -0.0651 -1.3665 -0.3122
 1773SOL     OW 6759   3.228   4.020   4.722 -0.1677 -0.3085 -0.3524
 1773SOL    HW1 6760   3.174   3.967   4.781  0.7510 -1.9241 -0.9253
 1773SOL    HW2 6761   3.165   4.076   4.676 -1.1726 -0.9804  0.1782
 1774SOL     OW 6762   5.337   0.174   6.149 -0.3265 -0.0218 -0.3277
 1774SOL    HW1 6763   5.343   0.270   6.141  2.1568 -0.2055 -2.0796
 1774SOL    HW2 6764   5.243   0.155   6.144 -0.9540  2.3463  1.0017
 1775SOL     OW 6765   0.881   4.192   1.874 -0.0238  0.0918 -0.1119
 1775SOL    HW1 6766   0.813   4.181   1.808 -1.4515 -0.6331  1.3904
 1775SOL    HW2 6767   0.859   4.275   1.918 -1.4846 -1.2823  1.9635
 1776SOL     OW 6768   4.453   4.888   1.543 -0.5275 -1.1298 -0.1302
 1776SOL    HW1 6769   4.523   4.860   1.602 -0.2788 -3.1762 -1.3060
 1776SOL    HW2 6770   4.471   4.981   1.527  1.5767 -1.4442  0.0900
 1777SOL     OW 6771   0.850   1.596   3.103 -0.7016  0.0755  0.2478
 1777SOL    HW1 6772   0.866   1.507   3.134  1.6622  0.7118  1.0319
 1777SOL    HW2 6773   0.767   1.621   3.144 -0.1310 -0.8741  2.0934
 1778SOL     OW 6774   0.998   2.917   6.592 -0.2259  0.5037 -0.7128
 1778SOL    HW1 6775   1.089   2.938   6.615  0.3364 -2.5048  0.3783
 1778SOL    HW2 6776   0.947   2.949   6.666  0.3993 -0.4679  0.1888
 1779SOL     OW 6777   5.429   0.225   5.730 -0.1768  0.2634 -0.1723
 1779SOL    HW1 6778   5.379   0.283   5.787  0.3514  1.4420 -0.8833
 1779SOL    HW2 6779   5.520   0.253   5.741  0.3861 -1.7503  1.0005
 1780SOL     OW 6780   4.886   4.400  12.089 -0.1948  0.4611 -0.2794
 1780SOL    HW1 6781   4.936   4.476  12.118  0.1934  0.3694 -0.7137
 1780SOL    HW2 6782   4.919   4.380  12.002 -2.1550  1.4481 -1.3223
 1781SOL     OW 6783   2.273   7.907   6.445 -0.2398 -0.0124 -0.1354
 1781SOL    HW1 6784   2.290   7.820   6.409  0.5548  0.7209 -1.6368
 1781SOL    HW2 6785   2.272   7.894   6.540 -2.0618 -1.9693 -0.3624
 1782SOL     OW 6786   1.772   7.359   0.506  0.0525 -0.5752 -0.0237
 1782SOL    HW1 6787   1.805   7.292   0.446 -1.0332 -0.9957 -0.1891
 1782SOL    HW2 6788   1.751   7.434   0.449  0.1761 -0.5253 -0.0029
 1783SOL     OW 6789   1.365   3.500  11.119  0.0250  0.2355 -0.3652
 1783SOL    HW1 6790   1.370   3.451  11.037  1.4452 -0.4895  0.1190
 1783SOL    HW2 6791   1.410   3.444  11.183 -1.3265  0.6365  0.9914
 1784SOL     OW 6792   3.718   0.408   3.932  0.1866 -0.2900 -0.1041
 1784SOL    HW1 6793   3.805   0.436   3.960  0.1200 -0.1066 -0.0762
 1784SOL    HW2 6794   3.724   0.313   3.926 -0.5732 -0.6662  3.2706
 1785SOL     OW 6795   5.835   6.570   6.690 -0.1637  0.2630  0.4701
 1785SOL    HW1 6796   5.854   6.482   6.722  2.9485  1.6020  2.7565
 1785SOL    HW2 6797   5.785   6.611   6.761  0.2371  0.9907  0.3345
 1786SOL     OW 6798   2.316   1.058   7.812  0.1895 -0.1924 -0.2147
 1786SOL    HW1 6799   2.275   1.104   7.885 -0.2696  1.2747 -1.3547
 1786SOL    HW2 6800   2.288   1.106   7.735  1.8416 -0.8254 -1.2515
 1787SOL     OW 6801   3.467   0.192   9.160  0.4393  0.3080  0.0120
 1787SOL    HW1 6802   3.392   0.224   9.210  1.5690 -0.0235  1.9900
 1787SOL    HW2 6803   3.537   0.255   9.177  0.7316  0.4845 -1.6225
 1788SOL     OW 6804   1.657   2.260   8.682 -0.1552 -0.1812  0.1373
 1788SOL    HW1 6805   1.657   2.355   8.687 -1.8257 -0.2153  1.7815
 1788SOL    HW2 6806   1.591   2.239   8.616  1.3797 -0.2342 -1.4661
 1789SOL     OW 6807   2.647   7.739   7.998 -0.5072  0.3602  0.4245
 1789SOL    HW1 6808   2.717   7.762   7.936  0.0170  2.0087  1.5361
 1789SOL    HW2 6809   2.628   7.822   8.044 -1.1297 -0.7023  2.1938
 1790SOL     OW 6810   3.059   6.925  12.432 -0.0738  0.7957 -0.3218
 1790SOL    HW1 6811   3.013   6.913  12.515  0.1471 -0.9026 -0.3979
 1790SOL    HW2 6812   3.148   6.891  12.449  0.0295  0.6156 -1.1804
 1791SOL     OW 6813   6.347   7.096   9.354  0.4683  0.0064 -0.2657
 1791SOL    HW1 6814   6.379   7.022   9.302  0.1534  0.0256 -0.4896
 1791SOL    HW2 6815   6.365   7.173   9.299 -0.1410 -0.0001 -0.4833
 1792SOL     OW 6816   5.567   2.596   8.427  0.6027 -0.4656  0.0188
 1792SOL    HW1 6817   5.536   2.609   8.516 -0.4580  1.2926 -0.5411
 1792SOL    HW2 6818   5.489   2.608   8.372  1.5544  0.2673 -1.2408
 1793SOL     OW 6819   4.068   1.425   3.159  0.1854  0.4713 -0.4339
 1793SOL    HW1 6820   4.026   1.474   3.088 -0.8126 -0.1107 -0.2548
 1793SOL    HW2 6821   3.995   1.391   3.211  0.8886 -0.1635  0.1489
 1794SOL     OW 6822   0.859   0.523   0.765 -0.3434  0.5619  0.3729
 1794SOL    HW1 6823   0.884   0.609   0.799 -0.9826  0.5082  1.0083
 1794SOL    HW2 6824   0.766   0.516   0.784 -0.1945 -0.4705  0.7739
 1795SOL     OW 6825   0.323   1.892   3.620 -0.2494 -0.0870  0.7747
 1795SOL    HW1 6826   0.390   1.826   3.609  0.4465  0.2042  2.8612
 1795SOL    HW2 6827   0.351   1.965   3.564 -1.8551 -1.9563 -2.8607
 1796SOL     OW 6828   0.564   5.590   7.618 -0.2157 -0.3223 -0.3879
 1796SOL    HW1 6829   0.630   5.647   7.659 -0.2246 -1.2616  0.9915
 1796SOL    HW2 6830   0.496   5.581   7.685 -0.4653 -1.5102 -0.7903
 1797SOL     OW 6831   4.081   2.847   5.999 -0.3731 -0.2648  0.1559
 1797SOL    HW1 6832   4.043   2.902   6.067 -1.4314 -1.3290  0.4410
 1797SOL    HW2 6833   4.019   2.776   5.987 -0.7856  0.4566 -2.7278
 1798SOL     OW 6834   6.641   6.577   0.075 -0.1968  0.0024 -0.4006
 1798SOL    HW1 6835   6.586   6.509   0.036  0.1511  0.5416 -1.9229
 1798SOL    HW2 6836   6.688   6.533   0.146 -1.7915 -0.7221  0.2638
 1799SOL     OW 6837   1.842   2.435  10.448  0.0543 -0.0800 -0.3579
 1799SOL    HW1 6838   1.869   2.511  10.501  2.3666 -0.7800 -0.4097
 1799SOL    HW2 6839   1.890   2.361  10.486 -1.2582 -1.3314 -1.0342
 1800SOL     OW 6840   5.687   3.416   7.177  0.0919 -0.8299 -0.0160
 1800SOL    HW1 6841   5.666   3.450   7.264  1.2556  0.1252 -0.0848
 1800SOL    HW2 6842   5.679   3.493   7.119  2.7619 -0.6100 -0.1838
 1801SOL     OW 6843   1.818   0.009   8.946  0.1992  0.9718  0.0183
 1801SOL    HW1 6844   1.770   0.055   9.014 -0.6467 -0.7053  0.6168
 1801SOL    HW2 6845   1.750  -0.033   8.893  0.9356 -0.1254 -0.0933
 1802SOL     OW 6846   4.169   0.911   9.133  0.1322 -0.2059 -0.0424
 1802SOL    HW1 6847   4.156   0.924   9.227 -2.6032 -0.7960 -0.2374
 1802SOL    HW2 6848   4.110   0.974   9.092 -2.0833 -2.8062 -1.2092
 1803SOL     OW 6849   0.092   5.983   0.515 -0.0430  0.5374  0.3593
 1803SOL    HW1 6850   0.140   5.915   0.467  1.6828  0.6100  1.8497
 1803SOL    HW2 6851   0.006   5.945   0.530  0.3207 -0.6318 -0.3045
 1804SOL     OW 6852   6.237   4.689   4.183  0.0479 -0.1034  0.5471
 1804SOL    HW1 6853   6.281   4.679   4.267  0.4932  0.0894  0.3437
 1804SOL    HW2 6854   6.284   4.629   4.125  1.4960  1.6484 -0.2170
 1805SOL     OW 6855   5.050   3.288   7.156  0.3235 -0.3122  0.0092
 1805SOL    HW1 6856   5.058   3.230   7.232 -0.4783 -1.3810 -0.6873
 1805SOL    HW2 6857   5.116   3.355   7.170 -0.6864  0.3153  2.3402
 1806SOL     OW 6858   1.400   7.022   2.899  0.2231  0.1092  0.1732
 1806SOL    HW1 6859   1.377   6.954   2.962 -0.8085 -0.8368 -1.1835
 1806SOL    HW2 6860   1.488   6.999   2.870 -0.5628 -1.3831 -1.1551
 1807SOL     OW 6861   4.569   6.908  11.848  0.5813  0.1396  0.3542
 1807SOL    HW1 6862   4.571   6.991  11.897 -0.6856  1.0024 -0.9367
 1807SOL    HW2 6863   4.513   6.927  11.773  0.4231 -1.8587 -0.0879
 1808SOL     OW 6864   6.234   2.515   6.948 -0.0051 -0.0966  0.2759
 1808SOL    HW1 6865   6.230   2.480   6.859  1.5627 -2.5766  1.0751
 1808SOL    HW2 6866   6.198   2.445   7.003  0.4036  0.7809  1.7198
 1809SOL     OW 6867   7.801   4.105   7.171  0.1982  0.1424  0.2872
 1809SOL    HW1 6868   7.804   4.024   7.222  1.3276  1.6733  2.8936
 1809SOL    HW2 6869   7.799   4.174   7.237 -2.9122  2.2804 -1.7737
 1810SOL     OW 6870   6.893   4.744  11.522  0.0056 -0.5352 -0.0319
 1810SOL    HW1 6871   6.870   4.671  11.580 -2.6325  0.0567 -0.2012
 1810SOL    HW2 6872   6.823   4.745  11.456 -0.4058  2.4851  0.3169
 1811SOL     OW 6873   7.803   6.020   3.777  0.7391 -0.0454  0.9018
 1811SOL    HW1 6874   7.827   5.939   3.733  0.6720  0.5078 -0.1970
 1811SOL    HW2 6875   7.881   6.044   3.827  0.3930 -1.3323  2.1079
 1812SOL     OW 6876   6.168   3.904   5.780  0.6986 -0.0069  0.2025
 1812SOL    HW1 6877   6.125   3.840   5.836 -0.1327 -0.2353 -0.6728
 1812SOL    HW2 6878   6.099   3.966   5.757  1.2179  0.5310  0.0716
 1813SOL     OW 6879   2.974   2.126   7.280 -0.4965  0.0505  0.0609
 1813SOL    HW1 6880   2.910   2.106   7.211 -0.8001 -0.3810  0.4638
 1813SOL    HW2 6881   2.991   2.219   7.269 -1.8156  0.3618  0.4584
 1814SOL     OW 6882   0.196   6.638   0.272  0.4215  0.1964 -0.2788
 1814SOL    HW1 6883   0.214   6.679   0.357 -0.9464 -0.1055  0.1675
 1814SOL    HW2 6884   0.117   6.682   0.240  0.9734  0.3756 -1.4582
 1815SOL     OW 6885   4.337   2.295   9.485  0.0227 -0.5951  0.6559
 1815SOL    HW1 6886   4.333   2.298   9.581  0.2628 -0.9672  0.6810
 1815SOL    HW2 6887   4.290   2.373   9.457 -0.1343 -0.5330  1.0763
 1816SOL     OW 6888   7.686   7.944  11.507  0.3140 -0.0921 -0.1455
 1816SOL    HW1 6889   7.758   8.003  11.485  0.1175  0.3536  0.3863
 1816SOL    HW2 6890   7.719   7.895  11.582 -0.2164  0.6502  0.5857
 1817SOL     OW 6891   4.694   5.261  12.350 -0.5049 -0.6605 -0.1946
 1817SOL    HW1 6892   4.677   5.254  12.444 -1.5768 -4.0909 -0.5006
 1817SOL    HW2 6893   4.775   5.312  12.344 -0.4685 -0.2258  2.5606
 1818SOL     OW 6894   1.641   7.574   1.325 -0.1307  0.1214  0.3010
 1818SOL    HW1 6895   1.640   7.583   1.230  0.7820  0.2399  0.2938
 1818SOL    HW2 6896   1.563   7.521   1.345  0.6294 -1.4592 -0.6833
 1819SOL     OW 6897   2.788   0.457  11.579 -0.0122  0.0307  0.8178
 1819SOL    HW1 6898   2.863   0.407  11.547  0.4208  0.6739  0.8130
 1819SOL    HW2 6899   2.767   0.518  11.508 -0.2698  0.1406  0.9856
 1820SOL     OW 6900   6.490   0.797  11.082  0.0513  0.4836  0.2911
 1820SOL    HW1 6901   6.553   0.743  11.130  0.6991  1.6531  0.8097
 1820SOL    HW2 6902   6.520   0.887  11.096 -0.0997  0.9174 -1.8066
 1821SOL     OW 6903   1.284   5.070   7.386 -0.1386  0.1987 -0.2276
 1821SOL    HW1 6904   1.267   5.116   7.469 -0.8218  0.3580 -0.4508
 1821SOL    HW2 6905   1.372   5.099   7.361 -0.3327  0.9480 -0.0750
 1822SOL     OW 6906   4.882   5.486   1.188 -0.4751 -0.0906  0.1815
 1822SOL    HW1 6907   4.886   5.561   1.247  0.6663  0.2706 -0.3273
 1822SOL    HW2 6908   4.827   5.515   1.116 -0.1427  0.2302  0.0492
 1823SOL     OW 6909   5.203   3.114  12.323  0.0341 -0.1073  0.2204
 1823SOL    HW1 6910   5.143   3.110  12.248  0.6979 -1.4101 -0.2689
 1823SOL    HW2 6911   5.259   3.189  12.305  1.4158 -1.4869 -1.5944
 1824SOL     OW 6912   0.908   5.438   6.317 -0.0733  0.0764  0.1829
 1824SOL    HW1 6913   0.853   5.475   6.386 -0.6847 -1.5286  0.5939
 1824SOL    HW2 6914   0.867   5.354   6.296  1.5751 -0.6515 -0.2917
 1825SOL     OW 6915   3.278   6.252   3.054  0.0093 -0.0247  0.0419
 1825SOL    HW1 6916   3.295   6.222   3.143  1.9467  2.6018  0.6855
 1825SOL    HW2 6917   3.183   6.254   3.047 -0.2192 -2.8368  1.0431
 1826SOL     OW 6918   5.173   7.694   2.468 -0.1454 -0.2629  0.4817
 1826SOL    HW1 6919   5.256   7.740   2.470 -0.9699  1.3309 -0.1352
 1826SOL    HW2 6920   5.185   7.624   2.405 -0.1468  1.8106 -1.9688
 1827SOL     OW 6921   3.587   1.482   9.776  0.5564  0.2164  0.5343
 1827SOL    HW1 6922   3.513   1.540   9.763  0.5344 -0.1487 -1.2520
 1827SOL    HW2 6923   3.660   1.526   9.732  1.2752  0.3008  1.7720
 1828SOL     OW 6924   5.785   0.120  12.416  0.1407  0.5671  0.1961
 1828SOL    HW1 6925   5.754   0.068  12.342  1.6427 -0.0837 -0.0139
 1828SOL    HW2 6926   5.873   0.149  12.390  1.5270 -1.2629  2.4217
 1829SOL     OW 6927   6.916   2.131  10.263  0.5063 -0.4813  0.4100
 1829SOL    HW1 6928   6.922   2.093  10.176  2.2840  2.1941 -0.7878
 1829SOL    HW2 6929   6.844   2.084  10.305 -1.1319 -1.1894 -2.8377
 1830SOL     OW 6930   5.888   7.352  10.195  0.1052 -0.2911  0.0741
 1830SOL    HW1 6931   5.915   7.360  10.287 -0.3846 -1.5278  0.3506
 1830SOL    HW2 6932   5.967   7.324  10.149  0.3258  0.2303  0.1313
 1831SOL     OW 6933   2.275   1.389   6.009 -0.7231 -0.3035 -0.4294
 1831SOL    HW1 6934   2.318   1.430   6.084  0.3550 -1.0626 -0.6236
 1831SOL    HW2 6935   2.202   1.447   5.989 -0.9030  0.0208  1.0775
 1832SOL     OW 6936   6.715   4.332   7.745  0.4249 -0.4696 -0.2806
 1832SOL    HW1 6937   6.734   4.357   7.836 -0.8119  0.3215 -0.2073
 1832SOL    HW2 6938   6.655   4.258   7.753  1.5778 -1.4574 -0.4861
 1833SOL     OW 6939   0.563   4.590   2.082 -0.1071 -0.2862 -0.5299
 1833SOL    HW1 6940   0.561   4.648   2.006 -1.0911  2.0594  1.1732
 1833SOL    HW2 6941   0.583   4.504   2.046 -1.7189  0.4861 -3.5756
 1834SOL     OW 6942   3.531   0.184   8.247  0.6675 -0.1457  0.0994
 1834SOL    HW1 6943   3.480   0.185   8.329  0.2345 -1.1308 -0.1459
 1834SOL    HW2 6944   3.549   0.276   8.230 -0.4138  0.1815  0.5931
 1835SOL     OW 6945   2.598   4.276   1.407 -0.6765 -0.0144  0.4939
 1835SOL    HW1 6946   2.570   4.186   1.423  0.5256 -1.0398 -2.4975
 1835SOL    HW2 6947   2.572   4.294   1.317  3.7313  0.6191 -0.8974
 1836SOL     OW 6948   3.530   2.570   6.441 -0.6069 -0.3169 -0.3559
 1836SOL    HW1 6949   3.492   2.654   6.466  0.8030  0.1943  0.1696
 1836SOL    HW2 6950   3.544   2.577   6.346  0.8986  0.6557 -0.0872
 1837SOL     OW 6951   4.974   0.511   9.146 -0.3719 -0.1617  0.1359
 1837SOL    HW1 6952   4.979   0.463   9.063  3.2997 -0.6454  0.4884
 1837SOL    HW2 6953   5.037   0.583   9.136 -0.4315  0.2255  2.2157
 1838SOL     OW 6954   3.147   5.886   9.265 -0.2687 -0.0132 -0.0886
 1838SOL    HW1 6955   3.144   5.793   9.244 -0.3788 -0.3432  1.3302
 1838SOL    HW2 6956   3.167   5.929   9.181 -1.2784 -1.2155 -0.9766
 1839SOL     OW 6957   2.128   2.954   1.874 -0.1575  0.3937  0.0728
 1839SOL    HW1 6958   2.062   3.016   1.906  2.1597  2.9122  0.3255
 1839SOL    HW2 6959   2.090   2.918   1.794 -2.0693  1.2810  0.5175
 1840SOL     OW 6960   4.832   6.935  11.751  1.0843  0.4034  0.0675
 1840SOL    HW1 6961   4.814   7.028  11.763 -0.2102  0.3641 -1.2522
 1840SOL    HW2 6962   4.750   6.891  11.777  0.8603 -0.1652 -1.4648
 1841SOL     OW 6963   6.447   5.874   6.478 -0.4572 -0.1470 -0.3005
 1841SOL    HW1 6964   6.363   5.912   6.503 -0.1047  0.3997  0.0702
 1841SOL    HW2 6965   6.451   5.791   6.525  0.1803  0.8494  1.4946
 1842SOL     OW 6966   6.233   7.849   9.154  0.4508  0.8026  0.1002
 1842SOL    HW1 6967   6.164   7.870   9.216 -0.7994 -1.0361 -0.5875
 1842SOL    HW2 6968   6.314   7.856   9.204 -0.3767  1.1382  1.4247
 1843SOL     OW 6969   2.616   1.355   4.026  0.3362 -0.1559 -0.0173
 1843SOL    HW1 6970   2.545   1.418   4.013  1.0763  0.6825 -0.0900
 1843SOL    HW2 6971   2.694   1.399   3.992  1.3487 -0.0788  2.2691
 1844SOL     OW 6972   3.181   1.284   3.944 -0.0735 -0.3995 -0.3468
 1844SOL    HW1 6973   3.140   1.339   4.011  0.2437 -1.1201  0.4554
 1844SOL    HW2 6974   3.260   1.331   3.920 -0.5297  0.1964 -0.7135
 1845SOL     OW 6975   1.793   0.248   8.078  0.3332 -0.2697  0.5119
 1845SOL    HW1 6976   1.790   0.338   8.110  2.1123  0.0101  0.0011
 1845SOL    HW2 6977   1.714   0.207   8.113 -2.7556  2.5226 -2.4330
 1846SOL     OW 6978   3.569   6.239   5.304 -0.2059 -0.1259 -0.3445
 1846SOL    HW1 6979   3.521   6.277   5.378  0.3505  2.2101 -1.0862
 1846SOL    HW2 6980   3.513   6.169   5.273 -1.1120 -0.2442  1.4147
 1847SOL     OW 6981   3.655   2.819  10.292 -0.4855  0.5991 -0.1047
 1847SOL    HW1 6982   3.684   2.900  10.250 -2.5651  0.6953 -1.4909
 1847SOL    HW2 6983   3.593   2.780  10.230  0.8548 -2.3872  0.2710
 1848SOL     OW 6984   3.718   2.401  11.314 -0.3079 -0.4605  0.0892
 1848SOL    HW1 6985   3.725   2.494  11.294  1.6866 -0.2669  1.4874
 1848SOL    HW2 6986   3.624   2.383  11.309 -0.8931  1.9092  1.0620
 1849SOL     OW 6987   4.859   7.046   2.819  0.1827 -0.7000  0.1672
 1849SOL    HW1 6988   4.920   7.119   2.822 -0.6749  0.0189  0.4551
 1849SOL    HW2 6989   4.783   7.080   2.772 -0.9228 -0.8784  1.7754
 1850SOL     OW 6990   3.543   3.189   6.321  0.0496  0.2125 -0.0317
 1850SOL    HW1 6991   3.582   3.274   6.343 -1.0616  1.0748 -1.2304
 1850SOL    HW2 6992   3.476   3.210   6.256  1.0959 -1.7934 -1.8936
 1851SOL     OW 6993   3.905   3.117  12.128  0.6399 -0.1031  0.3692
 1851SOL    HW1 6994   3.966   3.103  12.199  2.5200 -0.4658 -1.2266
 1851SOL    HW2 6995   3.960   3.125  12.050 -1.3537 -0.7246 -1.1986
 1852SOL     OW 6996   2.502   7.111   3.411 -0.0880 -0.2065  0.6175
 1852SOL    HW1 6997   2.519   7.073   3.326  0.1274  1.2380 -0.0226
 1852SOL    HW2 6998   2.577   7.169   3.427 -1.4945  1.7969  0.4168
 1853SOL     OW 6999   5.311   6.266  10.323  0.0166  0.3231 -0.2543
 1853SOL    HW1 7000   5.339   6.175  10.317 -2.1845 -0.5351  1.3552
 1853SOL    HW2 7001   5.344   6.296  10.408  1.2608  1.2801 -1.0336
 1854SOL     OW 7002   5.504   7.707   2.913 -0.3972  0.3570  0.5036
 1854SOL    HW1 7003   5.438   7.677   2.850  0.1861  1.9464 -0.9393
 1854SOL    HW2 7004   5.525   7.796   2.884  0.7220  0.7098  2.3045
 1855SOL     OW 7005   0.990   6.982   1.424 -0.1078 -0.0731  0.1981
 1855SOL    HW1 7006   0.904   7.012   1.397 -0.2814  0.1660  0.9974
 1855SOL    HW2 7007   0.988   6.985   1.519  0.2929 -1.4406  0.2734
 1856SOL     OW 7008   6.027   1.136   2.915 -0.0980  0.5871  0.0016
 1856SOL    HW1 7009   5.934   1.141   2.890 -0.4729  0.1188  1.2002
 1856SOL    HW2 7010   6.048   1.043   2.911  0.3260  0.6945 -0.2665
 1857SOL     OW 7011   2.191   2.879   4.876 -0.2010  0.1648  0.1054
 1857SOL    HW1 7012   2.194   2.814   4.946 -1.4883  1.2214  1.2211
 1857SOL    HW2 7013   2.247   2.951   4.908 -1.1815  0.8615  0.3069
 1858SOL     OW 7014   3.231   1.116   7.782  0.4357  0.4309 -0.1467
 1858SOL    HW1 7015   3.309   1.111   7.728 -1.0201 -0.9800 -2.2367
 1858SOL    HW2 7016   3.158   1.121   7.720 -1.1456  3.6650  1.6796
 1859SOL     OW 7017   7.369   6.944   2.405 -0.3665  0.0725  0.4461
 1859SOL    HW1 7018   7.334   7.005   2.470 -1.0533 -0.7074  0.8258
 1859SOL    HW2 7019   7.462   6.965   2.401 -0.6856  1.5484  0.1137
 1860SOL     OW 7020   0.178   3.663   0.325 -0.1743  0.1556 -0.5394
 1860SOL    HW1 7021   0.100   3.619   0.358  0.8365 -0.7661  0.7592
 1860SOL    HW2 7022   0.173   3.654   0.230 -3.1909  2.8761 -0.7986
 1861SOL     OW 7023   7.575   1.234   1.949  0.0844  0.1791  0.2962
 1861SOL    HW1 7024   7.657   1.186   1.941  0.5645  1.0654 -0.3985
 1861SOL    HW2 7025   7.586   1.310   1.890 -1.2309  0.3066  0.1754
 1862SOL     OW 7026   4.681   1.793   5.781 -0.0715 -0.4176 -0.0079
 1862SOL    HW1 7027   4.626   1.860   5.822  0.6593 -0.3406  0.8805
 1862SOL    HW2 7028   4.701   1.732   5.852 -0.4336 -1.4045 -0.7263
 1863SOL     OW 7029   4.035   0.213   7.831  0.4090  0.4777  0.1158
 1863SOL    HW1 7030   3.940   0.221   7.844  0.1782  1.0582 -1.6025
 1863SOL    HW2 7031   4.068   0.301   7.846  0.8261  0.0833  1.6126
 1864SOL     OW 7032   5.459   4.287  10.794  0.1655  0.2445 -0.1699
 1864SOL    HW1 7033   5.483   4.379  10.798 -0.8768  0.5138  0.2380
 1864SOL    HW2 7034   5.418   4.278  10.708 -0.0636  0.2538 -0.0636
 1865SOL     OW 7035   4.365   4.193   0.434  0.1697  0.2939 -0.1298
 1865SOL    HW1 7036   4.301   4.128   0.461  2.6932 -1.3570  2.4748
 1865SOL    HW2 7037   4.430   4.143   0.384  1.8207  0.8571  1.3602
 1866SOL     OW 7038   3.895   1.598   8.358 -0.0228  0.3246  0.2734
 1866SOL    HW1 7039   3.965   1.632   8.413 -0.0751  0.0083  0.5369
 1866SOL    HW2 7040   3.908   1.640   8.273  1.9664 -1.5103 -0.4405
 1867SOL     OW 7041   4.085   4.596   9.230 -0.0660 -0.3097  0.1694
 1867SOL    HW1 7042   4.043   4.671   9.272 -0.3103 -0.6478  0.5321
 1867SOL    HW2 7043   4.126   4.548   9.302 -1.8277 -1.7719  0.2629
 1868SOL     OW 7044   6.355   4.961   8.676  0.4076  0.1606 -0.1335
 1868SOL    HW1 7045   6.282   5.005   8.631  0.6863  0.4573 -0.3004
 1868SOL    HW2 7046   6.433   5.005   8.642  0.6098  0.6865  0.9741
 1869SOL     OW 7047   3.191   5.312   3.989  0.6381  0.2193 -0.1692
 1869SOL    HW1 7048   3.195   5.218   4.004  0.5034  0.2371 -0.0085
 1869SOL    HW2 7049   3.261   5.349   4.042  0.9228  0.1779 -0.5153
 1870SOL     OW 7050   2.100   3.222   1.364 -0.0065 -0.7392 -0.2814
 1870SOL    HW1 7051   2.153   3.178   1.430 -0.2834  0.1708  0.5589
 1870SOL    HW2 7052   2.011   3.192   1.381  0.0270 -1.1422 -0.7779
 1871SOL     OW 7053   4.472   5.933  10.006  0.2606 -0.0802  0.1406
 1871SOL    HW1 7054   4.540   5.893   9.952  0.8477 -0.2023  0.9537
 1871SOL    HW2 7055   4.396   5.937   9.949  1.2010  0.9558 -1.1216
 1872SOL     OW 7056   3.464   0.091   3.927  0.2092 -0.1743  0.0926
 1872SOL    HW1 7057   3.559   0.094   3.938  0.2901 -1.6773 -0.0477
 1872SOL    HW2 7058   3.449   0.025   3.860 -0.8712  1.1533 -1.0440
 1873SOL     OW 7059   3.451   1.237   1.892  0.2368  0.6464  0.3166
 1873SOL    HW1 7060   3.414   1.238   1.803 -0.0179 -0.7942  0.3812
 1873SOL    HW2 7061   3.400   1.302   1.940 -0.4636  0.5417 -0.2731
 1874SOL     OW 7062   1.777   1.753   1.665  0.1189 -0.3081  0.1091
 1874SOL    HW1 7063   1.849   1.804   1.629  0.7988 -0.9091  0.5794
 1874SOL    HW2 7064   1.738   1.811   1.731 -0.9257  0.6634 -1.3266
 1875SOL     OW 7065   6.923   1.280   9.832 -0.3929  0.4772  0.2200
 1875SOL    HW1 7066   6.996   1.287   9.893 -0.9182  2.2061  0.7095
 1875SOL    HW2 7067   6.867   1.212   9.869  0.0811  0.3987  0.8087
 1876SOL     OW 7068   2.564   7.861   6.565 -0.2250 -0.0444  0.3997
 1876SOL    HW1 7069   2.493   7.799   6.585  0.0800 -0.3702  0.4895
 1876SOL    HW2 7070   2.622   7.812   6.506 -0.6919  0.6271 -0.6359
 1877SOL     OW 7071   2.617   3.487  10.824 -0.3683 -0.4145  0.3190
 1877SOL    HW1 7072   2.545   3.441  10.867 -2.3320  1.7379 -0.4430
 1877SOL    HW2 7073   2.579   3.522  10.743  1.2649  1.5097  0.2934
 1878SOL     OW 7074   2.184   3.890   0.370  0.5779  0.5195  0.4866
 1878SOL    HW1 7075   2.256   3.953   0.371  0.9349  0.1298  1.3950
 1878SOL    HW2 7076   2.206   3.829   0.441 -0.3700  0.0773  0.4104
 1879SOL     OW 7077   6.925   3.120  10.484  0.3103  0.0712 -0.6559
 1879SOL    HW1 7078   6.980   3.195  10.460  0.5379  0.0158 -0.3251
 1879SOL    HW2 7079   6.836   3.149  10.467  0.3317  0.7430  0.2607
 1880SOL     OW 7080   5.024   5.702   2.520 -0.5840  0.1502  0.3833
 1880SOL    HW1 7081   5.098   5.757   2.497  1.3470 -2.2940  0.3103
 1880SOL    HW2 7082   4.972   5.696   2.439 -0.8970  1.8261  0.4195
 1881SOL     OW 7083   3.053   6.644   1.746  0.1346 -0.0440 -0.5428
 1881SOL    HW1 7084   3.102   6.604   1.819 -0.0922  0.7046  0.0214
 1881SOL    HW2 7085   3.116   6.703   1.705 -0.1554  0.6056 -0.0722
 1882SOL     OW 7086   0.751   3.118  12.049  0.2376  0.0232 -0.8697
 1882SOL    HW1 7087   0.733   3.026  12.065  0.0090  0.4074  1.4189
 1882SOL    HW2 7088   0.792   3.149  12.130 -0.0677  2.0198 -1.4215
 1883SOL     OW 7089   4.040   3.255  10.770  0.8269  0.0231  0.0679
 1883SOL    HW1 7090   4.105   3.200  10.727 -0.0584  0.1245 -1.4822
 1883SOL    HW2 7091   3.966   3.257  10.709  0.1783  1.5636  0.8460
 1884SOL     OW 7092   1.245   5.037   2.587 -0.3128  0.2554 -0.0664
 1884SOL    HW1 7093   1.196   5.113   2.619  0.1898  0.1179  1.0674
 1884SOL    HW2 7094   1.297   5.072   2.514  0.1721  1.0916  0.6578
 1885SOL     OW 7095   6.821   5.450  11.297 -0.4648  0.5619  0.2911
 1885SOL    HW1 7096   6.737   5.480  11.264  0.1437  0.7412 -1.1992
 1885SOL    HW2 7097   6.882   5.520  11.274  0.3152 -0.1515  0.1376
 1886SOL     OW 7098   5.715   6.771   2.926 -0.2946 -0.2418 -0.2490
 1886SOL    HW1 7099   5.648   6.725   2.977 -0.8737 -0.9908 -1.6572
 1886SOL    HW2 7100   5.685   6.862   2.926  0.8271  0.2180  2.5006
 1887SOL     OW 7101   1.836   5.178   2.304  0.1815 -0.4178  0.0021
 1887SOL    HW1 7102   1.874   5.114   2.243 -2.6900 -2.3196 -0.0014
 1887SOL    HW2 7103   1.791   5.125   2.369  0.6059  1.6295  2.0694
 1888SOL     OW 7104   7.871   1.341   0.872 -0.0463 -0.3778  0.3253
 1888SOL    HW1 7105   7.876   1.419   0.926  0.4315 -0.3554  0.2477
 1888SOL    HW2 7106   7.874   1.374   0.782  1.6068 -0.5678  0.2851
 1889SOL     OW 7107   1.187   7.605  11.061  0.0776  0.1036  0.2464
 1889SOL    HW1 7108   1.230   7.658  11.128 -1.7279  0.2226  1.3848
 1889SOL    HW2 7109   1.225   7.518  11.071  1.7101  0.6972 -0.3819
 1890SOL     OW 7110   0.085   2.376   0.014  0.6057 -0.0611  0.4328
 1890SOL    HW1 7111   0.144   2.300   0.018  0.8454  0.1520  0.8892
 1890SOL    HW2 7112   0.057   2.378  -0.078 -0.2169 -1.3246  0.6211
 1891SOL     OW 7113   0.091   7.286   0.362 -0.2279 -0.1980  0.5591
 1891SOL    HW1 7114   0.035   7.245   0.428 -0.1240 -1.6213 -0.1907
 1891SOL    HW2 7115   0.103   7.376   0.393 -0.3654 -0.7538  2.3470
 1892SOL     OW 7116   1.048   5.310   2.986 -0.0802  0.2781 -1.0222
 1892SOL    HW1 7117   1.043   5.218   2.963 -1.3370  0.2721 -0.7727
 1892SOL    HW2 7118   0.957   5.340   2.986  0.2283  1.2742 -0.1081
 1893SOL     OW 7119   6.450   4.795   8.497 -0.3037 -0.4136  0.9132
 1893SOL    HW1 7120   6.410   4.832   8.576 -2.7606 -2.9048  1.0147
 1893SOL    HW2 7121   6.415   4.847   8.425 -1.9083 -1.0492  1.1948
 1894SOL     OW 7122   6.936   3.534   3.354 -0.4920 -0.2666 -0.0084
 1894SOL    HW1 7123   6.907   3.623   3.335 -2.1947 -0.7970 -0.0781
 1894SOL    HW2 7124   7.026   3.531   3.323 -0.8936  0.9915 -1.4342
 1895SOL     OW 7125   0.677   0.254   5.423 -0.1165 -0.1625 -0.0945
 1895SOL    HW1 7126   0.588   0.280   5.447 -0.1009 -0.6524  0.5154
 1895SOL    HW2 7127   0.692   0.173   5.472  0.1692 -0.8255 -1.2467
 1896SOL     OW 7128   6.331   1.912  11.320  0.1886 -0.0754 -0.8002
 1896SOL    HW1 7129   6.341   1.995  11.273  0.0051  0.1812 -0.3865
 1896SOL    HW2 7130   6.356   1.846  11.255 -0.3908  0.2503 -1.3723
 1897SOL     OW 7131   3.324   6.172   0.238 -0.9058 -0.2095  0.3447
 1897SOL    HW1 7132   3.406   6.149   0.194 -0.8851 -1.6913  1.1239
 1897SOL    HW2 7133   3.308   6.263   0.212  0.9305  0.0761  0.0992
 1898SOL     OW 7134   0.188   6.793   5.708  0.6140  0.1087  0.0603
 1898SOL    HW1 7135   0.223   6.778   5.621 -0.5849  2.0946 -0.8364
 1898SOL    HW2 7136   0.114   6.732   5.715 -0.3575  1.1057 -1.0434
 1899SOL     OW 7137   6.689   7.908   4.955  0.0329  0.1591  0.2502
 1899SOL    HW1 7138   6.713   7.851   4.882 -1.0176  0.0447 -0.0219
 1899SOL    HW2 7139   6.765   7.965   4.967  0.4233 -0.1685 -0.5869
 1900SOL     OW 7140   5.673   4.353   9.643 -0.3094 -0.1844  0.0452
 1900SOL    HW1 7141   5.605   4.407   9.683 -1.7854 -1.5384 -0.5042
 1900SOL    HW2 7142   5.670   4.271   9.692 -0.3491 -0.9201 -1.1491
 1901SOL     OW 7143   5.993   1.717   5.796  0.4937 -0.1436 -0.1305
 1901SOL    HW1 7144   5.906   1.751   5.816  0.6629 -0.2005  0.7575
 1901SOL    HW2 7145   6.051   1.792   5.805  0.7011 -0.3826  0.5710
 1902SOL     OW 7146   4.451   6.522   3.537  0.0532 -0.0850 -0.1586
 1902SOL    HW1 7147   4.454   6.592   3.603  1.5498  0.3835 -0.6607
 1902SOL    HW2 7148   4.473   6.566   3.455 -0.8598 -0.8276 -0.8267
 1903SOL     OW 7149   7.027   4.970   9.009  0.1152 -0.6772  0.1998
 1903SOL    HW1 7150   7.091   4.935   9.071  0.1300  1.0226  1.2161
 1903SOL    HW2 7151   7.074   4.974   8.926  1.5288  0.8672  0.9958
 1904SOL     OW 7152   2.234   7.479   8.617  0.4093  0.1019 -0.4153
 1904SOL    HW1 7153   2.317   7.525   8.608 -0.9711  3.2416  1.2676
 1904SOL    HW2 7154   2.190   7.492   8.532  0.1218  1.8811 -0.0356
 1905SOL     OW 7155   5.446   0.686  10.674  0.6496  0.4350  0.1676
 1905SOL    HW1 7156   5.369   0.744  10.665  0.0373 -0.3720  0.0965
 1905SOL    HW2 7157   5.478   0.703  10.763 -0.2315  0.0327  0.5736
 1906SOL     OW 7158   5.341   6.709   8.165  0.2746  0.4555 -0.0766
 1906SOL    HW1 7159   5.277   6.771   8.202 -0.4466 -0.7309  0.7257
 1906SOL    HW2 7160   5.426   6.744   8.192 -0.1392  0.9255  0.6741
 1907SOL     OW 7161   2.120   6.307   3.344 -0.1737 -0.8871 -0.2277
 1907SOL    HW1 7162   2.171   6.328   3.266 -0.9414  3.5316  0.1791
 1907SOL    HW2 7163   2.179   6.326   3.417 -1.0781  0.4501  0.2053
 1908SOL     OW 7164   6.638   4.315   6.441 -0.1135  0.1567  1.2198
 1908SOL    HW1 7165   6.571   4.327   6.374 -0.8006 -2.1252  1.4425
 1908SOL    HW2 7166   6.702   4.257   6.401  0.5913  0.4969  1.8156
 1909SOL     OW 7167   2.366   3.408  12.450 -0.5039 -0.2776 -0.6438
 1909SOL    HW1 7168   2.425   3.453  12.389  0.4999  0.9287  1.1428
 1909SOL    HW2 7169   2.302   3.475  12.475 -0.1392 -0.3754  0.5950
 1910SOL     OW 7170   5.876   2.067   9.298 -0.4196 -0.0645  0.2143
 1910SOL    HW1 7171   5.822   2.145   9.306 -0.0732  0.1560  0.4302
 1910SOL    HW2 7172   5.966   2.100   9.299 -0.2881 -0.3573 -0.9014
 1911SOL     OW 7173   3.245   4.121   0.527  0.6220 -0.4243  0.1480
 1911SOL    HW1 7174   3.184   4.143   0.598 -0.9226 -1.5472 -0.7683
 1911SOL    HW2 7175   3.265   4.029   0.540 -0.9450 -1.0986 -1.7153
 1912SOL     OW 7176   2.313   6.320   3.555 -0.2912 -0.4020 -0.6585
 1912SOL    HW1 7177   2.288   6.393   3.611 -2.3632 -1.8278  0.4132
 1912SOL    HW2 7178   2.394   6.287   3.595 -0.0519  0.4872 -0.3761
 1913SOL     OW 7179   3.172   2.514   3.483 -0.2794 -0.6071 -0.0453
 1913SOL    HW1 7180   3.088   2.497   3.440 -0.1781 -2.5007  0.4334
 1913SOL    HW2 7181   3.220   2.431   3.477  1.5996  0.4330 -0.3402
 1914SOL     OW 7182   7.017   3.003  11.505  0.0364 -0.1502  0.1303
 1914SOL    HW1 7183   7.106   3.024  11.535  0.0891  1.1634 -0.8687
 1914SOL    HW2 7184   6.965   2.999  11.585  0.5594  1.2875  0.5708
 1915SOL     OW 7185   0.854   1.470   1.094 -0.0190 -0.1714 -0.1639
 1915SOL    HW1 7186   0.930   1.510   1.050  0.5354 -0.1955  0.7469
 1915SOL    HW2 7187   0.890   1.395   1.140 -0.0327  1.3559  2.5313
 1916SOL     OW 7188   6.692   1.031   6.628  0.1574  0.1155 -0.3198
 1916SOL    HW1 7189   6.598   1.031   6.611  0.2188 -1.7436 -0.8392
 1916SOL    HW2 7190   6.705   0.959   6.690  1.2807  0.1682 -0.4873
 1917SOL     OW 7191   7.851   7.468   9.372 -0.7448 -0.2705  0.4057
 1917SOL    HW1 7192   7.874   7.552   9.410 -2.3648  0.5450 -0.3039
 1917SOL    HW2 7193   7.841   7.409   9.447  0.7510  0.0474  0.8830
 1918SOL     OW 7194   4.075   5.086   0.295  0.4778 -0.2841 -0.3825
 1918SOL    HW1 7195   4.003   5.073   0.233  1.4234 -0.4006 -1.4656
 1918SOL    HW2 7196   4.039   5.148   0.359 -0.2049  0.6087 -1.5824
 1919SOL     OW 7197   7.402   2.384   4.093 -0.1227 -0.0452 -0.8081
 1919SOL    HW1 7198   7.413   2.425   4.007 -1.1896 -1.3061 -1.5810
 1919SOL    HW2 7199   7.447   2.299   4.084 -0.7064 -0.4107 -0.3103
 1920SOL     OW 7200   5.312   7.632   5.168  0.0502 -0.3510  0.2523
 1920SOL    HW1 7201   5.393   7.658   5.213  0.5498  0.4958 -1.0784
 1920SOL    HW2 7202   5.243   7.685   5.209  0.6107  0.9668 -0.4411
 1921SOL     OW 7203   1.524   6.795   2.336 -0.1543 -0.6542 -0.1962
 1921SOL    HW1 7204   1.554   6.873   2.383 -1.7979  1.0512 -1.7774
 1921SOL    HW2 7205   1.601   6.764   2.289  0.0168  1.6738 -1.6367
 1922SOL     OW 7206   7.698   1.070  11.208  0.0180  0.2115  0.2242
 1922SOL    HW1 7207   7.760   1.142  11.207 -0.8203  0.9589  0.5039
 1922SOL    HW2 7208   7.690   1.046  11.301  0.2655 -0.2241  0.1371
 1923SOL     OW 7209   1.780   7.934   6.512 -0.0217  0.4699  0.0560
 1923SOL    HW1 7210   1.840   7.860   6.499 -1.3360 -0.5612 -0.2879
 1923SOL    HW2 7211   1.827   8.009   6.475  0.2177 -0.7041 -2.2210
 1924SOL     OW 7212   3.847   7.830  11.905 -0.3439  0.0466 -0.3054
 1924SOL    HW1 7213   3.787   7.862  11.837  0.8444  1.0615 -0.9251
 1924SOL    HW2 7214   3.846   7.735  11.894 -0.2067  0.1818 -1.7491
 1925SOL     OW 7215   4.995   6.833   7.894 -0.0236  0.4117 -0.2315
 1925SOL    HW1 7216   4.918   6.842   7.838 -0.2952  0.3680  0.1313
 1925SOL    HW2 7217   4.968   6.873   7.977  0.4954  0.8028 -0.2467
 1926SOL     OW 7218   0.002   6.641  12.251  0.0701  0.3350 -0.2631
 1926SOL    HW1 7219   0.031   6.710  12.311  1.0739 -0.4447  0.1785
 1926SOL    HW2 7220   0.006   6.682  12.164  2.3771  0.3640 -0.2224
 1927SOL     OW 7221   0.367   3.628   2.806  0.7160  0.4183 -0.5318
 1927SOL    HW1 7222   0.280   3.657   2.778  0.3375 -0.9916 -0.9151
 1927SOL    HW2 7223   0.427   3.693   2.771 -0.1032  0.8587 -1.1529
 1928SOL     OW 7224   1.690   4.838   3.976 -0.0071  0.2972  0.2982
 1928SOL    HW1 7225   1.695   4.928   4.009 -0.3230  0.6492 -0.5817
 1928SOL    HW2 7226   1.656   4.787   4.049  1.1573  0.6952  1.1576
 1929SOL     OW 7227   2.149   0.183   7.353 -0.0478  0.0707  0.0695
 1929SOL    HW1 7228   2.154   0.152   7.443 -1.3095  1.0207  0.5037
 1929SOL    HW2 7229   2.072   0.240   7.352 -1.5283 -1.7787 -2.1841
 1930SOL     OW 7230   7.828   3.665  11.587 -0.3822 -1.1206 -0.1856
 1930SOL    HW1 7231   7.832   3.744  11.533  0.7011 -0.1569  1.2282
 1930SOL    HW2 7232   7.737   3.638  11.582 -0.9895  0.7203 -0.0258
 1931SOL     OW 7233   3.211   3.382   2.099  0.3604 -0.3481  0.0067
 1931SOL    HW1 7234   3.152   3.429   2.041 -0.0988  0.4334  1.0728
 1931SOL    HW2 7235   3.167   3.298   2.115  1.4811 -1.4863 -2.4042
 1932SOL     OW 7236   4.903   7.336   5.046 -0.5955 -0.5398 -0.5753
 1932SOL    HW1 7237   4.938   7.249   5.023  1.0654  0.3541 -1.6034
 1932SOL    HW2 7238   4.920   7.390   4.969  2.0881  1.7349  1.3932
 1933SOL     OW 7239   5.622   0.374   5.899 -0.3912 -0.4464  0.1292
 1933SOL    HW1 7240   5.548   0.433   5.886 -0.7969 -0.8871  0.4026
 1933SOL    HW2 7241   5.652   0.354   5.811 -1.4115 -1.2763 -0.0456
 1934SOL     OW 7242   5.051   0.894   4.296 -0.3408 -0.6453 -0.1268
 1934SOL    HW1 7243   5.054   0.988   4.315 -1.7681 -0.9347  1.8774
 1934SOL    HW2 7244   4.989   0.886   4.224 -2.9302 -0.2493  1.9305
 1935SOL     OW 7245   2.765   4.380   8.087 -0.2032  0.1016 -0.1614
 1935SOL    HW1 7246   2.825   4.332   8.143 -0.0784  1.3761  0.8283
 1935SOL    HW2 7247   2.789   4.354   7.998 -0.6000 -2.1748  0.3442
 1936SOL     OW 7248   1.297   0.955   5.791  0.0863  0.0791 -1.0417
 1936SOL    HW1 7249   1.321   0.867   5.763  0.8605 -0.2146  0.4944
 1936SOL    HW2 7250   1.380   0.999   5.807 -0.3071  0.4157  0.1844
 1937SOL     OW 7251   1.415   4.406   6.947  0.1304 -0.1091  0.2463
 1937SOL    HW1 7252   1.350   4.449   7.003 -0.9861 -0.1027 -0.9955
 1937SOL    HW2 7253   1.485   4.470   6.938  1.1145 -0.6741  2.8325
 1938SOL     OW 7254   1.938   1.883   0.543 -0.1024  0.3427 -0.4598
 1938SOL    HW1 7255   2.024   1.858   0.575  1.2131  1.7835 -2.5991
 1938SOL    HW2 7256   1.924   1.971   0.579 -0.1978  0.5357 -0.9599
 1939SOL     OW 7257   2.731   7.906   6.092 -0.3618  0.3207 -0.1152
 1939SOL    HW1 7258   2.642   7.922   6.061  0.1657 -0.4398 -2.2471
 1939SOL    HW2 7259   2.777   7.989   6.079 -0.7682  0.7380  1.0683
 1940SOL     OW 7260   1.292   0.125  11.462  0.7979 -0.3813  0.3671
 1940SOL    HW1 7261   1.237   0.122  11.540  1.8588 -1.3343  1.0986
 1940SOL    HW2 7262   1.256   0.197  11.410 -0.7935 -0.6416  1.0703
 1941SOL     OW 7263   7.892   0.342  10.822  0.6419 -0.3047 -0.0624
 1941SOL    HW1 7264   7.866   0.373  10.909 -0.9212 -1.8635  0.0998
 1941SOL    HW2 7265   7.846   0.400  10.761  0.2040 -0.3914  0.1817
 1942SOL     OW 7266   1.079   6.558   3.424 -0.3851 -0.0700 -0.0203
 1942SOL    HW1 7267   1.151   6.613   3.454  0.1839 -0.2215 -1.0636
 1942SOL    HW2 7268   1.102   6.535   3.333 -2.4065  1.0464 -0.8806
 1943SOL     OW 7269   0.636   6.658   8.860  0.1894  0.0834  0.0992
 1943SOL    HW1 7270   0.585   6.692   8.786 -0.3515  0.0660  0.4572
 1943SOL    HW2 7271   0.697   6.729   8.882 -0.9962  0.8915  0.9041
 1944SOL     OW 7272   7.872   7.161   4.551  0.1726  0.2455  0.3539
 1944SOL    HW1 7273   7.876   7.232   4.486 -3.3740  0.1078 -0.2371
 1944SOL    HW2 7274   7.808   7.191   4.615  0.8466 -1.2007  1.7690
 1945SOL     OW 7275   0.753   5.373   0.524 -0.4843 -0.2764 -0.3395
 1945SOL    HW1 7276   0.776   5.318   0.449 -0.9453 -1.3789  0.2947
 1945SOL    HW2 7277   0.837   5.405   0.557 -0.3602  1.5455 -2.2474
 1946SOL     OW 7278   4.043   5.096   1.561  0.4232  0.1365  0.3806
 1946SOL    HW1 7279   4.083   5.020   1.517 -0.7626  0.1021 -0.6775
 1946SOL    HW2 7280   4.114   5.132   1.614  1.8157 -0.0380 -1.2815
 1947SOL     OW 7281   3.036   1.418   1.672 -0.0203  0.0697 -0.7211
 1947SOL    HW1 7282   3.109   1.362   1.699 -1.7156 -2.3030 -0.7497
 1947SOL    HW2 7283   3.049   1.430   1.578  0.2768 -0.4613 -0.7523
 1948SOL     OW 7284   5.665   2.228   8.698 -0.7350  0.0306  0.0062
 1948SOL    HW1 7285   5.729   2.216   8.628 -0.8903  0.2142 -0.1700
 1948SOL    HW2 7286   5.591   2.271   8.655 -0.8292  0.1464  0.2839
 1949SOL     OW 7287   0.475   7.439   0.558  0.5797 -0.0696 -0.5668
 1949SOL    HW1 7288   0.457   7.532   0.556  1.1014  0.0808  0.9069
 1949SOL    HW2 7289   0.450   7.410   0.646  0.1193 -1.3896 -1.0938
 1950SOL     OW 7290   0.792   4.939  11.901 -0.1152 -0.2101  0.1802
 1950SOL    HW1 7291   0.881   4.966  11.924 -0.6364  0.4868  1.5062
 1950SOL    HW2 7292   0.737   4.978  11.969 -1.2718 -1.9892  0.3329
 1951SOL     OW 7293   1.389   4.934  10.427  0.5563  0.1799  0.2290
 1951SOL    HW1 7294   1.334   4.857  10.437  0.6638 -0.2010 -1.7130
 1951SOL    HW2 7295   1.433   4.944  10.512 -0.5061 -1.0569  0.9549
 1952SOL     OW 7296   0.068   3.066   9.102  0.2103  0.2294  0.1507
 1952SOL    HW1 7297  -0.014   3.110   9.080  0.9846  1.7300  0.0818
 1952SOL    HW2 7298   0.076   3.077   9.197  0.8979  1.1818  0.0001
 1953SOL     OW 7299   3.911   2.657   6.456 -0.0029 -0.5609  0.0506
 1953SOL    HW1 7300   3.906   2.609   6.538 -1.5976 -0.0453  0.3029
 1953SOL    HW2 7301   3.927   2.590   6.390  1.4348 -0.9606  0.7815
 1954SOL     OW 7302   7.837   6.950   4.838  0.3867 -0.3835 -0.5529
 1954SOL    HW1 7303   7.743   6.944   4.855  0.5818 -0.9146  0.4398
 1954SOL    HW2 7304   7.844   6.951   4.743 -0.6136 -0.5964 -0.6417
 1955SOL     OW 7305   5.681   2.532  10.109  0.1365  0.1249  0.2013
 1955SOL    HW1 7306   5.612   2.555  10.046  0.8180 -0.1610 -0.6688
 1955SOL    HW2 7307   5.669   2.438  10.123 -0.1548  0.2316  0.6772
 1956SOL     OW 7308   7.315   2.955  11.145 -0.1681 -0.7012  0.5489
 1956SOL    HW1 7309   7.224   2.977  11.163 -0.4924 -0.5455 -1.0668
 1956SOL    HW2 7310   7.331   2.989  11.057  2.0036  0.8238  1.4509
 1957SOL     OW 7311   0.271   2.202  12.440 -0.1463  0.3484 -0.4918
 1957SOL    HW1 7312   0.328   2.209  12.364  0.2349  0.3469 -0.2066
 1957SOL    HW2 7313   0.252   2.108  12.447 -1.7245  0.5444 -1.7106
 1958SOL     OW 7314   3.692   3.321   7.803 -0.0192  0.1458 -0.4104
 1958SOL    HW1 7315   3.651   3.303   7.887  0.4555 -1.8847 -0.5507
 1958SOL    HW2 7316   3.772   3.368   7.825  0.0985 -0.3634  0.2930
 1959SOL     OW 7317   0.300   5.296   2.018  0.0177 -0.0439  0.4335
 1959SOL    HW1 7318   0.325   5.389   2.015 -0.4951  0.0836 -0.0390
 1959SOL    HW2 7319   0.289   5.277   2.111  0.1891  0.3542  0.5374
 1960SOL     OW 7320   3.787   0.081   7.214  0.1510  0.7793  0.2896
 1960SOL    HW1 7321   3.873   0.063   7.252  0.0584  0.7618  0.4876
 1960SOL    HW2 7322   3.724   0.043   7.275  0.0533 -0.6911 -0.6584
 1961SOL     OW 7323   6.682   4.339   4.251  0.2467 -0.2933 -0.0217
 1961SOL    HW1 7324   6.622   4.383   4.312  0.5402 -0.7722  0.6165
 1961SOL    HW2 7325   6.768   4.346   4.292  0.4444 -0.6363 -0.3733
 1962SOL     OW 7326   6.253   2.012  10.007  0.0849  0.2658 -0.0170
 1962SOL    HW1 7327   6.308   2.031  10.083  0.3077  1.9337 -0.5566
 1962SOL    HW2 7328   6.310   2.028   9.932 -0.8784  1.2169 -0.5755
 1963SOL     OW 7329   1.731   5.970   2.285 -0.6697  0.6703  0.0074
 1963SOL    HW1 7330   1.770   6.018   2.357  0.7467 -0.6283  0.1543
 1963SOL    HW2 7331   1.670   5.910   2.326  1.5209 -1.4344  0.4170
 1964SOL     OW 7332   2.247   0.360  11.401  0.2298  0.0902 -0.3936
 1964SOL    HW1 7333   2.266   0.269  11.378  0.4003  0.1971 -0.6823
 1964SOL    HW2 7334   2.160   0.376  11.366 -0.8778 -0.7062  1.8015
 1965SOL     OW 7335   4.965   4.705  10.141 -0.0019 -0.9867 -0.0378
 1965SOL    HW1 7336   4.972   4.796  10.169  0.5432 -0.8885 -0.4802
 1965SOL    HW2 7337   4.928   4.660  10.216 -2.4517 -0.0163 -0.5754
 1966SOL     OW 7338   3.965   4.945  11.676  0.0798 -0.1092  0.6163
 1966SOL    HW1 7339   4.031   5.014  11.677 -0.4550  0.5397 -2.0645
 1966SOL    HW2 7340   3.881   4.992  11.673 -0.3811 -0.9019  0.6984
 1967SOL     OW 7341   2.570   2.255   0.635  0.4152  0.1247  0.0370
 1967SOL    HW1 7342   2.530   2.320   0.693 -0.5063  1.3132 -1.8336
 1967SOL    HW2 7343   2.622   2.307   0.573  1.7310 -1.1352  0.0217
 1968SOL     OW 7344   5.206   0.776   8.343  0.1091  0.3048 -0.4390
 1968SOL    HW1 7345   5.112   0.760   8.332 -0.0777  1.1967 -0.2216
 1968SOL    HW2 7346   5.211   0.866   8.374  0.9433 -0.2917  1.2746
 1969SOL     OW 7347   2.782   0.417   5.982  0.0450 -0.2716 -0.5102
 1969SOL    HW1 7348   2.731   0.475   6.038  1.9578  1.2648 -0.2304
 1969SOL    HW2 7349   2.752   0.435   5.893  0.5990  1.1836 -0.4206
 1970SOL     OW 7350   5.842   4.144   7.177  0.1810  0.0566  0.0707
 1970SOL    HW1 7351   5.901   4.076   7.144 -1.8815 -2.3307  0.9878
 1970SOL    HW2 7352   5.900   4.210   7.216  2.2488 -2.4563  1.5144
 1971SOL     OW 7353   4.157   5.957   8.467  0.5467 -0.0357  0.1448
 1971SOL    HW1 7354   4.120   5.921   8.386 -0.2663 -2.3446  1.4458
 1971SOL    HW2 7355   4.217   5.889   8.498  0.1503  0.3918  1.9411
 1972SOL     OW 7356   2.627   1.828   3.972  0.3939 -0.1421 -0.2755
 1972SOL    HW1 7357   2.683   1.787   3.906  0.7967  0.7283 -0.4868
 1972SOL    HW2 7358   2.642   1.922   3.961 -1.6112  0.1605 -0.7857
 1973SOL     OW 7359   4.262   4.779   5.820  0.1539  0.2787 -0.4461
 1973SOL    HW1 7360   4.236   4.696   5.859 -0.3658  0.5459 -0.2166
 1973SOL    HW2 7361   4.181   4.829   5.812  0.6961  1.5834  1.3768
 1974SOL     OW 7362   6.754   6.075  10.409  0.3725 -0.3742  0.0281
 1974SOL    HW1 7363   6.751   5.979  10.415  0.5381 -0.3759  0.0771
 1974SOL    HW2 7364   6.710   6.105  10.488  2.0605 -0.4006  1.0293
 1975SOL     OW 7365   6.705   3.060  12.022 -0.4065 -0.0563 -0.4309
 1975SOL    HW1 7366   6.800   3.060  12.032 -0.4140  0.9374 -0.2173
 1975SOL    HW2 7367   6.671   3.063  12.112 -0.5926  1.3672 -0.5195
 1976SOL     OW 7368   0.619   7.007   8.121  0.0869 -0.1256 -1.0077
 1976SOL    HW1 7369   0.550   7.063   8.085 -0.1638 -0.2641 -0.7417
 1976SOL    HW2 7370   0.701   7.049   8.093 -0.0989  0.3606 -0.8233
 1977SOL     OW 7371   5.807   2.770   2.315 -0.2047 -0.2333 -0.4102
 1977SOL    HW1 7372   5.783   2.815   2.396  3.4284 -0.5131  1.0056
 1977SOL    HW2 7373   5.852   2.836   2.263  1.3144 -1.0923 -0.2400
 1978SOL     OW 7374   1.705   2.905   8.166  0.3346 -0.9446  0.4714
 1978SOL    HW1 7375   1.786   2.869   8.130  0.1214 -1.4832  0.5220
 1978SOL    HW2 7376   1.638   2.840   8.144  0.1476 -1.1444  1.5873
 1979SOL     OW 7377   3.341   2.082   6.571  0.6489 -0.0884  0.4661
 1979SOL    HW1 7378   3.427   2.105   6.536 -0.2814  0.6791 -1.4643
 1979SOL    HW2 7379   3.309   2.013   6.513 -0.8120  0.9722 -0.0452
 1980SOL     OW 7380   7.845   2.720   5.170  0.0270 -0.3548 -0.2021
 1980SOL    HW1 7381   7.843   2.791   5.234 -1.2972 -0.3125 -0.2636
 1980SOL    HW2 7382   7.902   2.752   5.100  0.6113  0.0389  0.4465
 1981SOL     OW 7383   2.861   4.338  10.756  0.3179 -0.5842 -0.0113
 1981SOL    HW1 7384   2.910   4.398  10.813 -0.1933  0.0861 -0.2563
 1981SOL    HW2 7385   2.906   4.342  10.672  1.3862 -1.9775  0.4718
 1982SOL     OW 7386   1.608   3.822   8.310 -0.1891  0.1521  0.6589
 1982SOL    HW1 7387   1.600   3.747   8.251  1.3632 -0.3920  1.1131
 1982SOL    HW2 7388   1.698   3.852   8.300 -0.7992  2.0503  0.4140
 1983SOL     OW 7389   1.192   7.204   0.675 -0.2569  0.0523  0.5235
 1983SOL    HW1 7390   1.247   7.167   0.606 -0.8407 -1.9156  1.0666
 1983SOL    HW2 7391   1.252   7.221   0.747 -0.0445 -0.2347  0.4145
 1984SOL     OW 7392   5.235   6.088   5.364 -0.1029 -0.0936 -0.3725
 1984SOL    HW1 7393   5.163   6.068   5.424  0.8611  0.5259  1.0254
 1984SOL    HW2 7394   5.214   6.039   5.284 -0.1591 -2.9892  1.2873
 1985SOL     OW 7395   3.422   3.038   4.948 -0.0222  0.2299 -0.3188
 1985SOL    HW1 7396   3.374   3.102   5.001  0.5661  0.1105  0.3711
 1985SOL    HW2 7397   3.487   3.001   5.008  0.9223  0.3772 -1.2267
 1986SOL     OW 7398   6.835   6.674   6.865 -0.8780  0.3441 -0.2733
 1986SOL    HW1 7399   6.904   6.723   6.819  0.2911 -0.4690  0.5805
 1986SOL    HW2 7400   6.814   6.602   6.806  1.9673 -1.8186  1.1519
 1987SOL     OW 7401   5.536   1.883   4.090  0.0418 -0.1011 -0.0946
 1987SOL    HW1 7402   5.443   1.884   4.112  0.3107  0.5132  1.1112
 1987SOL    HW2 7403   5.576   1.829   4.159  0.5570 -0.5087 -0.7012
 1988SOL     OW 7404   7.520   5.552   6.211  0.3172 -0.7431 -0.7510
 1988SOL    HW1 7405   7.446   5.608   6.232  0.3746 -0.6938 -0.6817
 1988SOL    HW2 7406   7.586   5.611   6.173 -0.3800 -1.0528 -2.5466
 1989SOL     OW 7407   2.195   7.828   1.520  0.2298  0.0243  0.0060
 1989SOL    HW1 7408   2.108   7.813   1.485  0.9486 -0.7835 -1.5634
 1989SOL    HW2 7409   2.189   7.801   1.612 -1.3418  0.7193  0.1265
 1990SOL     OW 7410   6.415   1.134   3.736  0.4445  0.3992 -0.5075
 1990SOL    HW1 7411   6.424   1.184   3.817 -1.1716  0.2178 -0.1820
 1990SOL    HW2 7412   6.412   1.200   3.667  1.1277  0.5848 -0.3735
 1991SOL     OW 7413   0.677   1.910   8.558  0.1934  0.5783 -0.0089
 1991SOL    HW1 7414   0.739   1.851   8.602  0.4776 -0.4486 -1.6942
 1991SOL    HW2 7415   0.730   1.985   8.531  0.2286  0.7307  0.4691
 1992SOL     OW 7416   1.735   3.042   4.843  0.3267 -0.1366 -0.4780
 1992SOL    HW1 7417   1.781   3.110   4.893 -2.6040  1.8165 -0.2124
 1992SOL    HW2 7418   1.797   2.969   4.840  1.6878  0.5164  3.8732
 1993SOL     OW 7419   1.669   5.304   1.387 -0.2379 -0.2692  0.0463
 1993SOL    HW1 7420   1.694   5.239   1.453 -0.0912 -0.7968 -0.5295
 1993SOL    HW2 7421   1.652   5.384   1.438  0.3332 -0.5431  0.6764
 1994SOL     OW 7422   2.454   1.163  10.057 -0.9203  0.4151 -0.0919
 1994SOL    HW1 7423   2.438   1.126  10.144 -0.0890  0.6140  0.1497
 1994SOL    HW2 7424   2.398   1.112   9.999 -1.4779  0.2760  0.5576
 1995SOL     OW 7425   7.467   7.517   9.013 -0.4286  0.1374 -0.1613
 1995SOL    HW1 7426   7.385   7.522   9.062 -0.3664  0.3203 -0.0752
 1995SOL    HW2 7427   7.535   7.521   9.080 -0.3248  1.3063 -0.3183
 1996SOL     OW 7428   0.307   1.203  10.735 -0.0429 -0.1726  0.2011
 1996SOL    HW1 7429   0.295   1.115  10.701 -0.4068  0.6304 -1.8519
 1996SOL    HW2 7430   0.373   1.192  10.804  0.5338 -1.9188 -0.5649
 1997SOL     OW 7431   0.201   1.414  10.358  0.4309  0.5687  0.8887
 1997SOL    HW1 7432   0.293   1.387  10.357  0.3999  0.3502 -1.5597
 1997SOL    HW2 7433   0.153   1.340  10.322 -1.1852 -0.4588  4.6834
 1998SOL     OW 7434   6.916   5.257  10.827  0.0612  0.3663  0.0021
 1998SOL    HW1 7435   6.864   5.212  10.894  0.8865 -0.0801  0.3549
 1998SOL    HW2 7436   6.876   5.344  10.821 -0.8180 -0.0114  0.1505
 1999SOL     OW 7437   6.000   4.966  12.463 -0.4613  0.4946  0.0931
 1999SOL    HW1 7438   6.015   4.889  12.408  0.4192 -0.9708  2.2328
 1999SOL    HW2 7439   5.905   4.972  12.471 -0.5399 -0.8895  0.5022
 2000SOL     OW 7440   4.311   6.542  11.320 -0.1084  0.0153 -0.5772
 2000SOL    HW1 7441   4.276   6.620  11.277  0.4188 -0.3389 -1.6901
 2000SOL    HW2 7442   4.295   6.471  11.257  1.4083 -0.3735 -0.5500
 2001SOL     OW 7443   6.280   6.360   0.724 -0.0842  0.5647 -0.1684
 2001SOL    HW1 7444   6.283   6.344   0.630 -0.0437 -0.8007  0.0447
 2001SOL    HW2 7445   6.197   6.406   0.738 -1.0668 -0.9927 -0.6377
 2002SOL     OW 7446   6.316   7.469   5.941 -0.1307 -0.1256 -0.3911
 2002SOL    HW1 7447   6.246   7.535   5.944 -0.7379 -0.7757  0.3805
 2002SOL    HW2 7448   6.301   7.415   6.019  1.2901 -0.2316 -0.1707
 2003SOL     OW 7449   2.597   4.998   9.674 -0.0277 -0.0096  0.9239
 2003SOL    HW1 7450   2.597   4.924   9.613 -3.8700 -0.6986  1.4877
 2003SOL    HW2 7451   2.639   4.964   9.752 -0.5781 -1.2082  0.7285
 2004SOL     OW 7452   0.197   6.490   5.948  0.0705 -0.1215  0.2738
 2004SOL    HW1 7453   0.168   6.401   5.968  1.3209 -0.9641 -1.4578
 2004SOL    HW2 7454   0.207   6.491   5.853  0.7961  1.6466  0.3376
 2005SOL     OW 7455   7.905   4.682   4.690  0.7024  0.5669 -0.1548
 2005SOL    HW1 7456   7.870   4.640   4.612  0.8067 -1.2984  0.7598
 2005SOL    HW2 7457   8.000   4.675   4.682  0.8507  2.6704 -1.0334
 2006SOL     OW 7458   4.577   2.628   5.945 -0.3541  0.0767  0.0165
 2006SOL    HW1 7459   4.548   2.603   5.858  3.5055  0.9216 -1.7177
 2006SOL    HW2 7460   4.642   2.561   5.968 -0.6488  0.3826  1.9037
 2007SOL     OW 7461   6.667   0.016  12.338  0.1691 -0.2247  0.0559
 2007SOL    HW1 7462   6.708  -0.066  12.313  1.9851  0.3824  0.8811
 2007SOL    HW2 7463   6.599  -0.009  12.401  0.8112 -1.0931  0.4251
 2008SOL     OW 7464   6.325   2.695   5.574 -0.1325 -0.0128 -0.2435
 2008SOL    HW1 7465   6.338   2.601   5.563 -0.4109 -0.3704  2.0567
 2008SOL    HW2 7466   6.413   2.732   5.568  0.2432 -0.6820  0.7906
 2009SOL     OW 7467   0.113   5.861   2.164  0.2719  0.2195 -0.1349
 2009SOL    HW1 7468   0.078   5.944   2.195 -0.3540 -0.2298  0.4199
 2009SOL    HW2 7469   0.207   5.874   2.157  0.0762  1.2731 -1.0234
 2010SOL     OW 7470   5.479   6.206   8.378  0.1761 -0.6221  0.4634
 2010SOL    HW1 7471   5.526   6.209   8.294  0.1030  0.3037  0.4388
 2010SOL    HW2 7472   5.389   6.182   8.354  0.5564 -2.1237  0.4798
 2011SOL     OW 7473   5.776   0.980   1.148  0.0175  0.2905  0.3876
 2011SOL    HW1 7474   5.858   1.030   1.153 -0.0492  0.4298  0.1342
 2011SOL    HW2 7475   5.730   1.017   1.072 -1.0280  1.3258  1.4882
 2012SOL     OW 7476   4.120   2.713   9.577  0.1054 -0.1967  0.5636
 2012SOL    HW1 7477   4.177   2.781   9.542  1.1929 -1.1522  0.4136
 2012SOL    HW2 7478   4.113   2.733   9.670 -0.6226  0.8297  0.3004
 2013SOL     OW 7479   3.592   7.495   8.052 -0.3826  0.0158  0.2891
 2013SOL    HW1 7480   3.574   7.426   7.989 -0.8242  0.6608 -0.3122
 2013SOL    HW2 7481   3.636   7.451   8.124 -3.1633 -1.4644  1.2564
 2014SOL     OW 7482   2.645   5.717   1.460  0.3688 -0.0661  0.4037
 2014SOL    HW1 7483   2.550   5.721   1.466  0.3896 -1.0800  2.2349
 2014SOL    HW2 7484   2.663   5.690   1.370 -0.9600  1.9928 -0.5584
 2015SOL     OW 7485   2.101   1.793   6.597 -0.4001 -0.7916 -0.6448
 2015SOL    HW1 7486   2.013   1.810   6.563 -0.8746  0.7842  1.2257
 2015SOL    HW2 7487   2.159   1.815   6.524 -1.4673  0.2901 -1.2003
 2016SOL     OW 7488   6.782   7.983   5.846 -0.7774  0.0538  1.0999
 2016SOL    HW1 7489   6.852   8.047   5.859  0.0130 -0.7137  0.7339
 2016SOL    HW2 7490   6.801   7.915   5.911  0.8873 -1.8675 -1.1882
 2017SOL     OW 7491   6.251   6.615  12.345  0.6263 -0.0082 -0.5006
 2017SOL    HW1 7492   6.204   6.635  12.426  2.2715  0.4752  0.3878
 2017SOL    HW2 7493   6.296   6.696  12.323 -0.7568  0.2617 -2.6486
 2018SOL     OW 7494   3.049   2.935   0.559  0.5843 -0.1968  0.2032
 2018SOL    HW1 7495   2.961   2.900   0.570  0.4312  0.1955  0.2237
 2018SOL    HW2 7496   3.070   2.975   0.644  0.9032 -0.5561  0.2991
 2019SOL     OW 7497   1.976   2.673   9.309 -0.4065 -0.1936  0.1783
 2019SOL    HW1 7498   1.929   2.731   9.368  0.5267  0.9449 -0.1551
 2019SOL    HW2 7499   1.971   2.716   9.224  1.4660  0.1382  0.1908
 2020SOL     OW 7500   5.326   7.002   9.847 -0.0378  0.2797 -0.0782
 2020SOL    HW1 7501   5.260   6.978   9.912 -0.0002  0.9249  0.2059
 2020SOL    HW2 7502   5.280   6.998   9.763 -0.4937  0.8988  0.1340
 2021SOL     OW 7503   1.161   3.711  12.102  0.2001 -0.2953  0.1716
 2021SOL    HW1 7504   1.090   3.681  12.046 -0.2004 -0.5268  0.7916
 2021SOL    HW2 7505   1.205   3.780  12.052  0.8221 -1.5574 -1.0649
 2022SOL     OW 7506   3.882   4.640  10.752 -0.1914 -0.4439 -0.7142
 2022SOL    HW1 7507   3.862   4.556  10.712  1.0977 -0.2728 -1.7888
 2022SOL    HW2 7508   3.899   4.620  10.844  0.6407 -1.4490 -1.0748
 2023SOL     OW 7509   2.521   3.924   0.514 -0.2105  0.2419 -0.2438
 2023SOL    HW1 7510   2.570   3.843   0.528  0.3872  0.4181 -1.1682
 2023SOL    HW2 7511   2.465   3.932   0.590 -0.7073 -1.3423 -0.4114
 2024SOL     OW 7512   3.746   3.006  10.153  0.8740 -0.9733  0.4707
 2024SOL    HW1 7513   3.721   3.099  10.158  1.2375 -0.8458 -0.1166
 2024SOL    HW2 7514   3.766   2.991  10.061  0.7806 -1.6515  0.5566
 2025SOL     OW 7515   7.090   1.144  10.242  0.4719  0.3012 -0.0600
 2025SOL    HW1 7516   7.170   1.154  10.294 -0.1902 -0.8393  1.2318
 2025SOL    HW2 7517   7.096   1.057  10.204  0.7786  0.9878 -1.6594
 2026SOL     OW 7518   0.110   6.485   3.476  0.1530 -0.2458  0.5315
 2026SOL    HW1 7519   0.073   6.510   3.391  0.1106 -0.5791  0.4507
 2026SOL    HW2 7520   0.064   6.540   3.539 -2.0807 -2.1206  0.6772
 2027SOL     OW 7521   7.473   0.890   3.079  0.3674  0.7764 -0.1639
 2027SOL    HW1 7522   7.422   0.890   3.160 -0.1941 -1.5435 -0.4399
 2027SOL    HW2 7523   7.564   0.889   3.109  0.1726 -1.2448  0.5544
 2028SOL     OW 7524   6.581   6.316   9.695  0.0451  0.7053  0.0620
 2028SOL    HW1 7525   6.520   6.340   9.626 -0.1903  0.8261  0.3110
 2028SOL    HW2 7526   6.603   6.224   9.677  0.6150  0.9717 -0.6409
 2029SOL     OW 7527   5.595   2.702   4.674 -0.1451 -0.1677 -0.2342
 2029SOL    HW1 7528   5.523   2.661   4.626  0.7958  0.3426 -2.1940
 2029SOL    HW2 7529   5.562   2.788   4.698  0.1271  0.5376 -2.1720
 2030SOL     OW 7530   6.498   3.739   4.278  1.0825 -0.1946 -0.4446
 2030SOL    HW1 7531   6.457   3.664   4.321 -0.2751  0.4659 -0.5566
 2030SOL    HW2 7532   6.585   3.745   4.318  0.1362 -0.0265  1.7041
 2031SOL     OW 7533   3.246   2.278   7.596 -0.4379  0.0079 -0.2212
 2031SOL    HW1 7534   3.288   2.254   7.679  0.0509  0.0532 -0.4534
 2031SOL    HW2 7535   3.171   2.219   7.589 -0.9201  0.5063  0.6174
 2032SOL     OW 7536   6.512   4.029   8.913  0.1039 -0.2866 -0.0021
 2032SOL    HW1 7537   6.532   4.113   8.954  0.1389  0.4831 -1.5091
 2032SOL    HW2 7538   6.572   3.966   8.955  1.3993  0.8039 -0.1479
 2033SOL     OW 7539   1.341   4.882   4.177  0.8371  0.5288 -0.3142
 2033SOL    HW1 7540   1.315   4.862   4.087  1.3833  0.1789 -0.4022
 2033SOL    HW2 7541   1.302   4.967   4.196 -0.3856  0.0195 -0.4270
 2034SOL     OW 7542   4.525   5.288   5.647  0.0634 -0.3702 -0.7310
 2034SOL    HW1 7543   4.508   5.206   5.600 -0.9958  0.1550 -1.3113
 2034SOL    HW2 7544   4.441   5.311   5.687  0.3579  0.4046 -0.5371
 2035SOL     OW 7545   0.164   6.343   5.050 -0.5416  0.2745 -0.1005
 2035SOL    HW1 7546   0.175   6.293   5.131 -0.8132 -0.1231 -0.3070
 2035SOL    HW2 7547   0.194   6.284   4.981 -0.1205  0.6863 -0.2733
 2036SOL     OW 7548   3.414   2.868  11.431  0.3210 -0.1984 -0.3184
 2036SOL    HW1 7549   3.339   2.919  11.403  1.1213  1.5884  0.6032
 2036SOL    HW2 7550   3.475   2.932  11.466  1.1960 -1.8404  1.3806
 2037SOL     OW 7551   7.600   6.148   7.873 -0.2935  0.1709 -0.4901
 2037SOL    HW1 7552   7.696   6.147   7.880 -0.1963  0.3216 -1.6793
 2037SOL    HW2 7553   7.573   6.220   7.931  0.1641 -0.9564  1.1987
 2038SOL     OW 7554   7.774   0.893   4.587  0.1233 -0.2958 -0.0072
 2038SOL    HW1 7555   7.720   0.853   4.519 -0.3777  0.6584 -0.2036
 2038SOL    HW2 7556   7.730   0.870   4.669 -1.4989  1.6422 -0.2238
 2039SOL     OW 7557   4.860   4.241  10.464 -0.2879 -0.1664 -0.4580
 2039SOL    HW1 7558   4.788   4.281  10.513 -1.7718 -1.9749 -1.0388
 2039SOL    HW2 7559   4.847   4.147  10.475  1.1410 -0.5614 -1.8048
 2040SOL     OW 7560   3.675   3.977   4.916  0.0175  0.0188  0.0417
 2040SOL    HW1 7561   3.728   4.057   4.925 -1.4579  1.2985 -2.0007
 2040SOL    HW2 7562   3.602   3.989   4.976 -0.5580  0.5220 -0.7536
 2041SOL     OW 7563   3.738   4.117  10.055 -0.0784 -0.4068  0.2712
 2041SOL    HW1 7564   3.730   4.100  10.149 -1.8688  0.8776  0.3939
 2041SOL    HW2 7565   3.809   4.181  10.048 -0.4723  0.1030  0.8342
 2042SOL     OW 7566   5.767   0.056   0.271 -0.1890 -0.2016 -0.1444
 2042SOL    HW1 7567   5.724   0.043   0.355  0.3397 -0.9735  0.0121
 2042SOL    HW2 7568   5.809   0.142   0.278 -1.3412  0.3761 -0.1511
 2043SOL     OW 7569   1.593   6.168   8.449 -0.1722  0.0656  0.2707
 2043SOL    HW1 7570   1.538   6.115   8.507  0.0788  0.2644  0.7006
 2043SOL    HW2 7571   1.679   6.169   8.493 -0.0271  0.3644 -0.0152
 2044SOL     OW 7572   2.311   6.213   7.081  0.0983 -0.1275 -0.3279
 2044SOL    HW1 7573   2.289   6.120   7.069 -1.5993  0.0155  1.3388
 2044SOL    HW2 7574   2.386   6.211   7.140 -1.2659 -0.4335  1.4576
 2045SOL     OW 7575   0.837   6.514   2.889  0.0059 -0.1953  0.5314
 2045SOL    HW1 7576   0.888   6.479   2.815 -0.2468 -0.2145  0.3677
 2045SOL    HW2 7577   0.839   6.609   2.877 -2.4075 -0.2700 -1.0997
 2046SOL     OW 7578   1.694   2.361   2.971 -0.2911  0.3398 -0.1215
 2046SOL    HW1 7579   1.604   2.361   3.005  0.0695  1.0675  0.9061
 2046SOL    HW2 7580   1.712   2.454   2.953  0.1345  0.1556 -0.6378
 2047SOL     OW 7581   5.119   5.607  12.013 -0.3380 -0.5131 -0.6152
 2047SOL    HW1 7582   5.180   5.612  11.939 -0.3013  1.2724 -0.5046
 2047SOL    HW2 7583   5.139   5.523  12.055  2.0594  0.0278 -0.5492
 2048SOL     OW 7584   3.282   1.055   6.004 -0.3356  0.1596  0.0315
 2048SOL    HW1 7585   3.196   1.093   6.022  0.6835  2.1935  1.0770
 2048SOL    HW2 7586   3.269   0.961   6.006 -2.4522  0.4269  0.5821
 2049SOL     OW 7587   4.692   0.842  12.116  0.0030 -0.2820 -0.5650
 2049SOL    HW1 7588   4.617   0.832  12.173  1.1452 -0.0895  1.0433
 2049SOL    HW2 7589   4.736   0.757  12.118 -0.8165 -0.8203 -2.5456
 2050SOL     OW 7590   2.300   3.041  10.739 -0.3589 -0.0257 -0.1743
 2050SOL    HW1 7591   2.218   3.086  10.754 -2.3023 -2.8305 -1.4311
 2050SOL    HW2 7592   2.315   2.989  10.819 -0.6480 -0.6525 -0.5182
 2051SOL     OW 7593   2.122   7.306   7.728  0.2339  0.2163 -0.2124
 2051SOL    HW1 7594   2.108   7.303   7.823 -1.3537 -1.9402 -0.4276
 2051SOL    HW2 7595   2.126   7.399   7.708  0.4479  0.7418  1.9397
 2052SOL     OW 7596   6.955   2.263  10.636 -0.1050  0.0968 -0.2729
 2052SOL    HW1 7597   7.033   2.269  10.691 -0.3070 -0.8531  0.1308
 2052SOL    HW2 7598   6.987   2.227  10.553  0.4030  2.5876 -1.2494
 2053SOL     OW 7599   3.463   1.812   5.932  0.4395 -0.9006  0.1218
 2053SOL    HW1 7600   3.489   1.766   6.012 -1.0339  0.1256  1.2465
 2053SOL    HW2 7601   3.490   1.903   5.946  1.8906 -1.0311 -1.4086
 2054SOL     OW 7602   7.435   2.383   6.910 -0.6659 -0.0913  0.0168
 2054SOL    HW1 7603   7.437   2.356   6.818  1.7686 -0.5468  0.1328
 2054SOL    HW2 7604   7.465   2.306   6.958 -0.4908  0.6029  1.0534
 2055SOL     OW 7605   1.107   6.742   9.083  0.2923  0.0945 -0.1404
 2055SOL    HW1 7606   1.086   6.793   9.161  1.5478  2.8990 -1.5023
 2055SOL    HW2 7607   1.024   6.703   9.056 -0.3390 -0.1820  2.0285
 2056SOL     OW 7608   3.236   2.475  11.155  0.1002 -0.2258  0.2115
 2056SOL    HW1 7609   3.202   2.465  11.066 -0.6385 -1.7716  0.6372
 2056SOL    HW2 7610   3.228   2.388  11.194  2.2397 -0.0621  1.1683
 2057SOL     OW 7611   1.470   6.575  11.020 -0.8399  0.3415  0.0833
 2057SOL    HW1 7612   1.455   6.651  11.076 -0.0054 -0.5397  1.5715
 2057SOL    HW2 7613   1.383   6.553  10.986 -0.8712  2.9030 -1.7238
 2058SOL     OW 7614   2.427   3.474   8.335 -0.2973  0.0553  0.2834
 2058SOL    HW1 7615   2.481   3.523   8.397  1.2881  1.6463 -2.1965
 2058SOL    HW2 7616   2.338   3.503   8.352  0.3657  2.1976  0.3396
 2059SOL     OW 7617   5.098   0.068   4.902 -0.4995  0.0553  0.2451
 2059SOL    HW1 7618   5.127   0.154   4.932 -0.2835 -0.0071  0.2146
 2059SOL    HW2 7619   5.160   0.045   4.833 -0.0767 -0.4806  0.7993
 2060SOL     OW 7620   1.443   5.749   5.811 -0.3481 -0.0520  0.0729
 2060SOL    HW1 7621   1.373   5.741   5.875 -0.3028  0.6078  0.2113
 2060SOL    HW2 7622   1.435   5.671   5.756 -1.6923  0.4222 -0.4282
 2061SOL     OW 7623   0.422   3.796   8.032  0.0854 -0.3110 -0.7156
 2061SOL    HW1 7624   0.394   3.857   7.964 -0.7472  0.0379 -0.0809
 2061SOL    HW2 7625   0.484   3.847   8.085  0.1245 -0.3211 -0.7524
 2062SOL     OW 7626   5.124   3.380   5.989 -0.2804  0.0935  0.0763
 2062SOL    HW1 7627   5.136   3.288   6.011 -0.7045 -0.1353 -0.6148
 2062SOL    HW2 7628   5.043   3.382   5.938  0.8432  0.5402 -1.7764
 2063SOL     OW 7629   0.070   7.867   0.520 -0.1224  0.2472 -0.2012
 2063SOL    HW1 7630   0.027   7.907   0.444  0.0314  0.8272  0.0141
 2063SOL    HW2 7631   0.005   7.807   0.555  0.5192 -1.6254 -2.0208
 2064SOL     OW 7632   2.162   6.737  11.018  0.1130 -0.0150 -0.1022
 2064SOL    HW1 7633   2.172   6.651  10.978 -1.1221 -0.7733  1.1345
 2064SOL    HW2 7634   2.250   6.776  11.015  0.3860 -0.6874 -2.0004
 2065SOL     OW 7635   3.881   0.563  11.703  0.0491  0.3231 -0.1401
 2065SOL    HW1 7636   3.900   0.562  11.797  0.1988 -2.0032 -0.1294
 2065SOL    HW2 7637   3.966   0.575  11.661 -0.0800  1.8742 -0.0048
 2066SOL     OW 7638   1.557   5.032   8.348 -0.1164 -0.0681 -0.7312
 2066SOL    HW1 7639   1.525   5.044   8.437  0.9266  1.4401 -0.5305
 2066SOL    HW2 7640   1.504   4.960   8.313 -1.2954  0.0534  0.7201
 2067SOL     OW 7641   0.358   7.750   0.725  0.4304  0.6109 -0.4570
 2067SOL    HW1 7642   0.323   7.817   0.666  0.1724 -0.4081 -1.4902
 2067SOL    HW2 7643   0.451   7.746   0.703  0.0304 -1.0086 -2.1194
 2068SOL     OW 7644   3.920   7.151   3.726  0.0120  0.3313 -0.2559
 2068SOL    HW1 7645   3.993   7.209   3.746 -0.3076  0.9031 -0.6801
 2068SOL    HW2 7646   3.867   7.201   3.663 -1.5857  0.6058  1.2155
 2069SOL     OW 7647   2.278   3.625   7.791  0.2020  0.4474 -0.1800
 2069SOL    HW1 7648   2.369   3.620   7.822  0.3320 -0.8659 -0.6969
 2069SOL    HW2 7649   2.258   3.719   7.792  0.7125  0.5942  2.2955
 2070SOL     OW 7650   6.991   4.352   1.858  0.1191 -0.3119  0.1833
 2070SOL    HW1 7651   6.933   4.281   1.833 -0.6362  0.2461  0.3063
 2070SOL    HW2 7652   6.949   4.431   1.823  2.4320 -0.1638 -2.6557
 2071SOL     OW 7653   2.366   4.371   9.455 -0.1306  0.0069 -0.2979
 2071SOL    HW1 7654   2.414   4.449   9.428  0.8562 -0.3919  0.2425
 2071SOL    HW2 7655   2.280   4.403   9.482  0.8726  1.1738  1.7286
 2072SOL     OW 7656   6.064   6.938  10.137 -0.0439  0.2274  0.1452
 2072SOL    HW1 7657   5.997   6.888  10.185 -1.7964  0.7571 -1.6267
 2072SOL    HW2 7658   6.016   7.009  10.096  1.5534  0.4180 -1.5110
 2073SOL     OW 7659   6.087   4.778   3.886 -0.0718 -0.9052 -0.2668
 2073SOL    HW1 7660   6.051   4.765   3.974  2.3601 -1.9461  0.6345
 2073SOL    HW2 7661   6.176   4.810   3.901 -0.1010  0.3518 -2.3948
 2074SOL     OW 7662   4.532   1.479   2.569  0.0013 -0.8332 -0.0624
 2074SOL    HW1 7663   4.503   1.495   2.479  2.3880 -0.6031 -0.8698
 2074SOL    HW2 7664   4.454   1.450   2.616 -1.6594  0.6224 -1.8053
 2075SOL     OW 7665   4.184   5.437   8.605  0.3275  0.2811  0.1488
 2075SOL    HW1 7666   4.180   5.532   8.598 -0.3664  0.1396 -2.0963
 2075SOL    HW2 7667   4.253   5.412   8.543  0.3056 -0.6989  0.5092
 2076SOL     OW 7668   4.454   7.291  11.776 -0.1268 -0.0578  0.5064
 2076SOL    HW1 7669   4.460   7.357  11.708 -0.6803  0.5085  0.9925
 2076SOL    HW2 7670   4.470   7.208  11.731 -0.4920  0.3049 -0.3038
 2077SOL     OW 7671   3.543   6.478   8.329  0.1715 -0.1142 -0.2022
 2077SOL    HW1 7672   3.467   6.536   8.338  0.7192  0.5588  0.2170
 2077SOL    HW2 7673   3.584   6.479   8.416 -0.2929 -1.8462  0.0706
 2078SOL     OW 7674   6.980   4.637   0.833  0.1735 -0.1537  0.2570
 2078SOL    HW1 7675   6.944   4.549   0.820 -2.1493  0.7072  0.4460
 2078SOL    HW2 7676   6.966   4.655   0.926  2.7710 -0.4149  0.7808
 2079SOL     OW 7677   7.636   4.063   1.868 -0.0632 -0.3242 -0.6475
 2079SOL    HW1 7678   7.587   4.055   1.786 -1.3768  0.3414  0.0436
 2079SOL    HW2 7679   7.728   4.068   1.841 -0.4494 -0.4537 -2.0435
 2080SOL     OW 7680   7.127   1.434   8.698 -0.4206 -0.1608  0.5847
 2080SOL    HW1 7681   7.178   1.372   8.751  0.9483  0.5507  0.1364
 2080SOL    HW2 7682   7.161   1.423   8.609 -0.9770  0.4123  0.2988
 2081SOL     OW 7683   7.879   7.332   6.629  0.1702  0.1820 -0.1600
 2081SOL    HW1 7684   7.822   7.263   6.596  1.7369 -1.1433 -0.1742
 2081SOL    HW2 7685   7.897   7.307   6.720  1.6401 -0.0736 -0.4903
 2082SOL     OW 7686   3.910   7.454   5.840 -0.2438 -0.0210  0.6208
 2082SOL    HW1 7687   3.874   7.384   5.786 -1.5503  0.3408  0.9951
 2082SOL    HW2 7688   3.914   7.530   5.782 -2.4163  0.5895  1.1895
 2083SOL     OW 7689   5.259   1.746   4.598 -0.4204  0.3185 -0.0903
 2083SOL    HW1 7690   5.167   1.766   4.616 -0.9905 -1.5958 -0.5717
 2083SOL    HW2 7691   5.295   1.722   4.683 -0.6770 -0.0096 -0.0725
 2084SOL     OW 7692   0.663   6.963  10.912  0.0126 -0.3465 -0.2872
 2084SOL    HW1 7693   0.603   6.971  10.987 -0.2711  0.5963 -0.6071
 2084SOL    HW2 7694   0.610   6.920  10.844 -0.6189  1.3216 -0.8876
 2085SOL     OW 7695   4.987   0.377   3.932 -0.1439  0.0239  0.0762
 2085SOL    HW1 7696   5.015   0.315   3.999 -0.9317  0.2388  0.6140
 2085SOL    HW2 7697   5.022   0.461   3.961  0.0660  0.0064 -0.1239
 2086SOL     OW 7698   2.380   2.882   3.570  0.0713 -0.2753  0.4145
 2086SOL    HW1 7699   2.468   2.844   3.563  0.4112  0.0243  2.3662
 2086SOL    HW2 7700   2.360   2.877   3.663 -0.6765  2.5422  0.4831
 2087SOL     OW 7701   6.316   3.362   3.361 -0.3541 -0.4988 -0.2776
 2087SOL    HW1 7702   6.382   3.292   3.366  0.0695 -0.0321  1.9788
 2087SOL    HW2 7703   6.262   3.348   3.439 -2.2097 -0.1293 -1.4482
 2088SOL     OW 7704   7.091   4.234   6.346 -0.0042  0.1484  0.3836
 2088SOL    HW1 7705   7.172   4.281   6.368 -0.8871  0.4800  3.5130
 2088SOL    HW2 7706   7.022   4.285   6.388 -1.4755 -1.7540  0.4172
 2089SOL     OW 7707   5.146   6.697   0.683 -0.5064 -0.3764  0.1546
 2089SOL    HW1 7708   5.226   6.698   0.736 -1.1187 -2.0984  1.1975
 2089SOL    HW2 7709   5.094   6.770   0.716  1.3754  2.0401 -1.8611
 2090SOL     OW 7710   5.539   0.834   0.480 -0.2891  0.3094 -0.0342
 2090SOL    HW1 7711   5.597   0.778   0.428 -0.0901  1.9958 -1.7517
 2090SOL    HW2 7712   5.597   0.878   0.542 -0.2441 -0.3942  0.4284
 2091SOL     OW 7713   2.908   6.169  10.888 -0.0003 -0.1840  0.2742
 2091SOL    HW1 7714   2.916   6.083  10.846  1.7472  0.8218 -1.6590
 2091SOL    HW2 7715   2.977   6.171  10.954  0.2381 -0.1104  0.0224
 2092SOL     OW 7716   1.807   2.992   8.700  0.7077  1.7339 -0.2539
 2092SOL    HW1 7717   1.740   3.060   8.696  1.3475  2.5148  1.4741
 2092SOL    HW2 7718   1.867   3.013   8.628 -0.5173  1.4113 -1.3999
 2093SOL     OW 7719   3.661   4.376   2.936 -0.2434  0.7922 -0.2722
 2093SOL    HW1 7720   3.671   4.343   3.025 -1.4048  1.2178  0.0386
 2093SOL    HW2 7721   3.624   4.464   2.948 -0.9240  0.6362 -1.1822
 2094SOL     OW 7722   1.038   6.228   1.533 -0.1382 -0.1416  0.0654
 2094SOL    HW1 7723   1.085   6.266   1.458  0.5937  1.4786  1.2924
 2094SOL    HW2 7724   1.084   6.146   1.550  0.3822  0.0012 -0.5746
 2095SOL     OW 7725   1.318   2.080  11.820 -0.2290  0.0376 -0.0882
 2095SOL    HW1 7726   1.385   2.048  11.759 -0.7932 -1.1262 -0.1262
 2095SOL    HW2 7727   1.342   2.040  11.904 -0.3793  0.3227  0.0901
 2096SOL     OW 7728   7.275   5.116   6.555  0.1633 -0.0311 -0.0153
 2096SOL    HW1 7729   7.254   5.174   6.628 -1.4425 -0.5648  0.0083
 2096SOL    HW2 7730   7.358   5.075   6.579 -0.4473 -0.3746  1.6487
 2097SOL     OW 7731   1.556   3.244   1.814  0.2184  1.0143 -0.0007
 2097SOL    HW1 7732   1.646   3.276   1.824  0.0051  1.5249  0.2937
 2097SOL    HW2 7733   1.549   3.223   1.721  0.7535  0.6319  0.0393
 2098SOL     OW 7734   2.353   1.775  10.897 -0.6428  0.1677  0.1441
 2098SOL    HW1 7735   2.410   1.727  10.838 -3.6440 -3.2099 -0.2943
 2098SOL    HW2 7736   2.406   1.787  10.976  0.8318 -2.5903 -0.2982
 2099SOL     OW 7737   4.377   5.547   3.151 -0.5593 -0.0861 -0.2594
 2099SOL    HW1 7738   4.389   5.472   3.209 -1.9635 -0.4725 -0.4363
 2099SOL    HW2 7739   4.429   5.617   3.191  1.0981 -1.2357 -0.2995
 2100SOL     OW 7740   2.178   3.282   2.539  0.4561 -0.3226  0.3633
 2100SOL    HW1 7741   2.271   3.260   2.540  1.2069  2.4864  0.3005
 2100SOL    HW2 7742   2.137   3.214   2.593  2.5084 -1.6462  0.3748
 2101SOL     OW 7743   1.676   1.078   8.706  0.0693  0.2163  0.7181
 2101SOL    HW1 7744   1.688   1.015   8.777 -0.1348 -2.3292 -1.3728
 2101SOL    HW2 7745   1.662   1.162   8.751 -4.6297 -1.8372  3.9135
 2102SOL     OW 7746   4.863   0.044   2.871  0.1114  0.0703 -0.2302
 2102SOL    HW1 7747   4.944   0.094   2.865 -0.0563  0.2964 -0.6134
 2102SOL    HW2 7748   4.814   0.068   2.793 -0.5288  0.2894  0.2354
 2103SOL     OW 7749   3.604   6.179   6.438 -0.2793 -0.2197 -0.1029
 2103SOL    HW1 7750   3.650   6.173   6.522 -1.9500  2.2443  1.1332
 2103SOL    HW2 7751   3.612   6.092   6.400  2.1131 -0.9367  1.7312
 2104SOL     OW 7752   6.693   4.507   9.672 -0.3563 -0.0354  0.7729
 2104SOL    HW1 7753   6.697   4.595   9.634  1.3878 -0.7347 -0.8315
 2104SOL    HW2 7754   6.647   4.455   9.606 -0.6138 -0.5181  1.3262
 2105SOL     OW 7755   7.967   5.594   7.788 -0.5907 -0.9355  0.0952
 2105SOL    HW1 7756   7.906   5.617   7.858  0.6646  0.3908  0.8308
 2105SOL    HW2 7757   7.966   5.498   7.786 -0.7461 -1.0168  1.8865
 2106SOL     OW 7758   4.665   6.791   9.042 -0.2428  0.1305  0.1563
 2106SOL    HW1 7759   4.613   6.748   8.974  0.2759  0.6461 -0.5795
 2106SOL    HW2 7760   4.704   6.719   9.091 -2.1681 -0.2943  1.1830
 2107SOL     OW 7761   4.946   1.845   4.588 -0.1688  0.0085 -0.2404
 2107SOL    HW1 7762   4.869   1.823   4.640 -0.7094  0.6095 -0.7698
 2107SOL    HW2 7763   4.921   1.827   4.497 -0.0434  1.1214 -0.5202
 2108SOL     OW 7764   6.827   7.887   0.206 -0.1225  0.1100 -0.3759
 2108SOL    HW1 7765   6.747   7.862   0.160 -0.2076  2.1975 -1.4929
 2108SOL    HW2 7766   6.798   7.914   0.293 -0.4937 -0.1022 -0.4329
 2109SOL     OW 7767   5.981   3.706   2.170  0.3983  0.4476 -0.0420
 2109SOL    HW1 7768   5.940   3.786   2.137  0.3563  0.3991 -0.1070
 2109SOL    HW2 7769   6.065   3.735   2.206  0.6237  0.4406 -0.5560
 2110SOL     OW 7770   4.977   6.702   3.237 -0.8295 -0.6699 -0.0964
 2110SOL    HW1 7771   5.033   6.778   3.255  0.8578 -1.7850 -0.3463
 2110SOL    HW2 7772   4.934   6.722   3.154 -1.7089  0.6967  0.6606
 2111SOL     OW 7773   5.614   6.589   4.282  0.3159 -0.3905  0.3510
 2111SOL    HW1 7774   5.558   6.572   4.207  0.8068  0.8764 -0.3217
 2111SOL    HW2 7775   5.635   6.502   4.317 -0.6730 -0.9447 -0.4037
 2112SOL     OW 7776   5.462   5.894  11.602  0.4632  0.0480 -0.4794
 2112SOL    HW1 7777   5.512   5.831  11.551  3.7805  1.4636  0.7766
 2112SOL    HW2 7778   5.430   5.845  11.678 -0.5829 -0.9712 -1.5230
 2113SOL     OW 7779   5.464   1.390   4.303 -0.3717 -0.2965 -0.0737
 2113SOL    HW1 7780   5.407   1.449   4.255 -0.4306  0.7327  1.2249
 2113SOL    HW2 7781   5.447   1.408   4.395  0.6839 -1.3023  0.3539
 2114SOL     OW 7782   6.150   7.910   3.536  0.0203 -0.6009  0.3218
 2114SOL    HW1 7783   6.066   7.944   3.567  0.1786 -1.3966  1.7607
 2114SOL    HW2 7784   6.167   7.834   3.593  0.6870 -1.7640 -1.3378
 2115SOL     OW 7785   6.802   7.159   3.546 -0.2815  0.0537  0.0165
 2115SOL    HW1 7786   6.890   7.129   3.523 -1.3572 -0.9556 -3.3320
 2115SOL    HW2 7787   6.765   7.088   3.598 -0.4059 -1.4634 -2.0055
 2116SOL     OW 7788   1.889   1.260   6.081 -0.1438  0.2666  0.1810
 2116SOL    HW1 7789   1.936   1.328   6.129 -0.4673  0.6112  0.0237
 2116SOL    HW2 7790   1.819   1.308   6.035  0.4601  0.0205 -1.0324
 2117SOL     OW 7791   1.230   2.545   7.400  0.1426  0.2029 -0.5525
 2117SOL    HW1 7792   1.319   2.578   7.384  0.3291 -0.3601 -0.6990
 2117SOL    HW2 7793   1.174   2.621   7.390  0.6483  0.6534 -0.0819
 2118SOL     OW 7794   6.856   1.483   6.262  0.0781  0.1733  0.1356
 2118SOL    HW1 7795   6.883   1.572   6.242 -1.4969  0.9282  1.2123
 2118SOL    HW2 7796   6.820   1.449   6.180  2.0568 -0.0469 -0.6875
 2119SOL     OW 7797   0.000   2.644  11.306  0.0547 -0.3259  0.6210
 2119SOL    HW1 7798  -0.091   2.671  11.296  0.1616  1.0120  2.6509
 2119SOL    HW2 7799   0.051   2.711  11.259  0.0071 -1.9677 -1.9572
 2120SOL     OW 7800   4.012   7.548   8.893 -0.7124 -0.4121  0.2275
 2120SOL    HW1 7801   4.010   7.600   8.973  2.0425  1.0880 -0.5543
 2120SOL    HW2 7802   4.088   7.491   8.903 -0.8070 -0.7839 -0.9646
 2121SOL     OW 7803   2.817   4.441   9.304 -0.2161  0.0405 -0.6845
 2121SOL    HW1 7804   2.912   4.453   9.303 -0.0599 -1.0273 -2.1960
 2121SOL    HW2 7805   2.789   4.477   9.389  1.6194 -0.3631  0.1419
 2122SOL     OW 7806   2.599   5.983   8.566  0.6309  0.2794 -0.5532
 2122SOL    HW1 7807   2.551   6.045   8.511  1.5112  3.6861  2.0956
 2122SOL    HW2 7808   2.532   5.938   8.617  0.0210  0.4029 -1.2361
 2123SOL     OW 7809   6.522   7.640   9.033  0.0353 -0.1991 -0.4593
 2123SOL    HW1 7810   6.561   7.657   9.119  0.7665 -1.2362 -0.5662
 2123SOL    HW2 7811   6.522   7.726   8.990 -0.3989  0.3456  0.5896
 2124SOL     OW 7812   3.943   0.025   1.357  0.2647  0.3602  0.1001
 2124SOL    HW1 7813   3.983  -0.058   1.331 -0.4159  0.0155  0.1468
 2124SOL    HW2 7814   4.012   0.070   1.406  0.5463 -0.2981  0.3205
 2125SOL     OW 7815   0.606   2.679   1.022 -0.2647 -0.0688  0.2297
 2125SOL    HW1 7816   0.570   2.599   0.985 -0.3330  0.0065  0.1319
 2125SOL    HW2 7817   0.613   2.661   1.116  1.2844 -0.7855 -0.0024
 2126SOL     OW 7818   4.806   0.282   8.434  0.4681 -0.6066 -0.3536
 2126SOL    HW1 7819   4.851   0.232   8.502 -0.3048  0.6044  1.1342
 2126SOL    HW2 7820   4.716   0.250   8.437  0.4348 -0.5633 -0.8436
 2127SOL     OW 7821   2.944   6.176   1.860  0.6468 -0.0034  0.0083
 2127SOL    HW1 7822   3.037   6.177   1.883  0.5505 -0.0541  0.3967
 2127SOL    HW2 7823   2.944   6.158   1.766  1.0413  0.3318 -0.0644
 2128SOL     OW 7824   1.997   2.997   7.289  0.1697  0.1411  0.2286
 2128SOL    HW1 7825   2.034   3.076   7.328  1.3004  0.3852 -1.2451
 2128SOL    HW2 7826   2.073   2.942   7.270 -0.5492 -1.0335  0.6433
 2129SOL     OW 7827   2.375   4.503   0.282 -0.4808 -0.0809 -0.0142
 2129SOL    HW1 7828   2.462   4.463   0.277 -0.3012  0.4572 -2.6238
 2129SOL    HW2 7829   2.365   4.528   0.374  2.1774 -0.0120  0.3217
 2130SOL     OW 7830   3.745   5.304  11.828 -0.3391  0.3768  0.3458
 2130SOL    HW1 7831   3.812   5.285  11.763  0.4190  0.3157  1.1309
 2130SOL    HW2 7832   3.775   5.384  11.871 -0.5400  0.1076  1.0016
 2131SOL     OW 7833   2.067   1.804   2.415 -0.2241  0.4838  0.2125
 2131SOL    HW1 7834   1.983   1.759   2.415 -1.9367  3.3967 -1.5649
 2131SOL    HW2 7835   2.063   1.861   2.492  0.2816  0.4180  0.2901
 2132SOL     OW 7836   7.516   0.321   7.137  0.2415  0.0697  0.0433
 2132SOL    HW1 7837   7.422   0.338   7.134  0.1570 -0.1254  1.0812
 2132SOL    HW2 7838   7.555   0.395   7.091 -0.4674 -0.4008 -1.3510
 2133SOL     OW 7839   7.127   5.033   2.808 -0.1562 -0.2022  0.2420
 2133SOL    HW1 7840   7.113   5.120   2.771  0.1620  0.4291  1.5574
 2133SOL    HW2 7841   7.207   5.002   2.765  1.7041  1.5822  2.1334
 2134SOL     OW 7842   7.484   0.291  10.842  0.8910  0.4056  0.0845
 2134SOL    HW1 7843   7.469   0.382  10.816  2.4290  0.6235 -0.1521
 2134SOL    HW2 7844   7.397   0.256  10.858  0.2738  1.9832  0.3786
 2135SOL     OW 7845   0.342   4.804  12.352 -0.2179 -0.4130  0.2746
 2135SOL    HW1 7846   0.295   4.858  12.288  0.6523  1.4366  1.1021
 2135SOL    HW2 7847   0.288   4.727  12.363 -1.7176  0.4479 -0.7184
 2136SOL     OW 7848   6.826   5.863   1.185  0.1756 -0.5023  0.2763
 2136SOL    HW1 7849   6.859   5.787   1.137 -0.5109  0.6719 -2.2094
 2136SOL    HW2 7850   6.732   5.848   1.193 -0.1996  0.5953 -1.4150
 2137SOL     OW 7851   1.533   5.154   4.546 -0.4781  0.1316  0.5810
 2137SOL    HW1 7852   1.562   5.091   4.481  0.6661  1.0408  0.1720
 2137SOL    HW2 7853   1.540   5.108   4.630  0.9092 -0.1138  0.3531
 2138SOL     OW 7854   3.191   3.702   0.976  0.3575  0.2813  0.4917
 2138SOL    HW1 7855   3.150   3.644   1.040  2.2065 -0.0946  1.4204
 2138SOL    HW2 7856   3.139   3.782   0.979 -1.1457 -0.6744  0.5322
 2139SOL     OW 7857   4.215   5.458   3.447  0.6265  0.4768 -0.3152
 2139SOL    HW1 7858   4.189   5.549   3.436 -1.0104 -0.0314 -1.1421
 2139SOL    HW2 7859   4.168   5.429   3.526  2.9845  0.9273  1.3421
 2140SOL     OW 7860   6.356   3.483   0.865  0.7426  0.4590 -0.5603
 2140SOL    HW1 7861   6.278   3.530   0.894 -0.1820  0.0470 -2.2632
 2140SOL    HW2 7862   6.374   3.421   0.936 -1.0225 -0.0470 -0.5121
 2141SOL     OW 7863   0.562   3.398   0.098 -0.2227  0.4041 -0.0493
 2141SOL    HW1 7864   0.635   3.454   0.073  0.2115 -0.2683 -0.3269
 2141SOL    HW2 7865   0.502   3.456   0.145  0.5026  0.9584  0.2130
 2142SOL     OW 7866   5.831   1.838   7.660  0.0584  0.3058  0.0546
 2142SOL    HW1 7867   5.824   1.748   7.630 -2.0300  1.3220 -2.9346
 2142SOL    HW2 7868   5.767   1.845   7.731 -1.6417 -0.0143 -1.3989
 2143SOL     OW 7869   4.643   5.710   1.936  0.3169  0.6466  0.1893
 2143SOL    HW1 7870   4.713   5.719   1.872 -0.2586 -0.1519 -0.5683
 2143SOL    HW2 7871   4.682   5.661   2.009  0.7788  0.9702  0.1631
 2144SOL     OW 7872   0.395   2.810   7.410 -0.2235 -0.8082  0.1488
 2144SOL    HW1 7873   0.437   2.815   7.497  0.3179 -1.9687 -0.0244
 2144SOL    HW2 7874   0.321   2.751   7.423 -0.2833 -0.7936 -0.1301
 2145SOL     OW 7875   7.014   5.117   6.381 -0.5436 -0.5847  0.1324
 2145SOL    HW1 7876   6.945   5.094   6.319  0.2829  1.4455 -1.6762
 2145SOL    HW2 7877   6.974   5.182   6.439 -0.1383  0.8353 -1.1183
 2146SOL     OW 7878   0.586   2.780   6.288  0.3700 -0.4626 -0.0242
 2146SOL    HW1 7879   0.587   2.817   6.199  1.2948  1.0557  0.5688
 2146SOL    HW2 7880   0.664   2.818   6.330 -0.9282  0.1564  1.9373
 2147SOL     OW 7881   2.844   2.256   2.529  0.2284  0.0185  0.4946
 2147SOL    HW1 7882   2.911   2.191   2.552  0.5678  0.4743  0.7957
 2147SOL    HW2 7883   2.801   2.219   2.452  0.8058 -0.2918  0.3156
 2148SOL     OW 7884   5.193   6.412   4.385  0.0736  0.3072  0.0407
 2148SOL    HW1 7885   5.104   6.421   4.420  0.2895 -1.8205  1.3471
 2148SOL    HW2 7886   5.187   6.339   4.323  1.1986 -1.1697  1.5549
 2149SOL     OW 7887   7.800   1.074   1.963 -0.2355 -0.1380 -0.3809
 2149SOL    HW1 7888   7.776   0.986   1.992  0.6116 -0.5454 -0.8505
 2149SOL    HW2 7889   7.892   1.065   1.936  0.4301  1.2928  1.2198
 2150SOL     OW 7890   1.820   3.865   9.562 -0.0417  0.4185  0.5646
 2150SOL    HW1 7891   1.914   3.854   9.556 -0.0188  1.3778 -1.4996
 2150SOL    HW2 7892   1.805   3.958   9.544 -1.5090 -0.1644 -1.7379
 2151SOL     OW 7893   1.761   1.759   8.770 -0.2126 -0.4726  0.1802
 2151SOL    HW1 7894   1.853   1.738   8.757 -0.8378 -1.9513 -2.9210
 2151SOL    HW2 7895   1.750   1.846   8.731 -0.4669 -1.2850 -1.7012
 2152SOL     OW 7896   6.869   3.468   6.288  0.0143  0.1456 -0.1372
 2152SOL    HW1 7897   6.849   3.555   6.253  0.0566  0.3901  0.4404
 2152SOL    HW2 7898   6.952   3.479   6.335 -1.1649  0.3627  1.9944
 2153SOL     OW 7899   3.866   3.615  10.854 -0.3509  0.2243 -0.1491
 2153SOL    HW1 7900   3.800   3.682  10.869  0.4072  0.9631 -0.0716
 2153SOL    HW2 7901   3.910   3.642  10.773  1.7821  1.3655  1.2741
 2154SOL     OW 7902   1.768   7.431   9.095 -0.0237 -0.4117 -0.0902
 2154SOL    HW1 7903   1.831   7.432   9.167 -0.2200 -0.1892  0.0791
 2154SOL    HW2 7904   1.791   7.353   9.044  1.2102  0.3843 -0.7732
 2155SOL     OW 7905   4.786   6.220   4.818 -0.1822  0.2304 -0.0569
 2155SOL    HW1 7906   4.826   6.217   4.905 -2.1824  0.8666  0.9728
 2155SOL    HW2 7907   4.748   6.133   4.806  0.5626 -0.0325 -0.5534
 2156SOL     OW 7908   6.523   2.352   1.147 -0.5739  0.2088 -0.5067
 2156SOL    HW1 7909   6.463   2.312   1.210 -0.2691 -1.1447 -1.0369
 2156SOL    HW2 7910   6.575   2.414   1.199 -1.5679  0.4698  0.2001
 2157SOL     OW 7911   1.404   7.137   5.632  0.0875  0.3358  0.5352
 2157SOL    HW1 7912   1.455   7.095   5.563 -0.8656 -0.2655  0.1746
 2157SOL    HW2 7913   1.336   7.072   5.655  1.0040  0.0607  2.7855
 2158SOL     OW 7914   2.407   1.607   6.643  0.5707 -0.2537 -0.4972
 2158SOL    HW1 7915   2.349   1.575   6.711 -0.8282 -0.1651 -1.5976
 2158SOL    HW2 7916   2.393   1.548   6.569  0.9182  0.5284 -1.2141
 2159SOL     OW 7917   2.232   1.845  10.126 -0.0512  0.2106 -0.8996
 2159SOL    HW1 7918   2.217   1.913  10.192  0.8213  0.9350 -1.4375
 2159SOL    HW2 7919   2.149   1.840  10.078 -0.3685  0.3541 -0.3783
 2160SOL     OW 7920   3.758   4.082   4.601 -0.0265  0.1439 -0.1720
 2160SOL    HW1 7921   3.672   4.100   4.564 -0.2234  0.0206  0.2168
 2160SOL    HW2 7922   3.757   4.126   4.686  0.0532 -0.3976  0.1126
 2161SOL     OW 7923   1.083   5.057   5.120 -0.8102  0.7468  0.0567
 2161SOL    HW1 7924   1.081   4.965   5.145 -2.5094  0.7018 -0.0901
 2161SOL    HW2 7925   1.121   5.058   5.032 -1.4061  0.1041 -0.2172
 2162SOL     OW 7926   6.987   0.580   8.869  0.4446 -0.0877 -0.0377
 2162SOL    HW1 7927   6.916   0.527   8.904  0.7801 -2.1499 -2.2459
 2162SOL    HW2 7928   7.067   0.538   8.901  0.7700  1.5466  1.4877
 2163SOL     OW 7929   1.329   2.217  12.452  0.0809  0.2405  0.5257
 2163SOL    HW1 7930   1.270   2.200  12.378  0.9478  0.4168 -0.2222
 2163SOL    HW2 7931   1.281   2.278  12.507 -0.7596 -0.2348  0.3439
 2164SOL     OW 7932   0.800   6.086  10.668  0.2294  0.5134  0.5112
 2164SOL    HW1 7933   0.746   6.144  10.614  0.7654  1.5919  1.1063
 2164SOL    HW2 7934   0.808   6.132  10.751 -1.3086 -1.5060  1.8649
 2165SOL     OW 7935   2.392   7.300   7.252  0.1574  0.1726 -0.0050
 2165SOL    HW1 7936   2.383   7.288   7.347  0.2853 -1.6741 -0.1804
 2165SOL    HW2 7937   2.306   7.277   7.217  0.4542 -0.3329 -0.4142
 2166SOL     OW 7938   7.974   3.085   5.555  0.7085  0.2778 -0.3038
 2166SOL    HW1 7939   7.940   3.141   5.624  0.8655 -1.1661  1.0184
 2166SOL    HW2 7940   8.040   3.138   5.510  0.2712  1.4000  0.3644
 2167SOL     OW 7941   3.667   6.881   6.982 -0.0763  0.0747  0.3316
 2167SOL    HW1 7942   3.619   6.827   6.919  1.6923 -0.4378 -0.6421
 2167SOL    HW2 7943   3.755   6.887   6.946  1.1814 -0.7056  3.0458
 2168SOL     OW 7944   1.960   7.726   5.002  0.1024 -0.3767  0.5870
 2168SOL    HW1 7945   1.880   7.678   5.024  0.6171 -2.0178 -0.9446
 2168SOL    HW2 7946   1.954   7.743   4.908  1.0213  0.5571  0.6696
 2169SOL     OW 7947   2.530   0.748  10.996 -0.5339  0.0188  0.2369
 2169SOL    HW1 7948   2.541   0.821  11.056 -3.1058 -0.0659  0.9261
 2169SOL    HW2 7949   2.491   0.786  10.917 -0.2186 -0.3589 -0.1097
 2170SOL     OW 7950   1.903   3.278  11.926  0.1592 -0.4775 -0.0942
 2170SOL    HW1 7951   1.841   3.259  11.996  0.4111 -0.4974  0.1279
 2170SOL    HW2 7952   1.851   3.320  11.858  0.1237  0.6773  0.6213
 2171SOL     OW 7953   4.992   5.817   3.715 -0.4398 -0.1785  0.1631
 2171SOL    HW1 7954   4.995   5.726   3.744 -1.0996  0.4471  2.3561
 2171SOL    HW2 7955   4.900   5.842   3.723 -0.4035  0.4840 -1.1719
 2172SOL     OW 7956   1.681   5.493  12.086 -0.0336 -0.6567 -0.2679
 2172SOL    HW1 7957   1.597   5.524  12.121 -0.3450  0.1785 -1.6693
 2172SOL    HW2 7958   1.739   5.491  12.161 -1.2663 -1.1150  0.7110
 2173SOL     OW 7959   3.037   0.387   4.277  0.6860  0.6154 -0.0562
 2173SOL    HW1 7960   2.999   0.322   4.218 -2.6314  2.6395 -0.4163
 2173SOL    HW2 7961   3.050   0.340   4.360 -1.0842 -0.6859 -0.4509
 2174SOL     OW 7962   4.892   3.163   8.219  0.2357 -0.8365  0.3276
 2174SOL    HW1 7963   4.875   3.078   8.259 -0.0729 -0.9073  0.0526
 2174SOL    HW2 7964   4.829   3.222   8.260  1.5972 -0.3391  1.8067
 2175SOL     OW 7965   0.125   2.346   8.392 -0.0185 -0.1616 -0.1993
 2175SOL    HW1 7966   0.045   2.351   8.443 -0.1974 -0.1142 -0.4818
 2175SOL    HW2 7967   0.100   2.377   8.305  0.5414  0.8625 -0.0142
 2176SOL     OW 7968   1.648   5.556   0.687 -0.6547  0.1059 -0.3789
 2176SOL    HW1 7969   1.679   5.466   0.675  0.0526  0.4965 -1.5977
 2176SOL    HW2 7970   1.713   5.610   0.643 -1.3497  1.1851 -0.1039
 2177SOL     OW 7971   7.403   4.280   7.375 -0.0940  0.4719 -0.5445
 2177SOL    HW1 7972   7.360   4.364   7.386  1.1377  1.6168 -3.4259
 2177SOL    HW2 7973   7.399   4.263   7.281  4.1708 -0.0671 -0.8536
 2178SOL     OW 7974   4.225   7.334   1.564  0.2361  0.5849  0.0943
 2178SOL    HW1 7975   4.147   7.327   1.508 -0.4659  2.7642  0.6794
 2178SOL    HW2 7976   4.294   7.364   1.505 -0.6611  3.5186  0.3756
 2179SOL     OW 7977   6.617   6.251  11.029  0.3715 -0.7605 -0.2360
 2179SOL    HW1 7978   6.588   6.301  10.952 -0.2951 -0.5976  0.1125
 2179SOL    HW2 7979   6.616   6.314  11.101  0.3453 -1.0686  0.0373
 2180SOL     OW 7980   0.534   1.585   9.562  0.6285  0.2508  0.1198
 2180SOL    HW1 7981   0.622   1.590   9.525  0.6455 -1.3720 -0.0972
 2180SOL    HW2 7982   0.481   1.641   9.506  1.1585 -0.1948 -0.8447
 2181SOL     OW 7983   3.215   0.295   7.902 -0.0914 -0.2044  0.5590
 2181SOL    HW1 7984   3.131   0.289   7.858  0.3533 -0.9489 -0.2322
 2181SOL    HW2 7985   3.200   0.354   7.976 -1.2011 -0.0353  0.2132
 2182SOL     OW 7986   5.860   3.085  11.460  0.0141 -0.3453  0.3657
 2182SOL    HW1 7987   5.870   2.992  11.479  2.5625  0.1089  1.7483
 2182SOL    HW2 7988   5.883   3.093  11.367  0.4185 -1.0361  0.3929
 2183SOL     OW 7989   1.547   4.321   5.564 -0.4768 -0.1191 -0.0989
 2183SOL    HW1 7990   1.518   4.240   5.521 -0.6543 -0.4585  0.6376
 2183SOL    HW2 7991   1.572   4.379   5.492 -0.9556 -0.5967 -0.6636
 2184SOL     OW 7992   6.170   1.436   7.914 -0.2175  0.1136  0.0998
 2184SOL    HW1 7993   6.236   1.387   7.964 -2.2886 -3.4169 -0.3223
 2184SOL    HW2 7994   6.097   1.448   7.975 -1.5414 -1.5098 -1.0694
 2185SOL     OW 7995   1.955   7.848   9.129  0.0794  0.5644  0.0726
 2185SOL    HW1 7996   1.900   7.889   9.061 -1.6250 -1.1106  0.3541
 2185SOL    HW2 7997   1.982   7.765   9.090  0.8389  0.5203  0.6802
 2186SOL     OW 7998   6.163   6.039  12.458  0.0845 -0.5023  0.3486
 2186SOL    HW1 7999   6.183   5.964  12.514 -0.5152 -1.3780 -0.5861
 2186SOL    HW2 8000   6.091   6.084  12.504  2.9800  1.9086  3.0279
 2187SOL     OW 8001   6.266   6.114   5.415  0.3598 -0.2459 -0.0803
 2187SOL    HW1 8002   6.263   6.125   5.320  1.0757 -0.2612 -0.1087
 2187SOL    HW2 8003   6.337   6.170   5.444 -0.2558  0.2416  0.5262
 2188SOL     OW 8004   7.546   4.409   9.679 -0.4098  0.3202  0.0470
 2188SOL    HW1 8005   7.495   4.467   9.736 -1.6733 -0.5045 -0.2160
 2188SOL    HW2 8006   7.495   4.402   9.599  0.3091 -0.2215 -0.3805
 2189SOL     OW 8007   5.225   5.639  11.618 -0.2303  0.1054  0.4145
 2189SOL    HW1 8008   5.315   5.642  11.649 -0.0243  0.4927 -0.1999
 2189SOL    HW2 8009   5.201   5.731  11.607 -1.2024  0.0762  1.9788
 2190SOL     OW 8010   6.989   5.619  10.918  0.0043  0.0536  0.5544
 2190SOL    HW1 8011   6.955   5.709  10.925 -0.3315 -0.1419  1.8039
 2190SOL    HW2 8012   7.012   5.609  10.826  1.6553  1.9911  0.6750
 2191SOL     OW 8013   5.130   1.949   1.181 -0.1274  0.7639  0.1759
 2191SOL    HW1 8014   5.170   1.918   1.262  0.6958  0.8442 -0.1876
 2191SOL    HW2 8015   5.101   1.870   1.136  1.1898  0.5412 -0.3488
 2192SOL     OW 8016   5.478   6.290   7.724 -0.0916 -0.1928 -0.0688
 2192SOL    HW1 8017   5.408   6.227   7.741  0.6409 -1.4315 -1.4246
 2192SOL    HW2 8018   5.512   6.266   7.638  2.0708  0.2894  0.5781
 2193SOL     OW 8019   1.666   4.271   5.839  0.1052 -0.0708  0.6074
 2193SOL    HW1 8020   1.664   4.274   5.744  0.1093 -1.2549  0.5589
 2193SOL    HW2 8021   1.616   4.348   5.867 -1.0121 -0.4132 -0.3583
 2194SOL     OW 8022   5.556   5.269   4.067  0.0910  0.1470  0.1309
 2194SOL    HW1 8023   5.598   5.262   3.981  0.2524  0.7826  0.1537
 2194SOL    HW2 8024   5.496   5.342   4.058  2.7583  2.7514  1.5972
 2195SOL     OW 8025   1.032   6.895   4.301  0.6621 -0.1531 -0.4188
 2195SOL    HW1 8026   1.039   6.890   4.205 -0.3648 -1.1798 -0.4557
 2195SOL    HW2 8027   1.087   6.823   4.332  1.4800  0.5495 -0.1941
 2196SOL     OW 8028   5.956   5.136   6.061 -0.4177 -0.2338  0.2505
 2196SOL    HW1 8029   6.030   5.197   6.057 -1.6076  1.2702  0.1239
 2196SOL    HW2 8030   5.964   5.084   5.981 -0.7063  1.4336 -0.9326
 2197SOL     OW 8031   3.256   5.754   6.062  0.1261  0.1084 -0.2067
 2197SOL    HW1 8032   3.276   5.737   6.154 -0.7648 -0.3077 -0.0886
 2197SOL    HW2 8033   3.261   5.849   6.054  0.3856  0.1359  0.2252
 2198SOL     OW 8034   4.895   3.898   8.309 -0.1686  0.4161 -0.5918
 2198SOL    HW1 8035   4.906   3.992   8.290 -0.7263  0.5937 -0.0825
 2198SOL    HW2 8036   4.944   3.854   8.240 -1.3403  1.0458 -1.8679
 2199SOL     OW 8037   0.788   4.340   7.332 -0.0888  0.2394  0.3491
 2199SOL    HW1 8038   0.862   4.318   7.389  1.6424  0.6425 -1.6132
 2199SOL    HW2 8039   0.826   4.342   7.244 -2.5627  0.0100 -0.7978
 2200SOL     OW 8040   7.290   4.135   1.512  1.1509 -0.3186 -0.3127
 2200SOL    HW1 8041   7.258   4.058   1.466  2.2223 -1.2253  0.3963
 2200SOL    HW2 8042   7.225   4.203   1.493  0.0328 -1.4550 -0.7261
 2201SOL     OW 8043   2.673   4.989   3.680 -0.5216 -0.0964  0.0161
 2201SOL    HW1 8044   2.722   5.053   3.629 -2.2008  1.4667  0.2622
 2201SOL    HW2 8045   2.627   4.936   3.615  1.5082 -1.6872 -0.2253
 2202SOL     OW 8046   6.376   6.441   7.709 -0.4726  0.1300  0.4971
 2202SOL    HW1 8047   6.327   6.513   7.749 -0.8284 -0.5889  1.3808
 2202SOL    HW2 8048   6.309   6.380   7.679 -0.1489 -0.5686  1.1559
 2203SOL     OW 8049   3.410   2.246  10.658 -0.3866  0.2352  0.0359
 2203SOL    HW1 8050   3.496   2.212  10.633 -0.8073 -0.2717 -0.7574
 2203SOL    HW2 8051   3.359   2.169  10.683 -0.8335  0.4554 -0.1821
 2204SOL     OW 8052   4.364   2.076   6.335  0.2968 -0.6827  0.1574
 2204SOL    HW1 8053   4.363   2.147   6.399 -0.5387 -1.4643  1.0397
 2204SOL    HW2 8054   4.432   2.102   6.273 -2.4847  2.8138 -1.8055
 2205SOL     OW 8055   1.115   7.292  10.976 -0.4537  0.4114  0.0635
 2205SOL    HW1 8056   1.133   7.198  10.976 -0.0415  0.4736 -0.8734
 2205SOL    HW2 8057   1.174   7.327  10.909 -0.3437  1.3913  0.6653
 2206SOL     OW 8058   3.011   3.794   5.735 -0.8973 -0.1729  0.3272
 2206SOL    HW1 8059   3.083   3.777   5.796 -0.2581 -1.4735 -0.7335
 2206SOL    HW2 8060   3.013   3.888   5.722  0.1229 -0.0907  0.9136
 2207SOL     OW 8061   0.635   4.402   5.055  0.1241  0.0580  0.0332
 2207SOL    HW1 8062   0.684   4.484   5.057  0.9125 -0.3677 -1.1150
 2207SOL    HW2 8063   0.634   4.377   4.963  0.1543 -1.3902  0.4077
 2208SOL     OW 8064   2.653   6.878  10.944  0.5687 -0.5897 -0.1823
 2208SOL    HW1 8065   2.705   6.798  10.957 -0.5592 -1.3644 -0.3090
 2208SOL    HW2 8066   2.709   6.934  10.891  1.9880 -0.6641  1.1557
 2209SOL     OW 8067   4.612   2.186  12.155 -0.6091 -0.1534 -0.0507
 2209SOL    HW1 8068   4.538   2.246  12.155 -0.6839 -0.2409 -0.4743
 2209SOL    HW2 8069   4.660   2.207  12.235 -1.1131 -0.1259  0.2541
 2210SOL     OW 8070   3.119   5.674  10.592  0.2295 -0.4980 -0.1630
 2210SOL    HW1 8071   3.106   5.768  10.605  1.5659 -0.3550  0.2214
 2210SOL    HW2 8072   3.071   5.634  10.664 -0.2594 -0.1125 -0.2638
 2211SOL     OW 8073   4.892   2.553   1.378 -0.1437  0.3064  0.2510
 2211SOL    HW1 8074   4.939   2.604   1.444  0.6462  1.4432 -1.1390
 2211SOL    HW2 8075   4.952   2.482   1.355 -0.8640 -0.7472  1.5077
 2212SOL     OW 8076   4.842   1.317  12.455  0.1164  0.3803  0.1944
 2212SOL    HW1 8077   4.781   1.254  12.417  1.9785 -1.0314 -0.6096
 2212SOL    HW2 8078   4.829   1.309  12.549  0.8547 -1.8419  0.1609
 2213SOL     OW 8079   5.487   0.599   4.861  0.0666  0.4893 -0.0724
 2213SOL    HW1 8080   5.490   0.610   4.766  1.0817  0.2141 -0.0818
 2213SOL    HW2 8081   5.439   0.676   4.893 -0.8956  0.2276 -0.8522
 2214SOL     OW 8082   0.605   6.197   4.866 -0.4830 -0.0423  0.3132
 2214SOL    HW1 8083   0.692   6.175   4.898  0.3644  3.1075  0.4655
 2214SOL    HW2 8084   0.545   6.156   4.929  0.9793  0.6824  2.2750
 2215SOL     OW 8085   0.164   2.035   5.700 -0.4650 -0.0742 -0.7802
 2215SOL    HW1 8086   0.230   2.102   5.683 -0.3221 -0.1237 -0.4202
 2215SOL    HW2 8087   0.164   2.024   5.795  0.0095 -1.0823 -0.8791
 2216SOL     OW 8088   1.017   6.434   0.657 -0.5425 -0.4235 -0.2110
 2216SOL    HW1 8089   1.023   6.340   0.675 -2.3516 -0.6727 -0.6761
 2216SOL    HW2 8090   1.009   6.440   0.561 -2.2252  0.0308 -0.0822
 2217SOL     OW 8091   3.189   6.334   2.628  0.2221  0.4692  0.0546
 2217SOL    HW1 8092   3.167   6.427   2.620 -1.0006  0.0657 -2.0748
 2217SOL    HW2 8093   3.128   6.301   2.694  0.1967  1.0424  0.3269
 2218SOL     OW 8094   2.138   0.434   5.823 -0.2474  0.0527 -0.3625
 2218SOL    HW1 8095   2.136   0.450   5.728 -1.4331  0.0910 -0.3372
 2218SOL    HW2 8096   2.131   0.521   5.862  1.2729  0.1449 -0.2099
 2219SOL     OW 8097   3.208   5.247   0.099 -0.0102  0.2476 -0.1066
 2219SOL    HW1 8098   3.152   5.314   0.140  0.6188  0.1597  0.9255
 2219SOL    HW2 8099   3.251   5.204   0.173  0.6520 -0.3676 -0.8426
 2220SOL     OW 8100   6.342   2.882   4.476 -0.2328 -0.3125  0.3198
 2220SOL    HW1 8101   6.327   2.881   4.381  0.4204 -1.5551  0.1985
 2220SOL    HW2 8102   6.298   2.803   4.507  1.3114 -1.0364  0.7349
 2221SOL     OW 8103   1.793   4.624   0.583 -0.5755 -0.5763 -0.2861
 2221SOL    HW1 8104   1.815   4.532   0.565 -0.5147 -0.8803  1.2235
 2221SOL    HW2 8105   1.849   4.647   0.657  1.5189  1.5689 -2.3679
 2222SOL     OW 8106   0.525   6.886   9.427  0.0014 -0.7887  0.1985
 2222SOL    HW1 8107   0.494   6.832   9.355 -1.3643 -1.5815  1.3171
 2222SOL    HW2 8108   0.601   6.840   9.461  0.8270 -0.2600 -0.8842
 2223SOL     OW 8109   4.251   2.222  10.740 -0.1336 -1.0463  0.5908
 2223SOL    HW1 8110   4.327   2.199  10.793  2.4810  1.1256 -1.9168
 2223SOL    HW2 8111   4.264   2.175  10.657  0.2675  1.7315 -1.0381
 2224SOL     OW 8112   2.964   2.601   6.905  0.6624  0.5154  0.6282
 2224SOL    HW1 8113   2.951   2.561   6.991 -0.2209  0.9458  0.6983
 2224SOL    HW2 8114   3.042   2.557   6.870  1.9256  1.3716  2.2615
 2225SOL     OW 8115   2.706   2.650  10.395  0.0290  0.0020 -0.7473
 2225SOL    HW1 8116   2.720   2.728  10.341  1.6156  0.8968  0.8460
 2225SOL    HW2 8117   2.618   2.661  10.430 -0.1821  0.5215 -1.4103
 2226SOL     OW 8118   4.596   4.110   0.752 -0.1261 -0.0458 -0.6649
 2226SOL    HW1 8119   4.510   4.122   0.712 -0.3924  0.6022  0.0788
 2226SOL    HW2 8120   4.625   4.198   0.775 -0.2942 -0.4256  1.1793
 2227SOL     OW 8121   3.583   0.078  11.393 -0.0373  0.2652  0.2336
 2227SOL    HW1 8122   3.600  -0.010  11.427 -0.1159  0.0209 -0.3534
 2227SOL    HW2 8123   3.490   0.077  11.370 -0.3638  0.9248  1.4464
 2228SOL     OW 8124   6.422   7.056   0.685 -0.5326  0.0943 -0.6817
 2228SOL    HW1 8125   6.458   6.983   0.634  1.7821  0.8104 -0.2235
 2228SOL    HW2 8126   6.498   7.112   0.701 -2.1220  2.2915 -0.4820
 2229SOL     OW 8127   3.000   7.175   3.449 -0.2235 -0.5294 -0.0774
 2229SOL    HW1 8128   3.059   7.105   3.477 -1.8135 -2.0912 -0.4611
 2229SOL    HW2 8129   2.933   7.179   3.517 -0.9396 -0.3675 -0.7746
 2230SOL     OW 8130   7.171   6.625   2.919 -0.8691  0.4818 -0.4248
 2230SOL    HW1 8131   7.227   6.560   2.961 -1.4612 -0.6359 -1.3163
 2230SOL    HW2 8132   7.093   6.630   2.975 -0.4981  1.0169  0.0606
 2231SOL     OW 8133   4.430   2.866   4.756 -0.2808  0.5489 -0.2115
 2231SOL    HW1 8134   4.442   2.958   4.733 -1.4841  0.5768 -0.7925
 2231SOL    HW2 8135   4.399   2.825   4.675 -1.4834  0.0018  0.4996
 2232SOL     OW 8136   3.173   2.556  11.873 -0.2674  0.1646  0.5219
 2232SOL    HW1 8137   3.137   2.589  11.791  0.3238  0.9680  0.5732
 2232SOL    HW2 8138   3.100   2.561  11.935 -1.0969 -1.6615 -0.2396
 2233SOL     OW 8139   7.473   1.744   2.608  0.2675  0.5012  0.2045
 2233SOL    HW1 8140   7.568   1.742   2.620  0.2006 -0.9641  0.6671
 2233SOL    HW2 8141   7.442   1.807   2.673  0.7772 -0.2965  1.2458
 2234SOL     OW 8142   2.749   4.566  10.241 -0.2846 -1.5285 -0.0650
 2234SOL    HW1 8143   2.772   4.588  10.151  0.1388 -0.0784  0.3669
 2234SOL    HW2 8144   2.654   4.562  10.242 -0.4019  0.3904 -0.1928
 2235SOL     OW 8145   7.081   0.907   0.916  0.2915  1.0779  0.1724
 2235SOL    HW1 8146   7.077   0.812   0.907 -0.7930  1.2677 -2.1825
 2235SOL    HW2 8147   7.170   0.924   0.949  1.2943 -0.6621 -1.3915
 2236SOL     OW 8148   4.259   5.296   8.836  0.1466  0.9920  0.3715
 2236SOL    HW1 8149   4.184   5.238   8.846  0.6272  0.2438 -0.2719
 2236SOL    HW2 8150   4.234   5.355   8.765 -0.0944  1.1848  0.6119
 2237SOL     OW 8151   6.591   2.802   6.049  0.7650  0.6608  0.3493
 2237SOL    HW1 8152   6.539   2.854   6.111  0.7413  0.8349  0.1848
 2237SOL    HW2 8153   6.681   2.807   6.084  0.2449 -2.2935  2.4660
 2238SOL     OW 8154   0.591   0.466   9.314  0.3401 -0.7459 -0.0910
 2238SOL    HW1 8155   0.598   0.381   9.270 -0.1672 -1.0631  0.4390
 2238SOL    HW2 8156   0.562   0.446   9.403  0.1393 -0.0163  0.0188
 2239SOL     OW 8157   4.580   1.891  11.217  0.5631 -0.2497  0.0102
 2239SOL    HW1 8158   4.635   1.815  11.203  1.0205  0.2150 -0.7979
 2239SOL    HW2 8159   4.496   1.869  11.177  1.0548  0.0917 -1.2425
 2240SOL     OW 8160   6.130   4.536   7.566  0.0757  0.1753  0.7833
 2240SOL    HW1 8161   6.148   4.522   7.659  1.2665  2.9761  1.0668
 2240SOL    HW2 8162   6.180   4.468   7.521  0.8047 -0.2235  2.1404
 2241SOL     OW 8163   6.612   3.221   2.096  0.1722 -0.1844 -0.2359
 2241SOL    HW1 8164   6.650   3.269   2.022  0.7736  0.8674  0.7148
 2241SOL    HW2 8165   6.588   3.290   2.158 -2.2527 -0.9100 -0.2999
 2242SOL     OW 8166   1.056   0.135   0.879  0.0655 -0.0680  0.1821
 2242SOL    HW1 8167   0.976   0.187   0.878  1.3323  1.9907  0.9469
 2242SOL    HW2 8168   1.061   0.101   0.969 -0.2586 -0.7728 -0.0528
 2243SOL     OW 8169   3.130   4.888   5.386  0.3838  0.6801  0.6242
 2243SOL    HW1 8170   3.200   4.897   5.322 -0.9212  0.9958 -0.8138
 2243SOL    HW2 8171   3.152   4.809   5.436  0.4849 -0.6719 -1.4645
 2244SOL     OW 8172   4.723   6.957  10.931  0.1083  0.0628 -0.5256
 2244SOL    HW1 8173   4.669   6.902  10.875  0.9501 -0.8804 -0.4382
 2244SOL    HW2 8174   4.745   6.901  11.006  1.0881  0.4573 -0.4960
 2245SOL     OW 8175   2.992   3.756   4.534 -0.4832 -0.5823  0.1365
 2245SOL    HW1 8176   2.968   3.770   4.626  0.5249  0.4888  0.2548
 2245SOL    HW2 8177   2.946   3.824   4.486  1.5242  0.9539  0.2679
 2246SOL     OW 8178   1.294   5.048   5.941 -0.2641  0.1789 -0.6863
 2246SOL    HW1 8179   1.204   5.050   5.972  0.0776  0.8073  0.2872
 2246SOL    HW2 8180   1.345   5.092   6.009  0.9247 -1.0261 -0.7494
 2247SOL     OW 8181   4.064   3.537   9.970  0.1871 -0.3411 -0.7714
 2247SOL    HW1 8182   4.019   3.492  10.042 -0.2494 -0.7277 -1.2842
 2247SOL    HW2 8183   3.995   3.559   9.908  0.4117  0.9216 -0.6002
 2248SOL     OW 8184   0.302   3.264  12.444 -0.6934  0.8308  0.9395
 2248SOL    HW1 8185   0.384   3.312  12.448 -0.0156 -0.2045  0.0675
 2248SOL    HW2 8186   0.309   3.197  12.512  0.2371 -0.7539 -0.6028
 2249SOL     OW 8187   2.087   0.148   0.075 -0.4631 -0.1669  0.0445
 2249SOL    HW1 8188   2.112   0.057   0.057  0.3841  0.0589  0.0582
 2249SOL    HW2 8189   2.011   0.140   0.133 -1.4801 -0.8693 -1.3267
 2250SOL     OW 8190   1.190   4.661   7.926  0.0984 -0.2840 -0.2919
 2250SOL    HW1 8191   1.235   4.621   8.000 -0.0464 -1.7588 -0.9629
 2250SOL    HW2 8192   1.233   4.746   7.915 -0.3859  0.3156  1.9309
 2251SOL     OW 8193   1.122   6.957   8.342  0.0566 -0.1022  0.4444
 2251SOL    HW1 8194   1.148   7.026   8.404  2.3320  0.7809 -1.3578
 2251SOL    HW2 8195   1.052   6.997   8.290 -2.6343 -1.2090  2.9394
 2252SOL     OW 8196   1.697   6.452  10.331  0.2389  0.0836  0.4576
 2252SOL    HW1 8197   1.641   6.398  10.387  0.1933 -1.6365 -1.1400
 2252SOL    HW2 8198   1.781   6.407  10.329  0.2668  0.1363 -0.7575
 2253SOL     OW 8199   2.631   4.456   9.858 -0.0919  0.9115 -0.3025
 2253SOL    HW1 8200   2.639   4.389   9.790  0.5565 -1.7306  2.1756
 2253SOL    HW2 8201   2.537   4.473   9.864 -0.6153 -1.7888  0.6735
 2254SOL     OW 8202   5.913   5.214  12.148 -0.2113 -0.0541 -0.2031
 2254SOL    HW1 8203   5.874   5.211  12.236 -0.6138  0.3167 -0.3647
 2254SOL    HW2 8204   5.908   5.124  12.116 -1.3450  0.0708 -0.3960
 2255SOL     OW 8205   2.915   2.359  11.048  0.0603  0.4988  0.6042
 2255SOL    HW1 8206   2.889   2.310  11.126  3.1402 -1.2029  0.7153
 2255SOL    HW2 8207   2.907   2.295  10.977  0.9023  0.8565  0.1781
 2256SOL     OW 8208   6.734   5.158  10.992  0.1916 -0.4509 -0.0460
 2256SOL    HW1 8209   6.663   5.094  10.990  0.6652 -0.9841 -0.0653
 2256SOL    HW2 8210   6.758   5.166  11.085 -1.0114  1.0043  0.1827
 2257SOL     OW 8211   7.803   4.831   7.848  0.2386 -0.0420  0.0549
 2257SOL    HW1 8212   7.740   4.792   7.787 -0.6541  0.0921  0.8678
 2257SOL    HW2 8213   7.814   4.921   7.816  0.7802 -0.3512 -0.6598
 2258SOL     OW 8214   3.208   7.425   8.197  0.0219 -0.2456  0.3059
 2258SOL    HW1 8215   3.266   7.494   8.164 -0.8237  0.6122  0.5453
 2258SOL    HW2 8216   3.123   7.446   8.159 -0.3808 -0.7982  0.8807
 2259SOL     OW 8217   6.931   2.444   9.535 -0.3361 -0.0140  0.2288
 2259SOL    HW1 8218   7.007   2.483   9.579 -0.4295  0.1732  0.2240
 2259SOL    HW2 8219   6.889   2.517   9.490  0.9573 -0.5506 -1.9767
 2260SOL     OW 8220   7.571   2.469   0.382 -0.1976  0.1804 -0.5514
 2260SOL    HW1 8221   7.632   2.428   0.320 -0.0403 -0.6618  0.1448
 2260SOL    HW2 8222   7.525   2.396   0.422 -0.4158  0.7252  0.2075
 2261SOL     OW 8223   1.506   3.755  11.282 -0.3130  0.0878 -0.9443
 2261SOL    HW1 8224   1.510   3.689  11.214  2.6174  1.3547 -2.1877
 2261SOL    HW2 8225   1.552   3.715  11.357 -3.0487 -1.0935  0.2302
 2262SOL     OW 8226   3.447   6.420   7.148 -0.2311  0.1649 -0.5149
 2262SOL    HW1 8227   3.479   6.339   7.189 -3.7309 -0.8594  0.5540
 2262SOL    HW2 8228   3.421   6.475   7.222 -0.2452  1.2428 -1.2981
 2263SOL     OW 8229   5.176   2.608   8.966  0.4464  0.2263 -0.4723
 2263SOL    HW1 8230   5.084   2.582   8.962 -0.1132  1.8781  0.6652
 2263SOL    HW2 8231   5.220   2.532   9.006 -0.4347 -0.4985 -0.8404
 2264SOL     OW 8232   1.510   5.595   1.060 -0.2963 -0.2203 -0.5817
 2264SOL    HW1 8233   1.571   5.635   0.998  0.6377 -1.7643 -0.7120
 2264SOL    HW2 8234   1.432   5.577   1.008 -0.4568  0.7327 -0.6900
 2265SOL     OW 8235   4.020   0.002   5.245 -0.5938  0.1165  0.4157
 2265SOL    HW1 8236   4.081   0.008   5.171 -0.4121 -1.9939  0.3243
 2265SOL    HW2 8237   4.041   0.078   5.300  3.5870 -1.5142  1.4715
 2266SOL     OW 8238   2.835   5.923   8.213 -0.1154 -0.2175 -0.1828
 2266SOL    HW1 8239   2.832   5.866   8.137 -0.4175 -0.1554 -0.2207
 2266SOL    HW2 8240   2.814   5.866   8.287  1.6378 -0.5962  0.0565
 2267SOL     OW 8241   4.633   6.572  10.108 -0.3565 -0.0444 -0.8780
 2267SOL    HW1 8242   4.631   6.556  10.203  0.9330  0.6001 -0.7096
 2267SOL    HW2 8243   4.548   6.544  10.077 -0.9260  0.0204  0.5315
 2268SOL     OW 8244   0.985   7.728   6.416  0.3720  0.4064 -0.3389
 2268SOL    HW1 8245   0.969   7.649   6.365  0.9757  0.2557 -0.3102
 2268SOL    HW2 8246   1.070   7.760   6.385  0.6730  0.3999  0.4499
 2269SOL     OW 8247   0.207   4.954   2.514 -0.3302 -0.0732 -0.1500
 2269SOL    HW1 8248   0.134   4.979   2.456 -2.0792 -0.0548  1.9363
 2269SOL    HW2 8249   0.205   4.859   2.514 -0.5593 -0.0683  0.1552
 2270SOL     OW 8250   1.958   1.204   4.463 -0.1767 -0.6052  0.3989
 2270SOL    HW1 8251   1.963   1.111   4.485 -2.0769 -1.0977 -0.9723
 2270SOL    HW2 8252   1.915   1.206   4.377  2.4577  1.4290 -1.0135
 2271SOL     OW 8253   3.559   4.953   1.485  0.6112 -0.0960 -0.3176
 2271SOL    HW1 8254   3.519   5.032   1.523  0.7095 -0.4251  0.5046
 2271SOL    HW2 8255   3.610   4.985   1.411 -0.3503  0.4544 -0.7667
 2272SOL     OW 8256   0.547   5.844   4.339 -0.3468 -0.2250 -0.4179
 2272SOL    HW1 8257   0.627   5.840   4.286  0.1722 -2.5552  0.4440
 2272SOL    HW2 8258   0.477   5.820   4.279 -0.3325  1.0039 -0.9652
 2273SOL     OW 8259   5.182   4.682   1.937  0.4935 -0.0037 -0.7169
 2273SOL    HW1 8260   5.142   4.597   1.922  0.9567 -0.2494 -0.6020
 2273SOL    HW2 8261   5.224   4.704   1.853  1.1999 -0.3471 -0.4634
 2274SOL     OW 8262   4.597   7.201   1.007 -0.4651 -0.3263 -0.1978
 2274SOL    HW1 8263   4.516   7.232   0.967 -0.8588  0.3752  1.1096
 2274SOL    HW2 8264   4.641   7.152   0.937  0.0501  2.8618 -2.3475
 2275SOL     OW 8265   5.154   6.102   6.248 -0.2560 -0.0354 -0.1366
 2275SOL    HW1 8266   5.069   6.078   6.285 -1.5892  1.6484 -1.8589
 2275SOL    HW2 8267   5.201   6.143   6.320 -0.9715 -0.7647  0.7825
 2276SOL     OW 8268   7.692   6.682   4.958 -0.4445  0.3177 -0.4962
 2276SOL    HW1 8269   7.631   6.608   4.950  0.3883 -0.2588 -1.7017
 2276SOL    HW2 8270   7.648   6.754   4.914  0.0629 -0.3198 -2.1022
 2277SOL     OW 8271   5.975   6.752   6.974  0.1080  0.3221  0.0684
 2277SOL    HW1 8272   6.030   6.779   6.900  0.1901 -0.2029 -0.0683
 2277SOL    HW2 8273   5.997   6.660   6.987 -1.2241 -0.0856 -0.4144
 2278SOL     OW 8274   7.566   7.049   8.529 -0.4421  0.9265  0.4306
 2278SOL    HW1 8275   7.537   7.135   8.558  2.0401  2.0852 -0.1893
 2278SOL    HW2 8276   7.492   7.014   8.480 -1.3425  2.9926  0.1889
 2279SOL     OW 8277   6.875   0.738   6.450 -0.0450 -0.0010  0.5992
 2279SOL    HW1 8278   6.921   0.821   6.436  0.2936 -0.2396  0.2786
 2279SOL    HW2 8279   6.793   0.747   6.401  0.3588 -0.1652 -0.1219
 2280SOL     OW 8280   0.211   7.507   9.198  0.7003 -0.2254  0.1229
 2280SOL    HW1 8281   0.245   7.440   9.139  0.4596 -0.0390 -0.2293
 2280SOL    HW2 8282   0.203   7.585   9.144 -2.5336 -0.8380 -0.4709
 2281SOL     OW 8283   7.527   4.276   2.143  0.4045 -0.0585 -0.3350
 2281SOL    HW1 8284   7.484   4.359   2.125  1.7401  0.4808 -1.0926
 2281SOL    HW2 8285   7.515   4.224   2.063 -0.4294 -0.6263  0.1345
 2282SOL     OW 8286   0.454   3.929   4.894  0.1895 -0.4514 -0.1542
 2282SOL    HW1 8287   0.509   3.856   4.863  0.9569 -0.5253  1.2867
 2282SOL    HW2 8288   0.449   3.916   4.989 -0.3874  0.8917  0.0185
 2283SOL     OW 8289   2.360   0.305   6.705 -0.2625 -0.7737 -0.2562
 2283SOL    HW1 8290   2.301   0.235   6.733  0.0676 -0.5351  1.0968
 2283SOL    HW2 8291   2.448   0.269   6.717 -0.1001 -0.5341 -0.6801
 2284SOL     OW 8292   0.167   1.572   0.135 -0.1693 -0.3553  0.3224
 2284SOL    HW1 8293   0.134   1.647   0.086  1.6080  0.9639  1.0264
 2284SOL    HW2 8294   0.197   1.511   0.068  0.1124  0.4070 -0.2645
 2285SOL     OW 8295   1.537   0.560   9.895  0.1361  0.4787 -0.1702
 2285SOL    HW1 8296   1.625   0.583   9.925 -0.5086  1.2271  1.2983
 2285SOL    HW2 8297   1.511   0.486   9.950 -0.8120  1.4286  0.7248
 2286SOL     OW 8298   0.504   2.949   2.896 -0.5700  0.1261 -0.3545
 2286SOL    HW1 8299   0.415   2.923   2.873 -1.8911 -0.3085  4.1639
 2286SOL    HW2 8300   0.498   3.043   2.913 -0.5658 -0.0877  1.0125
 2287SOL     OW 8301   7.900   5.093   3.885 -1.0810 -0.1945  0.6411
 2287SOL    HW1 8302   7.857   5.177   3.903 -1.5581 -0.2365 -0.2558
 2287SOL    HW2 8303   7.986   5.117   3.851 -0.9472 -0.0842  1.0519
 2288SOL     OW 8304   2.601   5.252   0.629 -0.3410 -0.2934 -0.2311
 2288SOL    HW1 8305   2.653   5.173   0.640 -1.5590 -0.9775  0.9468
 2288SOL    HW2 8306   2.598   5.291   0.716 -1.9821 -0.4296 -0.1927
 2289SOL     OW 8307   7.373   5.177   2.903  0.3687  0.0524  0.0915
 2289SOL    HW1 8308   7.281   5.150   2.906  0.9742 -2.1602  1.2148
 2289SOL    HW2 8309   7.385   5.230   2.982  0.4653 -1.2827  1.0057
 2290SOL     OW 8310   6.727   1.238   0.605  0.1127  0.5589 -0.6229
 2290SOL    HW1 8311   6.803   1.195   0.643 -0.4823  1.2896  1.5113
 2290SOL    HW2 8312   6.748   1.245   0.512  1.2162 -2.2120 -0.6837
 2291SOL     OW 8313   0.114   6.082   9.931  0.2349 -0.1394 -0.2872
 2291SOL    HW1 8314   0.200   6.110   9.901  0.7876 -1.0583  0.3949
 2291SOL    HW2 8315   0.073   6.163   9.963  1.8556 -0.0625  1.7984
 2292SOL     OW 8316   6.426   7.348   9.210  0.0281  0.6466 -0.4017
 2292SOL    HW1 8317   6.366   7.422   9.207 -0.2978  0.5832  2.1929
 2292SOL    HW2 8318   6.513   7.387   9.213 -0.0410  0.8412 -0.8214
 2293SOL     OW 8319   7.647   7.816   9.444 -0.0911 -0.1860 -0.1905
 2293SOL    HW1 8320   7.629   7.879   9.513  0.1009 -1.6110  1.2112
 2293SOL    HW2 8321   7.740   7.794   9.455 -0.1757 -0.7921 -0.6019
 2294SOL     OW 8322   6.631   4.055   8.169 -0.4115  0.0699 -0.3420
 2294SOL    HW1 8323   6.597   4.144   8.172 -0.6643  0.0426  3.6748
 2294SOL    HW2 8324   6.556   4.000   8.193  0.0882 -1.0935 -1.3544
 2295SOL     OW 8325   6.189   2.474   1.890  0.1190 -0.7079 -0.1054
 2295SOL    HW1 8326   6.261   2.527   1.854 -0.4014 -0.6227 -1.0505
 2295SOL    HW2 8327   6.122   2.538   1.915 -0.5449 -0.8903 -1.3266
 2296SOL     OW 8328   2.354   2.574   5.772  0.3154 -0.2327 -0.7553
 2296SOL    HW1 8329   2.308   2.601   5.852  0.5485 -2.0840  0.0520
 2296SOL    HW2 8330   2.436   2.624   5.774 -0.2053  0.6463 -0.4953
 2297SOL     OW 8331   7.587   0.453  11.443  0.0354 -0.0768  0.5853
 2297SOL    HW1 8332   7.547   0.537  11.422 -0.5076  0.0920  2.1492
 2297SOL    HW2 8333   7.534   0.389  11.397  0.2619  0.3992 -0.3702
 2298SOL     OW 8334   6.225   1.220   8.221  0.2330 -0.1646  0.1342
 2298SOL    HW1 8335   6.298   1.245   8.165  0.4764  0.1685  0.5923
 2298SOL    HW2 8336   6.235   1.126   8.233 -0.1709 -0.3548 -0.8682
 2299SOL     OW 8337   3.524   7.213   6.793 -0.3783  0.0684  0.4201
 2299SOL    HW1 8338   3.439   7.240   6.759 -0.9221  0.9172  2.3274
 2299SOL    HW2 8339   3.504   7.171   6.877  1.1219  0.9878  1.2867
 2300SOL     OW 8340   0.051   1.871   3.565  0.0536 -0.1316 -0.3233
 2300SOL    HW1 8341   0.146   1.862   3.561  0.1283 -0.2434  1.0070
 2300SOL    HW2 8342   0.034   1.901   3.655 -0.9903  2.4215 -1.2760
 2301SOL     OW 8343   3.092   0.203   5.863 -0.3630 -0.3380 -0.1182
 2301SOL    HW1 8344   3.050   0.268   5.918  0.2678  0.9724 -1.1267
 2301SOL    HW2 8345   3.041   0.123   5.875 -1.3031  0.4145  0.9515
 2302SOL     OW 8346   5.514   6.347  10.503  0.3818 -0.1814 -0.3911
 2302SOL    HW1 8347   5.520   6.319  10.594  0.5289  1.4604  0.1264
 2302SOL    HW2 8348   5.476   6.435  10.506  1.9848  0.6251 -1.7764
 2303SOL     OW 8349   7.189   5.935   5.378 -0.2329 -0.1251 -0.8559
 2303SOL    HW1 8350   7.279   5.968   5.369 -0.0279 -0.3299  0.3332
 2303SOL    HW2 8351   7.162   5.917   5.288  1.0548 -0.4380 -1.2042
 2304SOL     OW 8352   2.150   3.686   2.260 -0.5743  0.2451 -0.0393
 2304SOL    HW1 8353   2.135   3.591   2.266 -0.2918  0.2048  0.0573
 2304SOL    HW2 8354   2.241   3.693   2.230  1.1165  0.4843  4.3969
 2305SOL     OW 8355   6.237   6.608   8.656  0.4085 -0.4720  0.3234
 2305SOL    HW1 8356   6.199   6.544   8.596  1.5438 -1.2499  0.4119
 2305SOL    HW2 8357   6.196   6.588   8.741  0.2788 -0.6533  0.2182
 2306SOL     OW 8358   7.117   3.834   9.874  0.4259 -0.2613  0.1189
 2306SOL    HW1 8359   7.090   3.745   9.894  0.8271 -0.3099  0.4492
 2306SOL    HW2 8360   7.099   3.883   9.954  1.1005 -0.2472  0.2650
 2307SOL     OW 8361   5.441   4.267   9.400  0.0812  0.3969  0.2947
 2307SOL    HW1 8362   5.467   4.209   9.471 -1.2182  0.2446  0.6794
 2307SOL    HW2 8363   5.399   4.209   9.336  1.8112  0.4287 -0.9373
 2308SOL     OW 8364   1.465   2.917   1.705  0.0132  0.3805 -0.1394
 2308SOL    HW1 8365   1.412   2.839   1.724  0.7973 -0.2222 -0.3641
 2308SOL    HW2 8366   1.418   2.962   1.635  0.7741 -1.1866 -1.7333
 2309SOL     OW 8367   7.680   5.795  10.629  0.1212  0.1094  0.2521
 2309SOL    HW1 8368   7.586   5.777  10.622 -0.0250  0.5988  0.8646
 2309SOL    HW2 8369   7.721   5.708  10.627 -0.3056 -0.0814 -0.4966
 2310SOL     OW 8370   2.387   7.826   3.423 -0.6294 -0.0589  0.2598
 2310SOL    HW1 8371   2.406   7.757   3.359  0.5579 -2.0166  2.5704
 2310SOL    HW2 8372   2.291   7.823   3.432 -0.7472 -0.2377 -0.8677
 2311SOL     OW 8373   6.221   0.721  11.864 -0.8108  0.5419 -0.7347
 2311SOL    HW1 8374   6.197   0.633  11.893  1.6280  0.4098  1.1572
 2311SOL    HW2 8375   6.279   0.707  11.789 -0.6603  0.5430 -0.6194
 2312SOL     OW 8376   3.992   2.366   9.366  0.3492  0.4109 -0.0416
 2312SOL    HW1 8377   4.007   2.330   9.278 -0.9864  1.0258 -0.5465
 2312SOL    HW2 8378   3.918   2.426   9.355 -0.2226  0.0614  1.6244
 2313SOL     OW 8379   0.293   5.027   8.564  0.0269 -0.2086  0.2948
 2313SOL    HW1 8380   0.207   5.056   8.533 -0.0725  0.0117  0.7788
 2313SOL    HW2 8381   0.348   5.106   8.561 -0.1734 -0.0129  1.3532
 2314SOL     OW 8382   5.039   6.112  10.265 -0.5536 -0.8299 -0.5258
 2314SOL    HW1 8383   5.129   6.115  10.235 -0.8172 -0.3277 -1.3065
 2314SOL    HW2 8384   5.021   6.201  10.296 -0.9631 -0.7669 -0.9328
 2315SOL     OW 8385   3.134   1.014   8.387 -0.4364  0.9398  0.4016
 2315SOL    HW1 8386   3.064   0.978   8.332  1.9600 -1.0554 -1.5900
 2315SOL    HW2 8387   3.194   0.940   8.399  2.0003  2.8914  0.8751
 2316SOL     OW 8388   5.234   5.128   3.784  0.1402 -0.9062 -0.2586
 2316SOL    HW1 8389   5.290   5.195   3.745  0.0447 -1.2288 -0.9695
 2316SOL    HW2 8390   5.153   5.132   3.734  0.0246 -1.3525 -0.1112
 2317SOL     OW 8391   1.695   5.990   1.362  0.5714  0.2041  0.1383
 2317SOL    HW1 8392   1.709   5.978   1.456 -0.1217  1.6914  0.4676
 2317SOL    HW2 8393   1.664   5.906   1.331 -0.5560  0.0756  1.5199
 2318SOL     OW 8394   3.227   4.388   3.540  0.1873 -0.1683  0.5332
 2318SOL    HW1 8395   3.144   4.365   3.581  1.2509 -1.8477  1.8337
 2318SOL    HW2 8396   3.279   4.428   3.610  0.7066  0.3461 -0.1233
 2319SOL     OW 8397   0.681   4.138  10.049 -0.2606 -0.2406  0.1335
 2319SOL    HW1 8398   0.625   4.176   9.981  1.2767 -1.2532 -1.8357
 2319SOL    HW2 8399   0.703   4.051  10.015  1.0569 -0.5589  1.6798
 2320SOL     OW 8400   1.777   5.317   9.087 -0.2599 -0.2071 -0.4136
 2320SOL    HW1 8401   1.751   5.383   9.152 -0.3580 -1.2648  0.6639
 2320SOL    HW2 8402   1.747   5.234   9.125  0.8303 -0.9851 -1.2188
 2321SOL     OW 8403   5.206   1.066   1.765 -0.1144 -0.7101  0.0317
 2321SOL    HW1 8404   5.157   1.145   1.739 -0.1680 -0.6276  0.3835
 2321SOL    HW2 8405   5.247   1.037   1.684  0.4779  0.0826  0.0370
 2322SOL     OW 8406   2.521   4.507   0.816 -0.1986  0.4353  0.4339
 2322SOL    HW1 8407   2.503   4.416   0.839 -2.4187  0.3239 -1.4121
 2322SOL    HW2 8408   2.549   4.547   0.899  0.4773 -1.7999  1.3657
 2323SOL     OW 8409   6.218   6.176   4.086  0.0942  0.7203 -0.2237
 2323SOL    HW1 8410   6.293   6.123   4.059  0.2073 -0.2402  1.7642
 2323SOL    HW2 8411   6.232   6.192   4.179 -2.1480  0.5165  0.2209
 2324SOL     OW 8412   7.752   0.013   2.135  0.0964 -0.6366 -0.3361
 2324SOL    HW1 8413   7.752   0.013   2.039  0.9598 -0.3543 -0.3430
 2324SOL    HW2 8414   7.843   0.029   2.159 -0.0547 -1.0315  0.5362
 2325SOL     OW 8415   4.692   6.943   0.077  0.5911  0.2429  0.3331
 2325SOL    HW1 8416   4.702   6.860   0.124 -1.4586 -1.4404 -1.9740
 2325SOL    HW2 8417   4.743   6.932  -0.003  0.1876  1.1699 -0.0602
 2326SOL     OW 8418   0.085   0.888   4.891  0.3622 -0.0219  0.1963
 2326SOL    HW1 8419   0.076   0.797   4.861  0.1806  0.2018 -0.4417
 2326SOL    HW2 8420   0.007   0.904   4.943 -0.0021  0.0293 -0.3691
 2327SOL     OW 8421   5.377   6.995  12.043 -0.2214  0.3682 -0.1069
 2327SOL    HW1 8422   5.388   6.978  12.137  0.9031 -0.9587 -0.4589
 2327SOL    HW2 8423   5.404   7.087  12.033  2.4075 -0.2645  0.4682
 2328SOL     OW 8424   3.406   2.243   3.338 -0.2764 -0.5781  0.4083
 2328SOL    HW1 8425   3.477   2.187   3.307  0.0635 -0.7875  1.5108
 2328SOL    HW2 8426   3.327   2.191   3.324 -0.0707 -0.8941  0.4004
 2329SOL     OW 8427   7.969   5.893  10.574  1.2758  0.2883  0.1368
 2329SOL    HW1 8428   7.901   5.846  10.622  1.9791 -0.1705  0.7131
 2329SOL    HW2 8429   7.959   5.865  10.483  1.7299 -1.0842  0.4720
 2330SOL     OW 8430   0.082   7.295   1.782 -0.3699  0.4860  0.4851
 2330SOL    HW1 8431   0.111   7.294   1.874 -0.3635  1.8174  0.5243
 2330SOL    HW2 8432   0.060   7.204   1.763 -0.4284  0.1895  1.8279
 2331SOL     OW 8433   3.526   6.875   4.324 -0.5596  0.1080 -0.1186
 2331SOL    HW1 8434   3.515   6.811   4.395 -0.6325 -0.9636 -1.0679
 2331SOL    HW2 8435   3.443   6.872   4.276 -0.1629  0.1140 -0.8186
 2332SOL     OW 8436   0.135   7.458  10.439  0.0059  0.2148  0.3723
 2332SOL    HW1 8437   0.073   7.479  10.370 -0.3229 -0.5884  0.4012
 2332SOL    HW2 8438   0.108   7.371  10.470  1.6035 -0.5066 -0.1319
 2333SOL     OW 8439   2.974   1.534  10.246 -0.1691 -0.3025  0.2586
 2333SOL    HW1 8440   3.044   1.545  10.181  1.9742 -0.4799  2.4099
 2333SOL    HW2 8441   2.909   1.480  10.201  1.3301 -0.6563 -1.6483
 2334SOL     OW 8442   5.398   3.322   8.648 -0.3198 -0.0654 -0.4456
 2334SOL    HW1 8443   5.329   3.259   8.671 -0.9885  0.5718 -0.6774
 2334SOL    HW2 8444   5.479   3.274   8.664 -0.8079 -0.8170 -0.1210
 2335SOL     OW 8445   4.535   4.106  11.571  0.1483  0.3566 -0.1580
 2335SOL    HW1 8446   4.459   4.114  11.627  0.0497 -0.3787 -0.1729
 2335SOL    HW2 8447   4.542   4.012  11.553  1.3166  0.3587  0.2129
 2336SOL     OW 8448   3.822   5.075   8.105  0.0701 -0.3242 -0.1274
 2336SOL    HW1 8449   3.770   5.133   8.050 -0.3637 -0.9667 -0.4058
 2336SOL    HW2 8450   3.759   5.012   8.140  0.3802 -0.0914  0.9052
 2337SOL     OW 8451   3.945   3.231  10.353 -0.2697  0.0449  0.2780
 2337SOL    HW1 8452   4.039   3.249  10.359 -0.2338 -0.1744  0.3550
 2337SOL    HW2 8453   3.939   3.139  10.329 -0.4852 -0.5428  2.4350
 2338SOL     OW 8454   4.369   7.494   2.025  0.0886  0.1542 -0.3199
 2338SOL    HW1 8455   4.284   7.523   1.991 -0.1220 -1.2222 -1.0252
 2338SOL    HW2 8456   4.351   7.467   2.115 -0.8695 -2.6823 -1.2594
 2339SOL     OW 8457   2.134   6.384   2.328 -0.7619 -0.1309  0.4973
 2339SOL    HW1 8458   2.213   6.436   2.312  0.1308 -1.3117  0.9595
 2339SOL    HW2 8459   2.134   6.369   2.423 -2.4252  1.2043  0.7575
 2340SOL     OW 8460   6.255   3.434   8.178 -0.5148  0.0823  0.2803
 2340SOL    HW1 8461   6.264   3.430   8.083  0.1550  1.9793  0.2300
 2340SOL    HW2 8462   6.245   3.527   8.197  1.3779 -0.0430  2.2221
 2341SOL     OW 8463   2.192   1.249  11.495 -0.1786  0.0853 -0.0323
 2341SOL    HW1 8464   2.202   1.335  11.535 -1.8747  0.3433 -0.1188
 2341SOL    HW2 8465   2.276   1.205  11.512  0.0525  1.0783  1.6309
 2342SOL     OW 8466   4.241   7.356   3.535 -0.0579  0.0768 -0.4541
 2342SOL    HW1 8467   4.292   7.326   3.610  0.1568 -0.2836 -0.7443
 2342SOL    HW2 8468   4.241   7.452   3.543  0.9021  0.0986 -0.6021
 2343SOL     OW 8469   5.101   6.530   3.841 -0.4766 -0.1947 -0.0864
 2343SOL    HW1 8470   5.105   6.581   3.921  0.0353  1.1356 -0.9227
 2343SOL    HW2 8471   5.046   6.582   3.782 -0.6154 -1.0123 -0.6958
 2344SOL     OW 8472   2.311   6.987   4.709 -0.4258  0.3378 -0.2663
 2344SOL    HW1 8473   2.237   6.938   4.671  0.4730 -1.8238  0.5888
 2344SOL    HW2 8474   2.317   6.955   4.799  2.1640 -0.3776 -0.6078
 2345SOL     OW 8475   2.713   4.098   4.540  0.3263 -0.5209 -0.0581
 2345SOL    HW1 8476   2.724   4.004   4.554  1.0514 -0.3874  0.2935
 2345SOL    HW2 8477   2.793   4.125   4.494  1.5912  0.4666  2.5366
 2346SOL     OW 8478   4.588   0.702   2.559 -0.1200  0.2192 -0.1496
 2346SOL    HW1 8479   4.609   0.714   2.467 -0.5295  1.5450 -0.0938
 2346SOL    HW2 8480   4.556   0.612   2.565  0.6259 -0.1264 -1.1495
 2347SOL     OW 8481   7.112   7.009  10.194  0.3151  0.8324 -0.0881
 2347SOL    HW1 8482   7.047   6.953  10.151 -1.3880  1.0694  1.9533
 2347SOL    HW2 8483   7.064   7.090  10.212  1.7055  1.6538  0.0333
 2348SOL     OW 8484   7.827   1.973   7.759 -0.1441 -0.2491 -0.0245
 2348SOL    HW1 8485   7.917   1.955   7.786 -0.1314 -0.0645  0.0531
 2348SOL    HW2 8486   7.833   2.051   7.705 -0.2886 -0.1080  0.1648
 2349SOL     OW 8487   2.765   6.066   6.318  0.0341 -0.2711  0.2080
 2349SOL    HW1 8488   2.804   6.030   6.398  1.4041 -0.0525 -0.3343
 2349SOL    HW2 8489   2.830   6.049   6.250  0.2232  2.1476 -0.3008
 2350SOL     OW 8490   0.135   2.749  11.797  0.5094 -0.1709 -0.4177
 2350SOL    HW1 8491   0.111   2.657  11.785  1.1314 -0.7879  2.3825
 2350SOL    HW2 8492   0.056   2.791  11.830  0.5669  0.0036 -0.5011
 2351SOL     OW 8493   5.518   4.341   5.756  0.3060  0.1799  0.1909
 2351SOL    HW1 8494   5.562   4.424   5.736  0.4232  0.6041  2.0916
 2351SOL    HW2 8495   5.578   4.274   5.725 -0.1505  0.7424 -2.1509
 2352SOL     OW 8496   0.228   4.403   9.206 -0.1818  0.4415  0.4257
 2352SOL    HW1 8497   0.273   4.436   9.129  1.2262 -0.7252  0.7090
 2352SOL    HW2 8498   0.285   4.424   9.280 -0.3906 -0.4721  0.8759
 2353SOL     OW 8499   3.219   4.996   7.552  0.6668  0.3676  0.4277
 2353SOL    HW1 8500   3.268   4.914   7.543 -1.1445 -0.8753  1.4442
 2353SOL    HW2 8501   3.271   5.048   7.615  0.0924 -1.4623  2.5221
 2354SOL     OW 8502   5.907   3.839  11.230 -0.4768 -0.0077  0.3246
 2354SOL    HW1 8503   5.875   3.898  11.297  1.1501 -0.5237  1.6240
 2354SOL    HW2 8504   5.925   3.895  11.154 -0.2946  0.9253  1.0477
 2355SOL     OW 8505   3.694   0.365   4.889  0.3559  0.1289  0.8605
 2355SOL    HW1 8506   3.675   0.301   4.957  1.3480 -1.4433 -0.2799
 2355SOL    HW2 8507   3.620   0.359   4.829  0.4080  0.1108  0.7978
 2356SOL     OW 8508   2.602   0.011   8.903  0.0694  0.0470  0.1236
 2356SOL    HW1 8509   2.664   0.083   8.919 -1.4354  1.8164 -1.5667
 2356SOL    HW2 8510   2.658  -0.065   8.887  1.7884  1.2690  0.0370
 2357SOL     OW 8511   6.271   2.106   7.376  0.4220 -0.1434 -0.4958
 2357SOL    HW1 8512   6.211   2.063   7.315 -1.3911  2.4029 -0.6892
 2357SOL    HW2 8513   6.326   2.162   7.320  1.6203 -0.9144 -0.1232
 2358SOL     OW 8514   5.452   0.151   9.483  0.0722  0.3947  0.1862
 2358SOL    HW1 8515   5.522   0.198   9.436 -0.0810 -1.6232 -2.2620
 2358SOL    HW2 8516   5.373   0.169   9.432 -0.7055  0.4617  1.3821
 2359SOL     OW 8517   4.587   7.376   5.996  0.0599 -0.2404  0.6051
 2359SOL    HW1 8518   4.501   7.371   6.036 -0.5412  0.0125 -0.6111
 2359SOL    HW2 8519   4.623   7.288   6.003 -1.4326 -1.0749 -1.2849
 2360SOL     OW 8520   3.010   7.643   1.440  0.1244  0.7509  0.0517
 2360SOL    HW1 8521   3.065   7.641   1.518 -0.0696 -0.7668  0.1729
 2360SOL    HW2 8522   3.060   7.594   1.374 -0.3433  0.7824 -0.3347
 2361SOL     OW 8523   2.376   5.676   9.796  0.3042  0.7755  0.0034
 2361SOL    HW1 8524   2.427   5.663   9.716 -0.1244 -0.6605 -0.0662
 2361SOL    HW2 8525   2.415   5.615   9.859 -1.2892 -0.3552 -0.0507
 2362SOL     OW 8526   0.183   7.251  11.865 -0.1464 -0.4638  0.3642
 2362SOL    HW1 8527   0.266   7.289  11.893  0.2729 -1.2851  0.2601
 2362SOL    HW2 8528   0.195   7.232  11.772 -0.4822 -0.5198  0.3291
 2363SOL     OW 8529   2.993   0.150   8.786  0.2745  0.4633  0.1586
 2363SOL    HW1 8530   3.037   0.215   8.732  0.9791  0.0877  0.2737
 2363SOL    HW2 8531   3.063   0.093   8.818  0.1657  1.8327  3.0989
 2364SOL     OW 8532   4.951   3.566   0.059 -0.1559 -0.8068  0.6144
 2364SOL    HW1 8533   4.868   3.537   0.096 -0.6516  0.4984  0.5620
 2364SOL    HW2 8534   5.005   3.487   0.058 -1.6714 -1.8708 -0.1830
 2365SOL     OW 8535   4.393   6.218   1.627  0.2743  0.0039 -0.0784
 2365SOL    HW1 8536   4.423   6.294   1.677  0.1917  1.0171 -1.4853
 2365SOL    HW2 8537   4.312   6.248   1.585  0.3426 -0.7996 -0.8190
 2366SOL     OW 8538   6.277   1.308  11.739  0.1808 -0.3852  0.4583
 2366SOL    HW1 8539   6.360   1.339  11.701  0.0412  0.2106  0.6271
 2366SOL    HW2 8540   6.298   1.292  11.831  0.3252 -1.0904  0.3089
 2367SOL     OW 8541   0.016   2.465   1.220 -0.3573  0.5639 -0.2213
 2367SOL    HW1 8542   0.084   2.514   1.266  0.5910  0.3474 -1.3479
 2367SOL    HW2 8543   0.054   2.378   1.206 -1.4047 -0.0030  0.3361
 2368SOL     OW 8544   2.026   7.965   0.614 -0.1936 -0.2746  0.4834
 2368SOL    HW1 8545   2.024   8.054   0.581  1.4743 -0.1362  0.6261
 2368SOL    HW2 8546   2.054   7.912   0.539 -3.7238 -1.1444 -0.3706
 2369SOL     OW 8547   2.535   3.873   0.972 -0.3835 -0.2259  1.0436
 2369SOL    HW1 8548   2.623   3.859   0.937 -0.4740 -1.3216  1.2114
 2369SOL    HW2 8549   2.509   3.959   0.940  0.6266 -0.0324  0.7308
 2370SOL     OW 8550   0.187   4.875   9.820 -0.0007  0.1056 -0.6717
 2370SOL    HW1 8551   0.119   4.811   9.798 -0.5597  0.5078 -0.1318
 2370SOL    HW2 8552   0.214   4.851   9.909 -0.0452  0.4725 -0.5588
 2371SOL     OW 8553   7.217   7.770   9.335 -0.0772 -0.7181 -0.1127
 2371SOL    HW1 8554   7.296   7.718   9.324 -1.3745 -2.6007 -1.0696
 2371SOL    HW2 8555   7.152   7.708   9.369 -1.0421  0.8901  1.1358
 2372SOL     OW 8556   3.602   2.956   2.956  0.2202  0.1282 -0.3441
 2372SOL    HW1 8557   3.576   2.990   2.871 -0.6634 -0.1419 -0.1831
 2372SOL    HW2 8558   3.528   2.974   3.014 -0.1213 -1.6727 -0.1518
 2373SOL     OW 8559   2.179   3.785   9.704 -0.3459 -0.5814  0.4010
 2373SOL    HW1 8560   2.117   3.767   9.634 -1.2894  2.3409  0.3311
 2373SOL    HW2 8561   2.252   3.831   9.662  0.1340 -0.7393  1.0256
 2374SOL     OW 8562   6.260   1.177  11.483  0.1490  0.0725 -0.5498
 2374SOL    HW1 8563   6.212   1.253  11.449 -1.3869 -0.9755 -0.8283
 2374SOL    HW2 8564   6.278   1.199  11.574  0.5063  1.1339 -0.8601
 2375SOL     OW 8565   6.662   0.383  10.564 -0.5618  0.2305  0.2313
 2375SOL    HW1 8566   6.623   0.436  10.494  0.9310 -0.0304 -0.8425
 2375SOL    HW2 8567   6.665   0.295  10.528  1.7095  0.3763 -0.0801
 2376SOL     OW 8568   4.409   0.395   9.012 -0.5463 -0.4234 -0.2785
 2376SOL    HW1 8569   4.374   0.469   9.062  0.7016 -0.2363  0.3644
 2376SOL    HW2 8570   4.439   0.434   8.930  1.9883  0.2128  0.8737
 2377SOL     OW 8571   3.128   0.465   8.101  0.3259 -0.0508  0.5883
 2377SOL    HW1 8572   3.125   0.547   8.150  0.0221  1.1050 -1.3024
 2377SOL    HW2 8573   3.042   0.425   8.115 -0.6385  1.4165 -0.8469
 2378SOL     OW 8574   3.358   4.356   6.675  0.0475 -0.0129 -0.2233
 2378SOL    HW1 8575   3.306   4.293   6.725  0.4780 -0.1122  0.1096
 2378SOL    HW2 8576   3.350   4.327   6.584 -0.5305  0.0165 -0.1858
 2379SOL     OW 8577   4.898   3.075   9.774 -0.2171  0.2555  0.2433
 2379SOL    HW1 8578   4.981   3.032   9.793 -0.3198 -0.4036 -0.6974
 2379SOL    HW2 8579   4.917   3.169   9.782  0.3359  0.0805  1.0650
 2380SOL     OW 8580   0.166   1.254   5.231  0.5515 -0.6575  0.5414
 2380SOL    HW1 8581   0.074   1.255   5.257  0.4983 -1.2673  0.4003
 2380SOL    HW2 8582   0.168   1.304   5.150  0.2467 -1.0868  0.2616
 2381SOL     OW 8583   0.865   3.042   0.946 -0.0751  0.1776 -0.0527
 2381SOL    HW1 8584   0.786   3.035   1.000  0.7921  1.6603  1.5026
 2381SOL    HW2 8585   0.833   3.072   0.861 -1.1713  1.2806  0.7040
 2382SOL     OW 8586   1.516   5.630  12.275 -0.2854 -0.1060 -0.4597
 2382SOL    HW1 8587   1.498   5.637  12.369  0.2640 -1.8898 -0.1725
 2382SOL    HW2 8588   1.443   5.676  12.233 -0.5732  0.6661  0.8239
 2383SOL     OW 8589   3.383   1.556   5.699 -0.1538 -0.4590 -0.3648
 2383SOL    HW1 8590   3.379   1.652   5.701  1.3065 -0.3894  0.4491
 2383SOL    HW2 8591   3.295   1.529   5.671 -1.2616  1.0402  1.4161
 2384SOL     OW 8592   1.972   4.554   2.923 -0.1460  0.2828 -0.0860
 2384SOL    HW1 8593   1.895   4.570   2.977  0.1320 -0.2766  0.4843
 2384SOL    HW2 8594   2.007   4.471   2.954 -0.5207 -0.5462 -1.7633
 2385SOL     OW 8595   6.900   3.144   1.695  0.2784 -0.1523  0.5777
 2385SOL    HW1 8596   6.941   3.158   1.780 -0.7532  1.2912  0.8744
 2385SOL    HW2 8597   6.913   3.227   1.648 -0.1602 -0.5346 -0.2384
 2386SOL     OW 8598   4.635   0.566   8.513 -0.2212 -0.2242  0.3190
 2386SOL    HW1 8599   4.717   0.613   8.499 -1.2395  1.2875 -0.9749
 2386SOL    HW2 8600   4.659   0.474   8.513  1.3391  0.1396 -1.1158
 2387SOL     OW 8601   6.981   7.200   8.655  0.4618 -0.2568  0.4628
 2387SOL    HW1 8602   7.002   7.122   8.604 -1.9984 -0.7047 -0.0192
 2387SOL    HW2 8603   7.002   7.177   8.745  0.6588 -1.1282  0.1979
 2388SOL     OW 8604   1.698   2.730   8.733 -0.3540 -1.0188 -1.0073
 2388SOL    HW1 8605   1.762   2.690   8.674  1.9534  0.1883  0.5519
 2388SOL    HW2 8606   1.718   2.823   8.731 -0.9864 -0.8033  0.7899
 2389SOL     OW 8607   0.063   2.959  10.272  0.5251 -0.3408 -0.0256
 2389SOL    HW1 8608   0.109   3.040  10.248  0.4762 -0.8254 -1.9268
 2389SOL    HW2 8609  -0.027   2.985  10.287  0.4102 -0.0864 -1.0956
 2390SOL     OW 8610   5.069   1.902   0.093  0.2434 -0.1471 -0.2500
 2390SOL    HW1 8611   5.128   1.838   0.133  0.4326 -0.4960 -1.0520
 2390SOL    HW2 8612   5.035   1.857   0.015 -0.5465  0.3034 -0.1739
 2391SOL     OW 8613   6.054   4.854   4.444 -0.0352  0.0078 -0.2183
 2391SOL    HW1 8614   6.046   4.913   4.519  0.7056 -0.3818  0.1784
 2391SOL    HW2 8615   6.077   4.770   4.483  0.0069 -0.2803 -0.8607
 2392SOL     OW 8616   7.434   0.941  11.221  0.5017 -0.2991  0.4778
 2392SOL    HW1 8617   7.401   1.017  11.270  0.0046 -0.9035  1.0826
 2392SOL    HW2 8618   7.498   0.979  11.160 -0.7176  0.7871 -0.1745
 2393SOL     OW 8619   1.863   1.939   6.160 -0.1603 -0.3310 -0.1910
 2393SOL    HW1 8620   1.886   1.866   6.219 -0.7080 -0.7512 -0.4881
 2393SOL    HW2 8621   1.769   1.950   6.172 -0.3660 -0.7363 -1.3315
 2394SOL     OW 8622   5.008   0.436   8.410  0.6363  0.6732 -0.0832
 2394SOL    HW1 8623   5.015   0.508   8.473 -1.0515  0.9657 -0.1911
 2394SOL    HW2 8624   4.917   0.406   8.418  0.6956  0.0122 -1.6149
 2395SOL     OW 8625   1.922   0.732   6.244 -0.2927  0.3634  0.3986
 2395SOL    HW1 8626   1.934   0.816   6.200 -0.4684 -0.2415 -0.8505
 2395SOL    HW2 8627   1.834   0.705   6.218  0.0345 -0.5352  0.1958
 2396SOL     OW 8628   2.656   3.192  11.795 -0.3540 -0.7364 -0.2327
 2396SOL    HW1 8629   2.723   3.257  11.817 -0.1144 -0.9911 -0.1982
 2396SOL    HW2 8630   2.573   3.240  11.799 -0.0897 -0.1250 -1.3899
 2397SOL     OW 8631   6.699   4.991   5.188  0.2260  0.0830 -0.6230
 2397SOL    HW1 8632   6.764   5.019   5.253  1.5384 -2.6680 -0.6095
 2397SOL    HW2 8633   6.615   5.018   5.224  1.0312 -0.1266  1.5522
 2398SOL     OW 8634   3.824   4.147  11.118  0.0968 -0.2105 -0.9626
 2398SOL    HW1 8635   3.862   4.077  11.171 -0.8439  0.5374  0.8104
 2398SOL    HW2 8636   3.892   4.213  11.113  0.5698 -0.7345 -1.6313
 2399SOL     OW 8637   7.423   2.706  11.143 -0.0842 -0.6105 -0.1781
 2399SOL    HW1 8638   7.420   2.678  11.052 -0.1692  1.3960 -0.8457
 2399SOL    HW2 8639   7.412   2.801  11.139  2.2492 -0.1671  1.7481
 2400SOL     OW 8640   5.846   0.038   3.634  0.5700 -0.0689  0.3754
 2400SOL    HW1 8641   5.816  -0.007   3.554 -2.0313  0.5054  0.9538
 2400SOL    HW2 8642   5.886   0.119   3.602 -0.1331 -0.0026 -0.3804
 2401SOL     OW 8643   4.537   6.350   0.415 -0.2094  0.1731 -0.0512
 2401SOL    HW1 8644   4.624   6.311   0.423  0.2807  1.2705  0.2156
 2401SOL    HW2 8645   4.515   6.341   0.322  0.5309  0.5649 -0.2747
 2402SOL     OW 8646   5.642   5.308  11.403 -0.1838 -0.2922 -0.0055
 2402SOL    HW1 8647   5.688   5.268  11.477  0.5044 -0.0333 -0.2812
 2402SOL    HW2 8648   5.680   5.265  11.326  0.0446  0.3713 -0.2651
 2403SOL     OW 8649   5.429   1.054   0.333 -0.2660  0.3184 -1.2399
 2403SOL    HW1 8650   5.341   1.041   0.299 -1.7537 -0.6012  2.5384
 2403SOL    HW2 8651   5.460   0.966   0.355 -0.6435  0.9418  2.2932
 2404SOL     OW 8652   1.453   7.786   3.156  0.1621 -0.7549 -0.0011
 2404SOL    HW1 8653   1.512   7.797   3.230 -0.4312  1.2672  0.2092
 2404SOL    HW2 8654   1.511   7.764   3.082  1.2954  1.6968  0.0729
 2405SOL     OW 8655   0.775   6.319   5.363  0.1010 -0.1302  0.1627
 2405SOL    HW1 8656   0.797   6.412   5.360  1.1349 -0.2041  2.8829
 2405SOL    HW2 8657   0.859   6.274   5.350  0.0083 -0.6182  1.1778
 2406SOL     OW 8658   3.088   4.521   2.662  0.2985 -1.0303  0.0043
 2406SOL    HW1 8659   3.166   4.529   2.717  0.4009  0.1403 -0.2776
 2406SOL    HW2 8660   3.016   4.508   2.723  0.4561 -0.0718  0.4140
 2407SOL     OW 8661   1.092   5.784  12.430 -0.8598 -0.0301  0.5250
 2407SOL    HW1 8662   1.032   5.727  12.477 -0.1647 -0.5658  0.7684
 2407SOL    HW2 8663   1.138   5.726  12.369 -0.3670  0.3157  0.5591
 2408SOL     OW 8664   1.225   2.646   0.607  0.4620 -0.3552 -0.1408
 2408SOL    HW1 8665   1.135   2.633   0.638 -0.9031  3.5926 -1.8171
 2408SOL    HW2 8666   1.226   2.613   0.518  0.3021  0.5392 -0.4885
 2409SOL     OW 8667   4.062   2.920  11.789 -0.0317  0.0474 -0.2665
 2409SOL    HW1 8668   4.115   2.990  11.827  0.1991  0.3937 -1.1896
 2409SOL    HW2 8669   3.979   2.962  11.766  1.3689  1.0860 -4.2972
 2410SOL     OW 8670   6.402   4.290   3.041  0.1505  0.1155 -0.0820
 2410SOL    HW1 8671   6.392   4.204   3.001 -1.2306 -0.4897  1.4552
 2410SOL    HW2 8672   6.418   4.272   3.133 -1.3798  1.5010  0.5014
 2411SOL     OW 8673   3.842   5.925   1.751 -0.0035 -0.1258 -0.0866
 2411SOL    HW1 8674   3.801   5.886   1.673  1.4495  1.0128 -1.4808
 2411SOL    HW2 8675   3.776   5.986   1.784 -1.2153 -1.6654  0.5030
 2412SOL     OW 8676   7.427   7.397   7.791 -0.2025 -0.3104 -0.1852
 2412SOL    HW1 8677   7.381   7.435   7.716 -0.4945  1.9034  1.0180
 2412SOL    HW2 8678   7.402   7.453   7.864  2.6101 -0.4045  0.9547
 2413SOL     OW 8679   6.949   2.837   3.122  0.3311  0.5129 -0.1890
 2413SOL    HW1 8680   6.978   2.835   3.213  0.8515  1.4165 -0.3202
 2413SOL    HW2 8681   6.955   2.746   3.093  0.2378  0.2296  0.6499
 2414SOL     OW 8682   2.014   2.373   4.188  0.4512  0.0874 -0.0654
 2414SOL    HW1 8683   1.957   2.310   4.144  0.2530  0.3658 -0.2115
 2414SOL    HW2 8684   2.035   2.332   4.272  0.5732 -0.3056 -0.2867
 2415SOL     OW 8685   7.757   6.527   7.605  0.3736 -0.5944  0.5916
 2415SOL    HW1 8686   7.711   6.514   7.688  0.2415  0.3106  0.6714
 2415SOL    HW2 8687   7.799   6.443   7.587 -0.4032 -1.1002  1.0804
 2416SOL     OW 8688   4.656   2.166   8.248  0.2866  0.1565  0.8518
 2416SOL    HW1 8689   4.626   2.228   8.314  0.8102 -0.7691  1.9931
 2416SOL    HW2 8690   4.589   2.098   8.247  0.4829 -0.0357  0.7122
 2417SOL     OW 8691   2.095   5.146  10.391 -0.1790 -0.4590 -0.1775
 2417SOL    HW1 8692   2.059   5.071  10.345 -0.7077 -0.4419  0.2082
 2417SOL    HW2 8693   2.098   5.120  10.483 -0.3924 -0.0037 -0.0342
 2418SOL     OW 8694   3.622   0.262   9.611 -0.1264  0.3973 -0.0039
 2418SOL    HW1 8695   3.698   0.239   9.557 -0.0252 -1.0947  0.7192
 2418SOL    HW2 8696   3.626   0.357   9.619  0.4610  0.5432 -1.7184
 2419SOL     OW 8697   5.585   3.711   3.185 -0.1026  0.7736  0.5006
 2419SOL    HW1 8698   5.653   3.649   3.209 -0.3603  0.4377  0.3730
 2419SOL    HW2 8699   5.529   3.715   3.262 -1.2854 -0.7831 -0.2183
 2420SOL     OW 8700   5.777   7.390   8.452 -0.0340  0.5387 -0.0105
 2420SOL    HW1 8701   5.702   7.389   8.392  0.1119  0.0040 -0.1963
 2420SOL    HW2 8702   5.754   7.327   8.520 -0.3850  1.4577  0.7504
 2421SOL     OW 8703   1.202   7.532   1.437  0.3254 -0.1709  0.0413
 2421SOL    HW1 8704   1.177   7.624   1.433 -0.3168 -0.3568 -0.3088
 2421SOL    HW2 8705   1.119   7.484   1.444  0.6425 -0.7321  0.0599
 2422SOL     OW 8706   3.808   6.396   9.520  0.1420  0.2825 -0.1505
 2422SOL    HW1 8707   3.823   6.427   9.431 -0.8692 -0.1236 -0.4759
 2422SOL    HW2 8708   3.728   6.343   9.514  2.6858 -4.0964 -0.0608
 2423SOL     OW 8709   2.527   0.132   4.677  0.4529  0.5529 -0.0665
 2423SOL    HW1 8710   2.465   0.205   4.669  0.5739  0.6358 -0.2709
 2423SOL    HW2 8711   2.473   0.053   4.671  0.2492  0.6277  0.7614
 2424SOL     OW 8712   0.345   5.392   1.474  0.1619 -0.4700 -0.2328
 2424SOL    HW1 8713   0.341   5.424   1.564 -2.0449 -2.9067  0.6792
 2424SOL    HW2 8714   0.410   5.321   1.478 -1.4039 -1.9528  0.0254
 2425SOL     OW 8715   0.029   4.004   3.855 -0.1163 -1.1169  0.4318
 2425SOL    HW1 8716  -0.045   4.050   3.893 -0.4058 -0.7522 -0.5368
 2425SOL    HW2 8717   0.081   3.975   3.930 -0.0289  0.6204  1.0831
 2426SOL     OW 8718   0.122   0.790   7.336  0.1954  0.2178  0.1267
 2426SOL    HW1 8719   0.108   0.809   7.243 -0.8137  0.4039  0.2975
 2426SOL    HW2 8720   0.071   0.710   7.351 -1.0204  1.0878  0.8656
 2427SOL     OW 8721   0.994   2.604   3.206 -0.3402  0.3749  0.0465
 2427SOL    HW1 8722   0.947   2.635   3.128  0.7847  0.7975 -0.4848
 2427SOL    HW2 8723   1.017   2.684   3.254 -0.7255  0.1338  0.6448
 2428SOL     OW 8724   6.590   6.016   7.907  0.8168 -0.0685 -0.1618
 2428SOL    HW1 8725   6.501   6.047   7.887  0.7516  0.5164  0.9481
 2428SOL    HW2 8726   6.648   6.074   7.857  0.5994 -0.1125 -0.4701
 2429SOL     OW 8727   1.447   5.022   6.794  0.3887 -0.1851  0.0399
 2429SOL    HW1 8728   1.442   4.926   6.801  0.1900 -0.3563 -1.9145
 2429SOL    HW2 8729   1.517   5.037   6.731 -0.1377  0.9286 -0.2927
 2430SOL     OW 8730   2.083   7.067  10.807 -0.7010 -0.0206 -0.3557
 2430SOL    HW1 8731   2.097   6.974  10.788 -0.1610  0.0541 -0.3327
 2430SOL    HW2 8732   2.047   7.104  10.726  0.4314  0.0450 -0.8445
 2431SOL     OW 8733   2.262   7.338   0.258  0.1711  0.1696  0.5256
 2431SOL    HW1 8734   2.334   7.400   0.253 -0.0267  0.7863  3.6310
 2431SOL    HW2 8735   2.286   7.279   0.329 -2.4999  0.6259  1.9320
 2432SOL     OW 8736   2.100   0.667  11.189  0.3534  0.8203 -0.5189
 2432SOL    HW1 8737   2.039   0.594  11.179  1.9274 -0.6783  0.2520
 2432SOL    HW2 8738   2.117   0.672  11.283  2.4729  0.2300 -0.8149
 2433SOL     OW 8739   1.153   3.566   1.904  0.4140 -0.1643  0.4177
 2433SOL    HW1 8740   1.182   3.558   1.996  0.6177  1.5077  0.5343
 2433SOL    HW2 8741   1.234   3.557   1.853  0.1330 -2.4722  0.2567
 2434SOL     OW 8742   6.692   1.912   1.468 -0.2613 -0.0315  0.0277
 2434SOL    HW1 8743   6.667   1.941   1.380  1.9378 -0.5963 -0.8617
 2434SOL    HW2 8744   6.664   1.983   1.526 -0.1326  1.1903 -1.3603
 2435SOL     OW 8745   5.093   1.167   3.758 -0.9340  0.0775 -0.2883
 2435SOL    HW1 8746   5.117   1.133   3.845  0.0329 -0.2967 -0.6835
 2435SOL    HW2 8747   5.007   1.130   3.741 -0.7686 -0.5360  0.1670
 2436SOL     OW 8748   1.703   0.672  10.123 -0.3295 -0.2408 -0.0728
 2436SOL    HW1 8749   1.633   0.734  10.143  0.7517  0.7765  0.7046
 2436SOL    HW2 8750   1.784   0.721  10.137  0.5602 -1.3402 -1.0781
 2437SOL     OW 8751   3.754   0.076   3.866 -0.1370  0.6103 -0.3205
 2437SOL    HW1 8752   3.715  -0.011   3.876  0.8367  0.2056  0.0701
 2437SOL    HW2 8753   3.788   0.076   3.777  1.2227  0.0010  0.1734
 2438SOL     OW 8754   0.100   7.577  10.833 -0.2185  0.2779 -0.6865
 2438SOL    HW1 8755   0.036   7.543  10.896  0.0932  0.6384 -0.1739
 2438SOL    HW2 8756   0.176   7.521  10.844  0.6626  1.6640  0.8464
 2439SOL     OW 8757   2.016   6.285   4.125  0.0879 -0.0665 -0.3059
 2439SOL    HW1 8758   2.006   6.268   4.031 -0.4041  0.5526 -0.3668
 2439SOL    HW2 8759   1.951   6.228   4.167 -0.9200  0.9410 -0.4555
 2440SOL     OW 8760   7.905   7.303   7.535  0.0261 -0.2433  0.4411
 2440SOL    HW1 8761   7.985   7.325   7.582 -1.0717  1.0251  1.8122
 2440SOL    HW2 8762   7.851   7.382   7.542 -1.9808 -1.5956  0.9557
 2441SOL     OW 8763   5.931   0.743   1.079  0.1840  0.5276  0.0731
 2441SOL    HW1 8764   6.014   0.717   1.118  0.1832  0.9364  0.3546
 2441SOL    HW2 8765   5.906   0.822   1.126 -0.5954  0.1493  0.3113
 2442SOL     OW 8766   5.642   6.618   5.080 -0.5014  0.5173  0.4995
 2442SOL    HW1 8767   5.709   6.549   5.075  1.4230  2.2913  0.7823
 2442SOL    HW2 8768   5.657   6.671   5.002 -2.1600  0.4940  0.1348
 2443SOL     OW 8769   0.073   1.270   1.406  0.0306  0.5219 -0.2467
 2443SOL    HW1 8770  -0.016   1.252   1.374 -0.1883  0.6508  0.2889
 2443SOL    HW2 8771   0.114   1.318   1.334 -0.6275  1.2473 -0.1495
 2444SOL     OW 8772   0.283   6.264  10.171 -0.3334 -0.5859 -0.3122
 2444SOL    HW1 8773   0.300   6.260  10.265  1.2928  1.7002 -0.4223
 2444SOL    HW2 8774   0.187   6.271  10.164 -0.4287 -0.0093  1.2362
 2445SOL     OW 8775   2.289   5.763   6.043  0.1358  0.8894 -0.1089
 2445SOL    HW1 8776   2.355   5.832   6.047 -0.5501  1.6513 -1.3061
 2445SOL    HW2 8777   2.257   5.756   6.133  0.0609  2.2924  0.0010
 2446SOL     OW 8778   5.918   0.430   5.793 -0.5233 -0.3371  0.2217
 2446SOL    HW1 8779   5.995   0.390   5.752 -1.2148  0.0497 -1.5388
 2446SOL    HW2 8780   5.950   0.463   5.878  1.8314  1.7141 -1.3223
 2447SOL     OW 8781   4.901   1.008   3.663 -0.0437  0.7062 -0.3362
 2447SOL    HW1 8782   4.805   1.006   3.657 -0.0963 -0.3575  0.5941
 2447SOL    HW2 8783   4.931   0.981   3.576 -0.5896  0.5002 -0.4639
 2448SOL     OW 8784   7.846   4.392  11.749 -0.1494 -0.0788 -0.4501
 2448SOL    HW1 8785   7.862   4.384  11.843 -0.7073  2.1170 -0.1208
 2448SOL    HW2 8786   7.751   4.389  11.741 -0.1200  0.1409 -0.8987
 2449SOL     OW 8787   7.023   4.762   0.080  0.2242 -0.1960  0.6882
 2449SOL    HW1 8788   6.976   4.729   0.003  0.9484  0.8497 -0.2422
 2449SOL    HW2 8789   7.051   4.683   0.126 -0.6421 -0.8440  0.1525
 2450SOL     OW 8790   2.629   2.377   2.652  0.5123 -0.2703  0.2643
 2450SOL    HW1 8791   2.705   2.332   2.614  0.7214  0.3429 -0.0474
 2450SOL    HW2 8792   2.576   2.401   2.576  0.5300  0.2474  0.4171
 2451SOL     OW 8793   0.740   1.247   4.460  0.0668  0.0756 -0.0203
 2451SOL    HW1 8794   0.802   1.230   4.532  0.4442  0.0209 -0.3560
 2451SOL    HW2 8795   0.657   1.211   4.491  0.6467 -1.6124 -0.3664
 2452SOL     OW 8796   4.732   6.710   0.189 -0.6884  0.1513 -0.5143
 2452SOL    HW1 8797   4.688   6.645   0.134 -2.0288 -0.5011  1.2543
 2452SOL    HW2 8798   4.714   6.683   0.279  1.1187  1.3954  0.2960
 2453SOL     OW 8799   6.642   6.916   1.469 -0.5431  0.2789 -0.3210
 2453SOL    HW1 8800   6.612   6.846   1.411  0.0259  0.5396 -0.9354
 2453SOL    HW2 8801   6.737   6.920   1.456 -0.4172  0.3953  0.5673
 2454SOL     OW 8802   1.565   0.844   8.267 -0.9290  0.0607  0.0745
 2454SOL    HW1 8803   1.606   0.865   8.350  0.4925  0.8236 -0.7726
 2454SOL    HW2 8804   1.534   0.754   8.277  1.4837 -0.7876  0.6072
 2455SOL     OW 8805   0.280   4.492   1.347  0.3626 -0.5637 -0.0767
 2455SOL    HW1 8806   0.190   4.464   1.335  0.5407 -0.5881 -1.5041
 2455SOL    HW2 8807   0.274   4.587   1.356  0.1194 -0.6527  0.7157
 2456SOL     OW 8808   1.612   1.193   9.861  0.0147 -0.3499 -0.1004
 2456SOL    HW1 8809   1.549   1.126   9.835 -0.9705  0.5037  0.0056
 2456SOL    HW2 8810   1.637   1.235   9.778 -1.4912  0.9516  0.0511
 2457SOL     OW 8811   0.564   1.035   7.336  0.4568  0.1086  0.4083
 2457SOL    HW1 8812   0.559   1.086   7.255  0.2389  0.8391  0.8725
 2457SOL    HW2 8813   0.593   1.098   7.402  1.3800 -0.6571  0.7579
 2458SOL     OW 8814   1.625   3.083   4.174  0.2289  0.1165  0.0127
 2458SOL    HW1 8815   1.720   3.071   4.183  0.3717  0.9743 -0.1907
 2458SOL    HW2 8816   1.616   3.154   4.109 -0.4978  1.1375  1.1804
 2459SOL     OW 8817   3.722   5.703  11.745  0.4338 -0.2061  0.3165
 2459SOL    HW1 8818   3.741   5.701  11.651 -0.3379  0.0903  0.1468
 2459SOL    HW2 8819   3.639   5.751  11.752  0.5774 -0.0611  1.1664
 2460SOL     OW 8820   6.307   3.766   5.547 -0.2998  0.0415  0.3404
 2460SOL    HW1 8821   6.261   3.707   5.487  0.4204  1.0532 -1.2710
 2460SOL    HW2 8822   6.238   3.818   5.587 -0.7457 -0.1602 -0.1559
 2461SOL     OW 8823   4.773   7.389   5.286 -0.5868  0.3235  0.4436
 2461SOL    HW1 8824   4.820   7.342   5.216 -1.3923 -0.4488  0.3992
 2461SOL    HW2 8825   4.773   7.327   5.359 -0.0130  1.0137  1.0357
 2462SOL     OW 8826   5.835   2.248   6.118  0.4327  0.3782  0.0550
 2462SOL    HW1 8827   5.902   2.308   6.085  0.2413  0.7609  0.3578
 2462SOL    HW2 8828   5.817   2.278   6.207 -1.0550  1.0714 -0.4459
 2463SOL     OW 8829   6.477   2.387  11.099 -0.1545  0.6197  0.5125
 2463SOL    HW1 8830   6.572   2.390  11.109  0.1479  1.1577 -2.0102
 2463SOL    HW2 8831   6.444   2.394  11.189  2.1314  2.4441  1.3187
 2464SOL     OW 8832   6.011   0.252  11.559  0.5811 -0.1732 -0.3293
 2464SOL    HW1 8833   5.944   0.258  11.627 -0.0412  3.5960 -1.0530
 2464SOL    HW2 8834   5.964   0.221  11.481 -0.2206  1.6022 -0.6009
 2465SOL     OW 8835   5.618   3.390   4.737 -0.3442 -0.4505  0.0479
 2465SOL    HW1 8836   5.562   3.414   4.811 -1.2800 -1.6405 -0.2457
 2465SOL    HW2 8837   5.658   3.307   4.763  1.2863  0.3412  0.2243
 2466SOL     OW 8838   7.166   0.619   7.520  0.0433  0.4963  0.1333
 2466SOL    HW1 8839   7.249   0.620   7.567  0.7371 -0.3822 -1.0109
 2466SOL    HW2 8840   7.117   0.546   7.558  0.4289  0.0516 -0.2169
 2467SOL     OW 8841   0.742   4.324   6.527  0.2100 -0.1177 -0.4194
 2467SOL    HW1 8842   0.828   4.356   6.556 -0.3294  1.7197 -0.7256
 2467SOL    HW2 8843   0.721   4.254   6.588  1.9332 -0.6342 -0.3592
 2468SOL     OW 8844   4.128   7.300   2.080 -0.1926  0.1585 -0.6555
 2468SOL    HW1 8845   4.212   7.263   2.104 -0.6707  0.2942  1.4175
 2468SOL    HW2 8846   4.108   7.363   2.149 -2.4024 -0.5496 -0.5482
 2469SOL     OW 8847   0.867   2.048   0.261 -0.3271 -0.3871  0.2903
 2469SOL    HW1 8848   0.956   2.028   0.232 -0.5991 -0.9839 -0.1541
 2469SOL    HW2 8849   0.877   2.070   0.354  0.0132 -2.7165  0.8876
 2470SOL     OW 8850   4.623   6.610   4.296 -0.2797 -0.3032 -0.2291
 2470SOL    HW1 8851   4.714   6.588   4.279 -0.0597 -1.5581  2.2098
 2470SOL    HW2 8852   4.623   6.706   4.306  0.2844 -0.0035 -2.4548
 2471SOL     OW 8853   0.475   4.394   1.182  0.0730 -0.7915  0.2148
 2471SOL    HW1 8854   0.488   4.314   1.232 -1.7981 -2.9707 -2.4423
 2471SOL    HW2 8855   0.385   4.419   1.199  0.2201 -0.0588 -0.0392
 2472SOL     OW 8856   6.359   0.452  11.174 -0.3889 -0.6082 -0.6701
 2472SOL    HW1 8857   6.385   0.385  11.111  0.0899 -1.2709  0.2220
 2472SOL    HW2 8858   6.422   0.444  11.245 -1.8172 -0.8935  0.6148
 2473SOL     OW 8859   2.125   1.440   7.847 -0.7428  0.1599 -0.4532
 2473SOL    HW1 8860   2.067   1.365   7.854 -0.6468  0.0325 -0.9678
 2473SOL    HW2 8861   2.200   1.408   7.796  0.3428 -0.0089  1.1645
 2474SOL     OW 8862   0.645   0.219   7.539  1.2876 -0.4004  0.0232
 2474SOL    HW1 8863   0.674   0.129   7.529 -0.0106 -0.8744  0.3187
 2474SOL    HW2 8864   0.631   0.250   7.449  0.5528 -0.9166 -0.0527
 2475SOL     OW 8865   7.127   5.523   8.278  0.2044 -0.0247 -0.1290
 2475SOL    HW1 8866   7.211   5.490   8.247 -0.2017 -0.6412 -0.6211
 2475SOL    HW2 8867   7.123   5.613   8.247  1.4279  0.6111  1.4204
 2476SOL     OW 8868   7.803   6.571  10.807 -0.0725 -0.0229 -0.2663
 2476SOL    HW1 8869   7.737   6.637  10.783  0.3428  1.3583  2.0227
 2476SOL    HW2 8870   7.752   6.493  10.829 -0.6183 -0.3331 -2.4362
 2477SOL     OW 8871   0.603   6.005   3.924  0.2884 -0.5150 -0.1700
 2477SOL    HW1 8872   0.540   6.076   3.916  1.0023  0.2084  0.4583
 2477SOL    HW2 8873   0.642   6.018   4.010 -1.4642 -3.2476  1.1901
 2478SOL     OW 8874   4.271   7.811   1.194 -1.3849  0.0108  0.3571
 2478SOL    HW1 8875   4.224   7.884   1.153  0.5385  1.1043 -0.0169
 2478SOL    HW2 8876   4.342   7.853   1.243 -0.1059 -1.6037 -0.0326
 2479SOL     OW 8877   5.846   4.778   1.695  0.1188 -0.5370 -0.1167
 2479SOL    HW1 8878   5.931   4.824   1.690 -0.3343  0.2984 -0.3856
 2479SOL    HW2 8879   5.786   4.843   1.732 -0.7648 -0.5618 -1.4204
 2480SOL     OW 8880   3.513   2.539   3.800  0.7580 -0.2387  0.0537
 2480SOL    HW1 8881   3.497   2.632   3.786 -1.5886 -0.6204 -0.2301
 2480SOL    HW2 8882   3.489   2.524   3.891  3.0362 -0.2512  0.7035
 2481SOL     OW 8883   0.140   3.201   4.629  0.2072  0.3224 -0.3720
 2481SOL    HW1 8884   0.066   3.242   4.583  0.4005  0.9978 -0.0919
 2481SOL    HW2 8885   0.188   3.274   4.667  0.3353 -0.1943  0.4865
 2482SOL     OW 8886   3.175   5.576   1.868 -0.5167  0.2750 -0.1988
 2482SOL    HW1 8887   3.158   5.658   1.914 -0.0353  0.7418 -0.8441
 2482SOL    HW2 8888   3.271   5.571   1.863 -0.5319 -0.4547  0.0629
 2483SOL     OW 8889   6.269   1.454   1.911  0.0465  0.1391 -0.3758
 2483SOL    HW1 8890   6.180   1.419   1.907  0.0797 -0.1620  1.2186
 2483SOL    HW2 8891   6.320   1.395   1.855 -0.1372 -1.6823  1.2894
 2484SOL     OW 8892   3.802   0.971   9.387 -0.4110 -0.9052  0.4208
 2484SOL    HW1 8893   3.762   0.969   9.474  1.0428 -0.9897  1.1266
 2484SOL    HW2 8894   3.862   1.046   9.390 -0.2938 -0.9548 -0.4812
 2485SOL     OW 8895   0.474   4.655  12.017  0.5704  0.0503 -0.0487
 2485SOL    HW1 8896   0.535   4.582  12.007  0.9740  0.3705  0.0011
 2485SOL    HW2 8897   0.522   4.719  12.070 -0.2182 -0.1400  0.9206
 2486SOL     OW 8898   3.980   7.134   7.170  0.1701 -0.6756  0.3876
 2486SOL    HW1 8899   3.985   7.194   7.095 -1.0374  0.3056  1.0569
 2486SOL    HW2 8900   3.929   7.059   7.137 -1.4303  0.3004  0.5234
 2487SOL     OW 8901   0.816   0.683  10.348  0.3933  0.7464  0.3040
 2487SOL    HW1 8902   0.876   0.690  10.274 -0.7508  0.8641 -0.6258
 2487SOL    HW2 8903   0.859   0.622  10.408  1.4534  0.8613 -0.3168
 2488SOL     OW 8904   5.774   2.906   4.027 -0.3463 -0.0067  0.4620
 2488SOL    HW1 8905   5.731   2.952   4.100  0.5067  3.1584 -0.8459
 2488SOL    HW2 8906   5.850   2.961   4.006  0.6163 -1.9477 -1.4737
 2489SOL     OW 8907   6.023   2.418   5.155 -0.4468 -0.8733 -0.1070
 2489SOL    HW1 8908   6.083   2.367   5.100 -1.2943 -1.1533 -0.7825
 2489SOL    HW2 8909   6.049   2.509   5.141  0.2781 -1.0260  0.1627
 2490SOL     OW 8910   0.554   6.631   4.180  0.0486 -0.1061 -0.2957
 2490SOL    HW1 8911   0.566   6.561   4.244 -0.0113  0.1288 -0.0256
 2490SOL    HW2 8912   0.643   6.655   4.153  0.0347 -1.5186 -1.7526
 2491SOL     OW 8913   5.924   6.689   4.410 -0.0695  0.6710 -0.0170
 2491SOL    HW1 8914   5.984   6.709   4.338  0.5003  0.2841  0.3483
 2491SOL    HW2 8915   5.874   6.614   4.379  0.7631 -0.0343  0.3222
 2492SOL     OW 8916   1.325   0.994   5.351 -0.4844  0.3247 -0.4699
 2492SOL    HW1 8917   1.391   1.010   5.418 -0.4672  1.0262 -0.6479
 2492SOL    HW2 8918   1.305   0.901   5.359  0.5579  0.0899 -0.4435
 2493SOL     OW 8919   1.940   2.564   4.858 -0.8090  0.5350  0.1789
 2493SOL    HW1 8920   1.883   2.508   4.911 -1.4991  0.9427 -0.1100
 2493SOL    HW2 8921   2.029   2.540   4.883 -1.0945  1.5014  2.3525
 2494SOL     OW 8922   4.483   0.861   5.536  0.0790  0.4349  0.2583
 2494SOL    HW1 8923   4.491   0.923   5.608  0.2054  0.6324  0.0778
 2494SOL    HW2 8924   4.483   0.916   5.457 -1.6279  0.3497  0.1574
 2495SOL     OW 8925   6.393   4.851   0.871  0.3684 -0.1929  0.0750
 2495SOL    HW1 8926   6.339   4.906   0.813 -0.6170  0.1260  1.2539
 2495SOL    HW2 8927   6.477   4.843   0.825 -0.2549  0.3436 -1.2219
 2496SOL     OW 8928   1.884   0.962   8.412  0.4558 -0.7339  0.2750
 2496SOL    HW1 8929   1.913   0.877   8.379  1.0972 -0.9470  1.3179
 2496SOL    HW2 8930   1.803   0.944   8.458 -0.4457 -0.4343 -1.1353
 2497SOL     OW 8931   2.991   7.905   2.872 -0.0036 -0.0849  0.4580
 2497SOL    HW1 8932   2.904   7.866   2.874  0.3223 -0.8070  1.3307
 2497SOL    HW2 8933   2.975   7.998   2.858 -0.8847 -0.2934  0.0373
 2498SOL     OW 8934   7.185   1.059   8.128  0.8523 -0.4570 -0.2821
 2498SOL    HW1 8935   7.198   0.965   8.135  0.5027 -0.4974 -0.1295
 2498SOL    HW2 8936   7.107   1.069   8.073 -2.0399 -0.4663  3.3448
 2499SOL     OW 8937   7.202   5.612   3.981 -0.3013  0.0104 -0.5241
 2499SOL    HW1 8938   7.147   5.687   3.956 -1.2093 -0.6013 -0.4057
 2499SOL    HW2 8939   7.202   5.613   4.076 -0.6613 -0.3829 -0.5177
 2500SOL     OW 8940   7.746   1.463   5.329  0.3105  0.2320 -0.5798
 2500SOL    HW1 8941   7.817   1.528   5.323  1.3165 -0.8503 -0.8211
 2500SOL    HW2 8942   7.681   1.504   5.386  1.1577  1.2309 -0.2928
 2501SOL     OW 8943   0.895   6.040   6.559 -0.4410  0.5946  0.2489
 2501SOL    HW1 8944   0.825   6.066   6.619 -0.1458  0.8310  0.4919
 2501SOL    HW2 8945   0.975   6.048   6.611 -0.3452 -0.9248  0.3810
 2502SOL     OW 8946   0.886   6.174  10.891 -0.1141  0.1450 -0.0672
 2502SOL    HW1 8947   0.922   6.252  10.933  3.2252 -0.5864 -1.2490
 2502SOL    HW2 8948   0.912   6.102  10.948  0.5121 -0.4392 -1.0622
 2503SOL     OW 8949   6.907   0.041   6.178  0.1139  0.2249 -0.5072
 2503SOL    HW1 8950   6.964   0.056   6.253  0.0217  2.0535 -0.7673
 2503SOL    HW2 8951   6.943   0.098   6.109 -2.0314  1.4952 -0.6465
 2504SOL     OW 8952   1.507   2.296   2.513  0.0273 -0.3880 -0.1738
 2504SOL    HW1 8953   1.448   2.295   2.588  2.3168  0.7829  1.7834
 2504SOL    HW2 8954   1.460   2.347   2.446 -1.0405  0.8157  1.4174
 2505SOL     OW 8955   4.318   1.530   0.404  0.0863  0.3631  0.1184
 2505SOL    HW1 8956   4.372   1.453   0.384 -0.5788 -0.0731 -0.0457
 2505SOL    HW2 8957   4.232   1.493   0.427 -0.2588  1.0627 -0.0287
 2506SOL     OW 8958   7.665   7.319   3.843 -0.3093 -0.0210 -0.5279
 2506SOL    HW1 8959   7.629   7.388   3.786  0.4296 -0.0885 -1.0838
 2506SOL    HW2 8960   7.683   7.246   3.784 -0.3382 -0.4082 -0.0638
 2507SOL     OW 8961   7.977   0.279   8.794  0.1791 -0.3088  0.4953
 2507SOL    HW1 8962   7.932   0.289   8.878  0.5914  0.2473  0.6538
 2507SOL    HW2 8963   7.906   0.278   8.729 -0.1094 -0.1873  0.8055
 2508SOL     OW 8964   1.822   3.139   1.486  0.7517 -0.4421 -0.2868
 2508SOL    HW1 8965   1.772   3.122   1.406 -0.2230  0.3039  0.1332
 2508SOL    HW2 8966   1.815   3.058   1.537 -2.0149  0.3187  0.7583
 2509SOL     OW 8967   4.826   3.648   5.259  0.0634  0.0063  0.0194
 2509SOL    HW1 8968   4.910   3.608   5.236 -0.2456 -0.3925 -0.4499
 2509SOL    HW2 8969   4.770   3.630   5.184  0.6219  3.5823 -1.4532
 2510SOL     OW 8970   0.869   6.747   2.022 -0.0792  0.3583 -0.1080
 2510SOL    HW1 8971   0.791   6.720   1.974 -0.6457  1.8862 -0.0999
 2510SOL    HW2 8972   0.937   6.754   1.956 -0.3812  0.6226 -0.3947
 2511SOL     OW 8973   6.708   0.922   9.234  0.2907  0.4695  0.0498
 2511SOL    HW1 8974   6.625   0.969   9.230 -0.0306 -0.0876  0.0627
 2511SOL    HW2 8975   6.766   0.970   9.175  0.0025  0.9381  0.1425
 2512SOL     OW 8976   6.391   7.929   8.930 -0.6216 -0.1142 -0.1338
 2512SOL    HW1 8977   6.359   7.884   8.852 -2.7234  2.2468 -0.7856
 2512SOL    HW2 8978   6.338   7.895   9.002  1.8237 -2.8491  0.5707
 2513SOL     OW 8979   7.143   1.846   2.056 -0.0938  0.0147  0.5579
 2513SOL    HW1 8980   7.162   1.821   1.966  1.8553  0.0204  0.9111
 2513SOL    HW2 8981   7.225   1.829   2.103 -0.2518  2.2775  1.8208
 2514SOL     OW 8982   5.925   4.136   2.212 -0.2866  0.3992 -0.5370
 2514SOL    HW1 8983   5.889   4.073   2.274 -0.4568 -0.8951 -1.8672
 2514SOL    HW2 8984   5.851   4.190   2.186 -0.9989 -1.1909 -2.0273
 2515SOL     OW 8985   4.817   1.119  10.650 -0.0642  0.2627  0.2014
 2515SOL    HW1 8986   4.797   1.211  10.665 -2.8288 -0.2430  0.2042
 2515SOL    HW2 8987   4.740   1.072  10.684 -0.3044 -1.8176 -2.7791
 2516SOL     OW 8988   6.161   6.948   0.779 -0.1250  0.4107 -0.1176
 2516SOL    HW1 8989   6.245   6.974   0.741 -0.2882  0.9091 -0.1437
 2516SOL    HW2 8990   6.178   6.941   0.873  0.2320 -0.6302 -0.2501
 2517SOL     OW 8991   2.462   4.651   6.820  0.2074  0.0935 -0.4799
 2517SOL    HW1 8992   2.506   4.570   6.843 -0.0145 -0.4538 -1.8872
 2517SOL    HW2 8993   2.515   4.688   6.749 -0.4372  0.4946 -0.7620
 2518SOL     OW 8994   0.218   0.737   6.750 -0.1141 -0.2813  0.1962
 2518SOL    HW1 8995   0.160   0.792   6.697 -1.0621 -0.2598  1.2273
 2518SOL    HW2 8996   0.160   0.677   6.796  0.6026  0.1153  1.7132
 2519SOL     OW 8997   1.528   3.364   5.885  0.1565 -0.1355 -0.6291
 2519SOL    HW1 8998   1.589   3.397   5.951 -0.9558  0.8777 -0.0868
 2519SOL    HW2 8999   1.514   3.438   5.826 -2.8893  0.7227  0.9773
 2520SOL     OW 9000   1.587   5.842   0.444 -0.2144  0.2687 -0.1678
 2520SOL    HW1 9001   1.566   5.849   0.537  3.7164  0.5315  0.8768
 2520SOL    HW2 9002   1.577   5.931   0.411  3.9880  1.6974  1.6406
 2521SOL     OW 9003   1.504   2.065   8.561 -0.2519  0.4593 -0.1150
 2521SOL    HW1 9004   1.575   2.003   8.575  0.0176  1.1041  1.5651
 2521SOL    HW2 9005   1.440   2.044   8.629 -0.5357  1.4778 -0.0520
 2522SOL     OW 9006   6.610   2.284   5.771 -0.8904 -0.7943 -0.2085
 2522SOL    HW1 9007   6.517   2.268   5.759 -0.9742 -1.0299  0.6636
 2522SOL    HW2 9008   6.616   2.378   5.792 -1.1770 -1.1780  1.7955
 2523SOL     OW 9009   4.010   0.915   8.666  0.3965  0.2213  0.4800
 2523SOL    HW1 9010   4.073   0.947   8.602 -0.1719  3.2560  1.2689
 2523SOL    HW2 9011   3.954   0.855   8.618 -0.1235  2.4997 -1.9755
 2524SOL     OW 9012   5.703   7.465   4.059  0.2177  0.7795 -0.1971
 2524SOL    HW1 9013   5.784   7.517   4.057 -1.2844  3.3111 -0.5026
 2524SOL    HW2 9014   5.685   7.455   4.153  1.0777 -0.1912 -0.1167
 2525SOL     OW 9015   5.017   5.218   9.575  0.5809 -0.4376 -0.0558
 2525SOL    HW1 9016   4.963   5.139   9.575 -0.4599  0.2509  0.0059
 2525SOL    HW2 9017   5.075   5.207   9.500 -1.7952  0.1969 -2.0978
 2526SOL     OW 9018   2.244   4.973  10.866 -0.1491  0.2980  0.6653
 2526SOL    HW1 9019   2.149   4.969  10.853 -0.0946 -3.2615  0.3812
 2526SOL    HW2 9020   2.280   4.980  10.777 -0.1338 -0.5169  0.6024
 2527SOL     OW 9021   3.225   1.439   5.424 -0.2098 -0.0946 -0.0060
 2527SOL    HW1 9022   3.223   1.529   5.393  1.5244 -0.6682 -2.0025
 2527SOL    HW2 9023   3.162   1.392   5.368  0.9871 -0.6384 -0.9272
 2528SOL     OW 9024   5.795   1.008   4.162 -0.3923 -0.0942 -0.2628
 2528SOL    HW1 9025   5.756   1.070   4.101 -1.5651  0.0989  0.6322
 2528SOL    HW2 9026   5.743   0.929   4.152 -1.3008  0.2767  1.1964
 2529SOL     OW 9027   1.154   4.269   6.461  0.6516 -0.1407 -0.1100
 2529SOL    HW1 9028   1.138   4.255   6.554 -0.5680  0.3428 -0.2252
 2529SOL    HW2 9029   1.208   4.347   6.458 -0.4205  0.6424  0.1662
 2530SOL     OW 9030   3.552   4.491   3.846 -0.1195 -0.0172 -0.7663
 2530SOL    HW1 9031   3.540   4.532   3.932  1.7518 -0.4355 -0.2687
 2530SOL    HW2 9032   3.480   4.526   3.793 -1.2601  0.3249  0.9216
 2531SOL     OW 9033   0.897   2.507   8.033  0.2145 -0.2005  0.3644
 2531SOL    HW1 9034   0.831   2.496   8.100 -1.0820 -1.0366 -0.9811
 2531SOL    HW2 9035   0.915   2.419   8.002 -1.0574  0.2744 -2.0283
 2532SOL     OW 9036   1.623   5.653   1.835 -0.1369 -0.7645  0.0475
 2532SOL    HW1 9037   1.680   5.700   1.896 -0.0326 -0.4066 -0.3284
 2532SOL    HW2 9038   1.546   5.631   1.887  0.4410 -1.4867  0.6393
 2533SOL     OW 9039   6.464   6.052   5.918 -0.3311 -0.2039 -0.3808
 2533SOL    HW1 9040   6.509   6.048   6.003 -0.4027  0.3851 -0.3117
 2533SOL    HW2 9041   6.393   6.115   5.931 -0.9455 -0.8323 -0.6030
 2534SOL     OW 9042   1.984   5.456   6.956  0.4425 -0.1175  0.0207
 2534SOL    HW1 9043   2.072   5.456   6.918 -0.6904 -0.7036 -2.9295
 2534SOL    HW2 9044   1.955   5.547   6.948  0.3494 -0.1662 -0.2350
 2535SOL     OW 9045   4.375   7.811   6.198 -0.0895 -0.0270  0.0560
 2535SOL    HW1 9046   4.332   7.728   6.218  0.7361 -0.7395 -1.0080
 2535SOL    HW2 9047   4.304   7.872   6.181 -0.7724 -0.0392  2.4502
 2536SOL     OW 9048   7.596   1.212   5.768  0.0115  0.1307 -0.3559
 2536SOL    HW1 9049   7.647   1.156   5.709 -1.7059 -0.6845 -1.1368
 2536SOL    HW2 9050   7.657   1.280   5.795  1.8636 -1.4618 -0.2755
 2537SOL     OW 9051   0.539   4.218   3.713  0.5862 -0.4533  0.2451
 2537SOL    HW1 9052   0.607   4.214   3.646  1.6328  1.1076  1.1429
 2537SOL    HW2 9053   0.457   4.216   3.664  1.3014 -0.2762 -1.0161
 2538SOL     OW 9054   0.490   2.538   4.033  0.3607  0.4717  0.6365
 2538SOL    HW1 9055   0.441   2.620   4.029  0.2063  0.3677  0.3724
 2538SOL    HW2 9056   0.582   2.566   4.031  0.3173  0.6025 -0.5571
 2539SOL     OW 9057   5.885   3.962   1.992  0.1555 -0.4208  0.0132
 2539SOL    HW1 9058   5.887   4.021   2.068  0.5261 -0.7324  0.2477
 2539SOL    HW2 9059   5.792   3.952   1.971 -0.0117 -1.0712  1.0078
 2540SOL     OW 9060   2.589   4.956   6.862 -0.0104  0.4655  0.2526
 2540SOL    HW1 9061   2.496   4.941   6.844 -0.0002 -0.4197  0.8466
 2540SOL    HW2 9062   2.589   5.009   6.942 -0.0097  0.4467  0.2648
 2541SOL     OW 9063   3.456   1.874   9.973  0.0779 -0.4490 -0.4502
 2541SOL    HW1 9064   3.513   1.881  10.049 -0.0600  0.1529 -0.3984
 2541SOL    HW2 9065   3.423   1.963   9.959 -0.2074 -0.6317 -0.9723
 2542SOL     OW 9066   7.929   5.268  11.604 -0.2428  0.3782 -0.0840
 2542SOL    HW1 9067   7.963   5.302  11.521 -0.6803  0.2482 -0.3196
 2542SOL    HW2 9068   7.834   5.267  11.592 -0.2499 -0.8170 -0.0411
 2543SOL     OW 9069   4.769   1.831   7.621  0.6252 -0.4324  0.1897
 2543SOL    HW1 9070   4.756   1.901   7.557 -0.8756 -0.1582  0.7328
 2543SOL    HW2 9071   4.841   1.862   7.676  1.0826 -0.0946 -0.5872
 2544SOL     OW 9072   4.388   7.770   5.205 -0.3285 -0.6260  0.0801
 2544SOL    HW1 9073   4.436   7.791   5.285  1.4109 -1.0628 -0.7992
 2544SOL    HW2 9074   4.350   7.684   5.222 -0.3516 -0.5132  0.6037
 2545SOL     OW 9075   1.913   5.053   1.631  0.1439  0.0949  0.3845
 2545SOL    HW1 9076   1.827   5.041   1.591  0.0494  0.5695  0.4332
 2545SOL    HW2 9077   1.909   5.003   1.712 -0.8444  1.7632  1.4453
 2546SOL     OW 9078   7.948   6.360   2.433  0.1057 -0.1713 -0.2649
 2546SOL    HW1 9079   7.991   6.275   2.443 -0.2750 -0.1535  1.8865
 2546SOL    HW2 9080   7.855   6.338   2.422 -0.1063 -0.0529  1.0986
 2547SOL     OW 9081   7.238   3.525   8.425 -0.2081 -0.5177 -0.5857
 2547SOL    HW1 9082   7.151   3.565   8.435 -0.4626 -1.2064  0.0577
 2547SOL    HW2 9083   7.251   3.519   8.330  0.3990  2.2364 -0.7416
 2548SOL     OW 9084   1.955   1.001   6.144  0.2654  0.0475 -0.4138
 2548SOL    HW1 9085   2.037   0.998   6.095 -0.7385  0.4715 -2.2116
 2548SOL    HW2 9086   1.915   1.084   6.120 -0.3797  0.1740  0.9870
 2549SOL     OW 9087   4.818   2.013   9.570  0.1446 -0.1593 -0.3689
 2549SOL    HW1 9088   4.901   2.035   9.613  0.1260 -1.8310  0.5907
 2549SOL    HW2 9089   4.751   2.036   9.635  0.1444 -3.3145  0.9521
 2550SOL     OW 9090   2.244   7.387   5.905 -0.0678 -0.0444  0.1613
 2550SOL    HW1 9091   2.316   7.431   5.949  0.9343 -1.0042 -0.4609
 2550SOL    HW2 9092   2.232   7.306   5.955 -2.3217  1.1087  1.6964
 2551SOL     OW 9093   3.283   2.815   2.625  0.4876  0.0306  0.2365
 2551SOL    HW1 9094   3.294   2.725   2.656  2.0656  0.6377  1.5941
 2551SOL    HW2 9095   3.200   2.844   2.664 -0.7679 -1.2314 -1.3518
 2552SOL     OW 9096   4.121   3.463  12.124 -0.5798  0.1420  0.5427
 2552SOL    HW1 9097   4.198   3.410  12.101  0.2617  2.0742 -1.3823
 2552SOL    HW2 9098   4.149   3.515  12.199  0.2627  1.3113 -0.5529
 2553SOL     OW 9099   3.339   7.693   0.403  0.3638 -0.2831 -0.3396
 2553SOL    HW1 9100   3.355   7.713   0.311 -1.7015 -0.4018 -0.7841
 2553SOL    HW2 9101   3.383   7.609   0.417  0.3793 -0.4621 -1.3455
 2554SOL     OW 9102   4.216   7.552   5.302 -0.3195 -0.5416 -0.6992
 2554SOL    HW1 9103   4.172   7.567   5.386 -0.0768 -0.5890 -0.5647
 2554SOL    HW2 9104   4.271   7.476   5.318 -0.0153 -0.3442 -0.8054
 2555SOL     OW 9105   5.178   7.003   1.900  0.1635 -0.2701 -0.3142
 2555SOL    HW1 9106   5.169   7.044   1.985  3.3457  0.4587 -0.2187
 2555SOL    HW2 9107   5.168   7.074   1.837  0.1222 -0.3985 -0.4567
 2556SOL     OW 9108   4.761   6.468   0.599  0.2175  0.0570  0.1727
 2556SOL    HW1 9109   4.720   6.547   0.564  1.2973 -0.3376 -2.1365
 2556SOL    HW2 9110   4.811   6.432   0.526  3.3644 -0.3882  2.3449
 2557SOL     OW 9111   5.675   1.139   4.904  0.1497  0.2079 -0.0535
 2557SOL    HW1 9112   5.727   1.218   4.889 -2.1554  2.1028  1.2560
 2557SOL    HW2 9113   5.639   1.117   4.818  0.6134  0.7405 -0.3864
 2558SOL     OW 9114   1.585   0.402   7.700  0.2915  0.0082  0.3436
 2558SOL    HW1 9115   1.549   0.393   7.612  1.3753 -0.2458 -0.0860
 2558SOL    HW2 9116   1.595   0.313   7.732 -0.5689  0.1123  0.9319
 2559SOL     OW 9117   5.067   5.609  11.056  0.1018  0.2298  0.1724
 2559SOL    HW1 9118   5.099   5.695  11.029 -2.2240  1.0611 -0.1341
 2559SOL    HW2 9119   4.991   5.628  11.110 -0.2383 -1.6533  0.4077
 2560SOL     OW 9120   2.595   6.555  11.184  0.1959 -0.0920 -0.3109
 2560SOL    HW1 9121   2.640   6.614  11.123 -0.5588 -2.1862 -3.1228
 2560SOL    HW2 9122   2.616   6.467  11.152 -1.2238 -1.2726  1.8015
 2561SOL     OW 9123   6.639   6.381   9.388 -0.0072 -0.1702 -0.5620
 2561SOL    HW1 9124   6.614   6.317   9.320  1.5469 -1.2157 -0.2142
 2561SOL    HW2 9125   6.628   6.466   9.346 -2.0169 -0.6455 -1.0933
 2562SOL     OW 9126   1.056   7.487   8.963 -0.1232 -0.1047  0.2313
 2562SOL    HW1 9127   1.018   7.518   9.045 -0.3070  1.3545 -0.3590
 2562SOL    HW2 9128   1.142   7.529   8.959 -0.0035 -0.3824 -0.1764
 2563SOL     OW 9129   3.138   3.428  11.857  0.0695 -0.1751 -0.4322
 2563SOL    HW1 9130   3.147   3.507  11.911 -1.6233 -2.1639  3.1244
 2563SOL    HW2 9131   3.228   3.394  11.848  0.4205  0.2826  1.1211
 2564SOL     OW 9132   1.400   0.606   5.290  0.3073  0.1523  0.1288
 2564SOL    HW1 9133   1.407   0.513   5.268 -0.3614 -0.0447  0.6870
 2564SOL    HW2 9134   1.435   0.612   5.380 -1.2023  0.1336  0.7416
 2565SOL     OW 9135   3.867   6.874  12.252 -0.1740 -0.2753  0.2301
 2565SOL    HW1 9136   3.785   6.908  12.218  0.6609  0.3410 -1.3077
 2565SOL    HW2 9137   3.872   6.784  12.219 -0.0397 -0.1615 -0.0679
 2566SOL     OW 9138   2.857   6.640  12.370  1.1991 -0.5420 -0.4857
 2566SOL    HW1 9139   2.876   6.682  12.286 -0.5884  0.7916 -0.3179
 2566SOL    HW2 9140   2.797   6.568  12.348  0.5545 -0.0559 -0.3720
 2567SOL     OW 9141   5.868   5.675  11.751  0.4131  0.1450  0.4546
 2567SOL    HW1 9142   5.903   5.673  11.662 -0.4804 -0.9391  0.1025
 2567SOL    HW2 9143   5.808   5.601  11.755  1.0861 -0.3734  2.2427
 2568SOL     OW 9144   3.829   0.605   4.798  0.1977  0.1590  0.2026
 2568SOL    HW1 9145   3.765   0.676   4.798  0.4520  0.5041  3.4325
 2568SOL    HW2 9146   3.782   0.530   4.835  1.1513 -0.0956  0.9194
 2569SOL     OW 9147   3.362   0.952   9.601  0.0018  0.0006  0.8161
 2569SOL    HW1 9148   3.315   0.947   9.685 -0.2777  1.2723  0.7601
 2569SOL    HW2 9149   3.419   1.028   9.611  0.3607 -0.1622  0.0330
 2570SOL     OW 9150   4.131   6.401   0.197  0.1911  0.6070  0.1743
 2570SOL    HW1 9151   4.134   6.376   0.289  0.0903 -0.5257 -0.1070
 2570SOL    HW2 9152   4.068   6.473   0.193 -4.3462 -2.9009  0.2721
 2571SOL     OW 9153   5.334   4.015  10.138  0.1191  0.0241  0.6910
 2571SOL    HW1 9154   5.358   3.943  10.081  0.4241  0.0257  0.8160
 2571SOL    HW2 9155   5.272   3.977  10.201 -1.6522  0.4236 -0.7252
 2572SOL     OW 9156   3.201   1.788   5.901 -0.3296  0.2031  0.4125
 2572SOL    HW1 9157   3.285   1.797   5.945  0.4968  2.6147 -1.4357
 2572SOL    HW2 9158   3.136   1.802   5.970  0.9083  3.3875  1.1340
 2573SOL     OW 9159   5.639   1.585   6.539 -0.1814  0.0380  0.0186
 2573SOL    HW1 9160   5.610   1.662   6.588  0.1815  0.4386 -0.3934
 2573SOL    HW2 9161   5.728   1.568   6.570 -0.4552 -0.5507  0.5057
 2574SOL     OW 9162   5.520   4.033   4.067  0.0352 -0.1538  0.4044
 2574SOL    HW1 9163   5.585   4.055   4.133 -0.6179 -0.8085  1.2918
 2574SOL    HW2 9164   5.487   4.117   4.036  1.8999  0.2300 -0.7212
 2575SOL     OW 9165   4.856   7.060   8.382  0.0152  0.1631 -0.0150
 2575SOL    HW1 9166   4.835   7.153   8.395  1.0661  0.2607  1.1516
 2575SOL    HW2 9167   4.771   7.017   8.377 -0.4870  1.0660  0.3854
 2576SOL     OW 9168   0.486   0.854   3.994 -0.1140 -0.1175 -0.2563
 2576SOL    HW1 9169   0.433   0.782   3.958  0.7029 -0.1739 -1.3966
 2576SOL    HW2 9170   0.501   0.912   3.920  0.7514  0.3039  0.2338
 2577SOL     OW 9171   7.633   5.761   7.916 -0.0165 -0.3534 -0.1274
 2577SOL    HW1 9172   7.670   5.789   8.000  0.6241 -0.1803 -0.4641
 2577SOL    HW2 9173   7.578   5.686   7.938  1.7958 -1.6423  0.1719
 2578SOL     OW 9174   3.946   7.747  10.524 -0.2100 -0.2345 -0.0948
 2578SOL    HW1 9175   3.950   7.678  10.590 -2.5921  0.3439  0.7750
 2578SOL    HW2 9176   3.886   7.714  10.457 -0.7750  0.6644 -0.0560
 2579SOL     OW 9177   0.923   7.207   8.486  0.4980  0.1932  0.3165
 2579SOL    HW1 9178   0.958   7.124   8.518 -0.1135 -0.1960 -0.0011
 2579SOL    HW2 9179   0.900   7.256   8.565  0.5615 -0.0703  0.4998
 2580SOL     OW 9180   0.423   7.954   9.840  0.3531  0.1145 -0.2672
 2580SOL    HW1 9181   0.404   7.942   9.933  0.2140  0.1303 -0.2925
 2580SOL    HW2 9182   0.388   7.875   9.798 -0.6205  0.6131 -0.4461
 2581SOL     OW 9183   1.424   7.298  10.714 -0.7599  0.0823 -0.2197
 2581SOL    HW1 9184   1.389   7.260  10.795 -0.2110 -0.4835 -0.2428
 2581SOL    HW2 9185   1.478   7.228  10.676  1.3620  1.2663  0.4122
 2582SOL     OW 9186   3.610   7.687   9.175 -0.0624 -0.0791 -0.1176
 2582SOL    HW1 9187   3.545   7.754   9.194  0.3143  0.1451  0.4207
 2582SOL    HW2 9188   3.659   7.721   9.100 -0.9155 -0.5087 -0.8916
 2583SOL     OW 9189   2.072   6.700   5.078 -0.2265  0.0054  0.3048
 2583SOL    HW1 9190   2.046   6.776   5.026 -0.8956  1.0876  2.1274
 2583SOL    HW2 9191   2.154   6.726   5.120  0.2496 -0.8115 -0.0827
 2584SOL     OW 9192   1.630   6.405   5.992  0.6361  0.4311  0.1895
 2584SOL    HW1 9193   1.615   6.481   6.048 -0.0418 -0.3605  1.1212
 2584SOL    HW2 9194   1.542   6.367   5.980  0.5853  1.1977 -2.3436
 2585SOL     OW 9195   1.060   2.152  11.986 -0.1707 -0.5811 -0.0488
 2585SOL    HW1 9196   1.104   2.127  11.904 -1.3362 -0.7122 -0.6485
 2585SOL    HW2 9197   1.026   2.240  11.969 -0.0055 -0.4120  0.4759
 2586SOL     OW 9198   0.621   0.196   8.983  0.0315  0.2494  0.0310
 2586SOL    HW1 9199   0.652   0.284   8.962 -1.6794  0.9681  0.3095
 2586SOL    HW2 9200   0.539   0.188   8.933 -0.4393 -0.7271  0.9341
 2587SOL     OW 9201   7.067   5.253  12.331  0.9030 -0.2149 -0.2906
 2587SOL    HW1 9202   7.142   5.278  12.277 -0.4796  1.2725 -1.6360
 2587SOL    HW2 9203   7.006   5.212  12.270  1.0572 -2.5697  1.0093
 2588SOL     OW 9204   3.701   3.458  11.158  0.9416 -0.2078 -0.4096
 2588SOL    HW1 9205   3.751   3.453  11.239 -0.9946  0.9510  0.9445
 2588SOL    HW2 9206   3.735   3.387  11.104  3.4220  0.0294  0.7307
 2589SOL     OW 9207   0.589   5.580   0.539  0.8702  0.0794  0.5465
 2589SOL    HW1 9208   0.610   5.636   0.464  0.9380 -0.1262  0.4123
 2589SOL    HW2 9209   0.653   5.509   0.535 -0.5852 -1.2183 -0.5763
 2590SOL     OW 9210   4.144   7.086   1.360 -0.4251  0.0280  0.5265
 2590SOL    HW1 9211   4.059   7.068   1.320 -0.8039  0.4372  1.1504
 2590SOL    HW2 9212   4.124   7.110   1.450  0.3102  0.6456  0.5277
 2591SOL     OW 9213   0.372   5.778   8.096  0.8073 -0.1935  0.6526
 2591SOL    HW1 9214   0.402   5.845   8.035  1.4341 -0.2591  0.8875
 2591SOL    HW2 9215   0.303   5.822   8.146 -0.9248 -0.6422 -1.2042
 2592SOL     OW 9216   3.477   3.089  11.628  0.6596 -0.4631  0.2147
 2592SOL    HW1 9217   3.418   3.028  11.673  1.2312 -0.4796  0.9490
 2592SOL    HW2 9218   3.558   3.039  11.617  0.2792 -0.7495 -1.5752
 2593SOL     OW 9219   6.184   6.469   6.787  0.2448  0.8830  0.3228
 2593SOL    HW1 9220   6.258   6.507   6.834  0.0712  2.4546 -0.5996
 2593SOL    HW2 9221   6.155   6.538   6.727 -1.2963 -0.0681 -0.1037
 2594SOL     OW 9222   7.250   6.925   4.946 -0.0072 -0.1339 -0.3855
 2594SOL    HW1 9223   7.212   6.838   4.957 -1.5606  0.3452 -1.6018
 2594SOL    HW2 9224   7.180   6.986   4.968  0.5949  0.8023 -0.9531
 2595SOL     OW 9225   3.816   2.722  10.802  0.4747  0.3092  0.2895
 2595SOL    HW1 9226   3.758   2.776  10.749  2.1085  0.4244 -1.4828
 2595SOL    HW2 9227   3.815   2.636  10.760  1.3130  0.2220  0.4132
 2596SOL     OW 9228   3.546   0.851   9.459  0.2919  0.5204  0.1518
 2596SOL    HW1 9229   3.477   0.884   9.517 -1.3635  0.9169 -1.9233
 2596SOL    HW2 9230   3.553   0.918   9.391  2.4479  0.2435  0.0366
 2597SOL     OW 9231   2.789   0.732   5.848 -0.0373  0.5439 -0.1445
 2597SOL    HW1 9232   2.753   0.695   5.928 -1.7110 -1.9908 -1.8795
 2597SOL    HW2 9233   2.714   0.741   5.790  1.1989  1.6236 -1.6754
 2598SOL     OW 9234   1.032   2.020   7.597  0.4021 -0.4832 -0.0467
 2598SOL    HW1 9235   1.084   2.046   7.673  0.1053  2.0549 -0.6117
 2598SOL    HW2 9236   1.088   2.041   7.522  0.8032 -3.2085 -0.5964
 2599SOL     OW 9237   1.517   5.931   4.695 -0.5133  0.7322 -0.5228
 2599SOL    HW1 9238   1.560   5.917   4.780 -0.5297  1.1374 -0.4415
 2599SOL    HW2 9239   1.523   5.847   4.650  2.9833  1.4645 -1.7322
 2600SOL     OW 9240   3.947   1.918   0.849 -0.2367  0.4677 -0.1212
 2600SOL    HW1 9241   4.029   1.881   0.817  0.4629  1.0490  0.9331
 2600SOL    HW2 9242   3.945   2.007   0.814 -0.7490  0.2355 -0.6917
 2601SOL     OW 9243   7.310   7.352  11.017  0.3409 -0.3002  0.4372
 2601SOL    HW1 9244   7.308   7.268  10.971  0.1853 -0.5576  0.9094
 2601SOL    HW2 9245   7.268   7.335  11.101  0.1077  0.3040  0.4524
 2602SOL     OW 9246   0.855   5.792  10.484 -0.4159 -0.1918  0.4937
 2602SOL    HW1 9247   0.891   5.776  10.571  1.1563  1.7415  0.2526
 2602SOL    HW2 9248   0.869   5.885  10.468 -0.6426 -0.4995 -1.8544
 2603SOL     OW 9249   3.455   1.539  11.365  0.8432  0.2641  0.3897
 2603SOL    HW1 9250   3.362   1.555  11.347  1.0176  0.8543 -0.0400
 2603SOL    HW2 9251   3.499   1.619  11.336  1.5614 -0.2730 -0.0633
 2604SOL     OW 9252   7.007   2.780   9.418 -0.4077 -0.5453 -0.4183
 2604SOL    HW1 9253   6.960   2.791   9.501  1.5307  0.6451  0.6013
 2604SOL    HW2 9254   6.942   2.797   9.351 -2.2207 -2.2559  0.8071
 2605SOL     OW 9255   7.845   4.480   6.927 -0.7306 -0.1398  0.3280
 2605SOL    HW1 9256   7.919   4.494   6.868 -0.5025  0.9349  0.8524
 2605SOL    HW2 9257   7.841   4.559   6.982 -1.3017 -0.8436  1.3554
 2606SOL     OW 9258   5.543   5.335   6.309 -0.2952 -0.3436  0.1230
 2606SOL    HW1 9259   5.543   5.291   6.224  0.8379 -1.9395  0.8710
 2606SOL    HW2 9260   5.501   5.272   6.368 -0.7897  0.6068  0.8112
 2607SOL     OW 9261   3.536   4.723   2.882 -0.1116  0.0069  0.0471
 2607SOL    HW1 9262   3.487   4.805   2.880  0.3060  0.2500 -1.9358
 2607SOL    HW2 9263   3.481   4.660   2.836 -0.6520 -1.0218  1.9770
 2608SOL     OW 9264   3.930   3.592   0.609  0.0374 -0.2538  0.4059
 2608SOL    HW1 9265   3.855   3.569   0.554 -0.8696 -2.0062  2.2305
 2608SOL    HW2 9266   4.006   3.587   0.551 -0.9854 -0.9678 -0.9202
 2609SOL     OW 9267   4.338   4.234   3.020 -0.1724 -0.2633 -0.0122
 2609SOL    HW1 9268   4.303   4.306   2.968  0.6124 -0.0562 -0.2739
 2609SOL    HW2 9269   4.357   4.273   3.105 -0.2755 -0.3020  0.0293
 2610SOL     OW 9270   4.455   2.952   7.980 -0.1495 -0.6220  0.1824
 2610SOL    HW1 9271   4.465   3.047   7.980  1.1421 -0.7241 -1.1275
 2610SOL    HW2 9272   4.405   2.933   8.060 -1.2301  1.2206 -0.0045
 2611SOL     OW 9273   6.467   0.124   8.057  0.4452 -0.1002 -0.3912
 2611SOL    HW1 9274   6.451   0.141   7.964  2.0676 -0.2714 -0.7408
 2611SOL    HW2 9275   6.538   0.184   8.080  0.1131 -0.1126  0.7307
 2612SOL     OW 9276   4.178   2.013   6.163  0.4766 -0.2645  0.0730
 2612SOL    HW1 9277   4.244   2.014   6.231 -0.1239 -2.5830  0.7979
 2612SOL    HW2 9278   4.207   1.945   6.102 -0.4870 -0.2759 -0.3948
 2613SOL     OW 9279   4.098   2.767   6.727 -0.1281 -0.0374 -0.2655
 2613SOL    HW1 9280   4.102   2.849   6.676 -1.9648  0.8419  0.9141
 2613SOL    HW2 9281   4.019   2.723   6.695 -0.7913  0.0884  1.1594
 2614SOL     OW 9282   0.038   7.842   2.990 -0.4004  0.1282 -0.6646
 2614SOL    HW1 9283   0.035   7.899   3.067 -0.3791 -2.4242  1.3736
 2614SOL    HW2 9284   0.112   7.784   3.005 -1.3771 -1.5216 -1.7804
 2615SOL     OW 9285   4.194   0.508   4.323  0.0387  0.8368 -0.2129
 2615SOL    HW1 9286   4.139   0.586   4.319 -0.1595  0.6837 -0.4423
 2615SOL    HW2 9287   4.152   0.453   4.389 -0.5745  0.3433 -0.9944
 2616SOL     OW 9288   7.295   5.957   8.997  0.4180 -0.1502  0.1452
 2616SOL    HW1 9289   7.301   5.932   8.905 -2.1183  0.5781 -0.2961
 2616SOL    HW2 9290   7.339   6.042   9.002  1.9254 -0.8905 -0.0298
 2617SOL     OW 9291   6.293   5.835   5.963 -0.1245  0.3625  0.4678
 2617SOL    HW1 9292   6.346   5.910   5.937 -0.6158  0.4367 -0.3199
 2617SOL    HW2 9293   6.357   5.769   5.991  0.3196  0.9552  0.8728
 2618SOL     OW 9294   7.172   5.632   6.050 -0.5053 -0.1093  0.1070
 2618SOL    HW1 9295   7.151   5.597   6.137  0.6910 -2.0056 -0.2973
 2618SOL    HW2 9296   7.087   5.639   6.006 -1.0503  0.1596  1.1544
 2619SOL     OW 9297   4.335   6.706   0.007  0.5871  0.0137  0.0149
 2619SOL    HW1 9298   4.352   6.662  -0.077 -1.6221 -1.2780  0.1721
 2619SOL    HW2 9299   4.257   6.759  -0.009 -2.0071 -2.8778  2.0060
 2620SOL     OW 9300   6.972   6.627   7.931  0.5490 -0.1286 -0.6094
 2620SOL    HW1 9301   7.063   6.636   7.901  0.6480 -0.3059 -0.3698
 2620SOL    HW2 9302   6.942   6.717   7.944  0.4434 -0.0433 -1.4150
 2621SOL     OW 9303   0.419   4.225   7.379  0.1593  0.2802  0.2964
 2621SOL    HW1 9304   0.421   4.246   7.286 -1.0085  0.5109  0.3116
 2621SOL    HW2 9305   0.340   4.267   7.412 -0.2481 -1.0202  1.0828
 2622SOL     OW 9306   6.737   2.436   3.432 -0.0711 -0.3448  0.3872
 2622SOL    HW1 9307   6.669   2.433   3.365  0.4039 -0.6603 -0.0926
 2622SOL    HW2 9308   6.786   2.355   3.420  0.8831  0.2517  0.1946
 2623SOL     OW 9309   2.328   2.174   6.107 -0.3702 -0.2049 -0.7092
 2623SOL    HW1 9310   2.269   2.221   6.048  0.8645 -0.8606 -2.5511
 2623SOL    HW2 9311   2.408   2.226   6.107  0.8001 -1.8776 -2.2930
 2624SOL     OW 9312   1.599   4.302   4.588 -0.4877  0.1026 -0.4852
 2624SOL    HW1 9313   1.597   4.290   4.493 -2.4185 -1.3947 -0.3404
 2624SOL    HW2 9314   1.634   4.219   4.621  0.3260  0.6798  0.1097
 2625SOL     OW 9315   1.497   6.957   4.988  0.0136  0.5559  0.0965
 2625SOL    HW1 9316   1.498   7.046   4.951 -1.4196  0.4489 -0.2610
 2625SOL    HW2 9317   1.423   6.914   4.945  1.1353 -1.0769 -0.2862
 2626SOL     OW 9318   6.110   6.499   0.113 -0.0472 -0.5125 -0.1951
 2626SOL    HW1 9319   6.201   6.518   0.136  0.3454 -1.3953 -0.9575
 2626SOL    HW2 9320   6.073   6.584   0.090  0.6954 -0.1997 -0.2604
 2627SOL     OW 9321   5.851   4.019  11.428  0.2277  0.6472 -0.0434
 2627SOL    HW1 9322   5.790   3.967  11.480  0.0878  0.3561 -0.4880
 2627SOL    HW2 9323   5.805   4.102  11.414  0.4976  0.9382  0.7611
 2628SOL     OW 9324   2.328   3.580   2.007 -0.2587  0.6087 -0.0435
 2628SOL    HW1 9325   2.384   3.623   2.071 -0.1278  0.0360  0.2286
 2628SOL    HW2 9326   2.390   3.541   1.945 -0.3557 -0.1030  0.3089
 2629SOL     OW 9327   2.549   3.209  11.145 -0.1357 -0.2531 -0.0256
 2629SOL    HW1 9328   2.589   3.177  11.065  2.1541 -1.1281  1.3594
 2629SOL    HW2 9329   2.455   3.191  11.135  0.2943 -1.7431 -1.8206
 2630SOL     OW 9330   2.770   6.047   4.857 -0.6501 -0.2262 -0.3800
 2630SOL    HW1 9331   2.783   6.138   4.829 -1.5503 -0.4242 -1.5052
 2630SOL    HW2 9332   2.822   5.996   4.795  1.4342 -0.4243  1.3940
 2631SOL     OW 9333   6.073   3.179  10.189  0.0065 -0.6039  0.3024
 2631SOL    HW1 9334   6.167   3.169  10.174 -0.0987 -1.4197  0.1374
 2631SOL    HW2 9335   6.045   3.094  10.220 -0.9072 -0.7626 -0.8743
 2632SOL     OW 9336   1.836   3.534   1.543  0.0768  0.0857  0.2710
 2632SOL    HW1 9337   1.787   3.610   1.576  0.4414  0.3643  0.1715
 2632SOL    HW2 9338   1.862   3.559   1.455  1.3645  0.3895  0.7219
 2633SOL     OW 9339   0.416   5.702   5.890  0.0570  0.1418  0.0832
 2633SOL    HW1 9340   0.379   5.727   5.975 -1.3679 -1.5678  0.0169
 2633SOL    HW2 9341   0.501   5.747   5.887  0.0557  0.4121  2.3204
 2634SOL     OW 9342   4.185   3.108   3.544  0.2527  0.4626 -1.0882
 2634SOL    HW1 9343   4.272   3.148   3.540  1.4089 -1.8849 -0.8155
 2634SOL    HW2 9344   4.125   3.178   3.517  2.1680  2.2553 -0.8978
 2635SOL     OW 9345   2.098   3.789   6.064 -0.0946 -0.7173 -0.1615
 2635SOL    HW1 9346   2.179   3.812   6.109 -0.6812 -1.3007  1.2859
 2635SOL    HW2 9347   2.040   3.863   6.078 -0.3266 -0.9588  0.1799
 2636SOL     OW 9348   0.145   2.251   0.681  0.0016  0.7298 -0.4036
 2636SOL    HW1 9349   0.239   2.257   0.696  0.1740 -2.0517  0.1448
 2636SOL    HW2 9350   0.133   2.165   0.639 -2.3299  0.7938  0.0037
 2637SOL     OW 9351   1.934   0.321  10.651  0.1663 -0.2373 -0.7542
 2637SOL    HW1 9352   1.865   0.380  10.619 -0.9249 -1.4497 -0.7423
 2637SOL    HW2 9353   1.959   0.270  10.574  2.6567  1.6119 -1.3031
 2638SOL     OW 9354   1.190   5.922   0.642  0.1172  0.3574  1.1490
 2638SOL    HW1 9355   1.095   5.931   0.649 -0.2230 -0.8707 -0.8995
 2638SOL    HW2 9356   1.226   5.993   0.695 -1.9037  0.0612  3.0483
 2639SOL     OW 9357   6.375   5.955   7.070  0.9995 -0.2078 -0.3074
 2639SOL    HW1 9358   6.426   5.998   7.138 -0.0544 -1.0300  1.0609
 2639SOL    HW2 9359   6.359   5.867   7.103  0.7561 -0.7626 -1.7940
 2640SOL     OW 9360   6.486   3.322   8.659  0.0543 -0.2766 -0.4614
 2640SOL    HW1 9361   6.559   3.279   8.614  1.5516  2.5922 -1.0518
 2640SOL    HW2 9362   6.443   3.374   8.591 -0.4476  0.6574  0.5368
 2641SOL     OW 9363   1.924   7.001  11.994 -0.1086 -0.1275  0.3064
 2641SOL    HW1 9364   1.917   6.961  11.907  0.7149  1.9352 -0.7823
 2641SOL    HW2 9365   1.990   6.949  12.039 -0.4274 -1.1299 -0.3557
 2642SOL     OW 9366   1.379   7.717   6.783 -0.0625 -0.1845 -0.6237
 2642SOL    HW1 9367   1.314   7.652   6.754 -1.2488  0.8120 -0.2894
 2642SOL    HW2 9368   1.418   7.679   6.861 -0.1061 -0.8842 -0.9355
 2643SOL     OW 9369   5.368   4.480   3.216 -0.1726 -0.0629 -0.2368
 2643SOL    HW1 9370   5.375   4.438   3.131 -0.7012  0.4731 -0.5541
 2643SOL    HW2 9371   5.281   4.455   3.248 -0.9589  1.6249 -0.9118
 2644SOL     OW 9372   3.526   0.707   9.177  0.0791 -0.1997  0.4773
 2644SOL    HW1 9373   3.500   0.789   9.136  0.3582  0.2844  1.2432
 2644SOL    HW2 9374   3.575   0.734   9.255  1.3908 -1.0710  0.0012
 2645SOL     OW 9375   0.109   5.160  10.892  0.5602 -0.0650 -0.4538
 2645SOL    HW1 9376   0.174   5.114  10.839 -0.3766  1.3450 -3.0069
 2645SOL    HW2 9377   0.035   5.172  10.833 -0.6175  1.5381  1.2368
 2646SOL     OW 9378   4.579   5.048   6.443 -0.2339 -0.0173 -0.0959
 2646SOL    HW1 9379   4.670   5.054   6.473  0.0138 -3.2795  0.1920
 2646SOL    HW2 9380   4.527   5.061   6.523  0.0599  0.1648  0.0659
 2647SOL     OW 9381   6.377   3.915   0.843  0.1163  0.4376  0.2730
 2647SOL    HW1 9382   6.403   3.932   0.752  0.0797  0.7257  0.3133
 2647SOL    HW2 9383   6.282   3.931   0.844 -0.1161 -0.8259  0.0765
 2648SOL     OW 9384   3.300   0.228   8.934  0.1686 -0.5757 -0.1381
 2648SOL    HW1 9385   3.343   0.169   8.872  0.6214  0.6182 -0.9792
 2648SOL    HW2 9386   3.346   0.212   9.017  2.7718  1.1141 -1.1447
 2649SOL     OW 9387   3.151   2.753   8.364  0.3429 -0.0408 -0.3416
 2649SOL    HW1 9388   3.079   2.810   8.390  1.2929  1.9093 -1.6870
 2649SOL    HW2 9389   3.215   2.813   8.325  3.3396 -1.4214  2.0171
 2650SOL     OW 9390   5.150   1.992   6.074  0.3071  0.3655 -0.1658
 2650SOL    HW1 9391   5.070   1.977   6.123 -1.3042  1.8857 -2.1779
 2650SOL    HW2 9392   5.197   2.059   6.124  0.1118 -0.1648  0.7549
 2651SOL     OW 9393   0.631   2.078   8.873 -0.2070 -0.7103 -0.3494
 2651SOL    HW1 9394   0.682   2.000   8.851  1.0463  0.2064 -0.7848
 2651SOL    HW2 9395   0.554   2.072   8.816 -0.3361 -1.8108 -0.0949
 2652SOL     OW 9396   3.268   0.039  12.172 -0.3908  0.5671 -0.2495
 2652SOL    HW1 9397   3.286   0.057  12.080  0.1124 -0.0568 -0.2887
 2652SOL    HW2 9398   3.177   0.012  12.174 -0.4453  0.7224 -0.5471
 2653SOL     OW 9399   6.452   3.017   7.176 -0.4416 -0.7683  0.0356
 2653SOL    HW1 9400   6.457   3.085   7.243  1.5582 -2.2553  1.4869
 2653SOL    HW2 9401   6.538   3.018   7.134 -1.0621 -1.0912 -1.2913
 2654SOL     OW 9402   7.660   5.187  10.642 -0.0028  0.0167  0.1161
 2654SOL    HW1 9403   7.614   5.144  10.570  0.0682  0.9461 -0.5071
 2654SOL    HW2 9404   7.629   5.278  10.639  0.1913  0.1288  1.1102
 2655SOL     OW 9405   6.987   3.122   4.467  0.6776  0.0955 -0.4046
 2655SOL    HW1 9406   6.993   3.054   4.401  2.7836 -2.6965  2.3919
 2655SOL    HW2 9407   7.067   3.174   4.457  0.0649  0.9196 -1.2052
 2656SOL     OW 9408   1.099   3.564   1.562 -0.3006 -0.3331 -0.0944
 2656SOL    HW1 9409   1.096   3.630   1.631 -1.0148 -0.2313 -0.2235
 2656SOL    HW2 9410   1.186   3.524   1.572  0.2534  0.8061 -0.1961
 2657SOL     OW 9411   1.425   5.067   3.925 -0.9038  0.1805 -0.1283
 2657SOL    HW1 9412   1.486   5.106   3.988  1.7343  0.0768 -2.4224
 2657SOL    HW2 9413   1.417   4.976   3.953  0.7248 -0.0242 -0.2290
 2658SOL     OW 9414   7.702   6.675   2.683  0.6355 -0.2814 -0.5162
 2658SOL    HW1 9415   7.726   6.637   2.598 -1.8105 -0.1848 -1.3408
 2658SOL    HW2 9416   7.643   6.611   2.722  0.0198  0.6271  0.0948
 2659SOL     OW 9417   3.674   7.031   8.695 -0.4211  0.5978 -1.0315
 2659SOL    HW1 9418   3.686   6.937   8.687 -0.6124  0.4886 -0.1746
 2659SOL    HW2 9419   3.763   7.066   8.703 -0.4141  0.1721  1.5754
 2660SOL     OW 9420   7.698   5.377   2.852  0.4147  0.0927 -0.2884
 2660SOL    HW1 9421   7.706   5.454   2.908  3.3800  0.9241 -1.6167
 2660SOL    HW2 9422   7.707   5.411   2.763  2.3367 -1.7570 -0.8844
 2661SOL     OW 9423   1.422   1.386  11.348  0.2740 -0.0347  0.4314
 2661SOL    HW1 9424   1.361   1.459  11.358  1.8569  1.2924  0.7625
 2661SOL    HW2 9425   1.403   1.328  11.422 -1.7708 -0.6080 -0.4744
 2662SOL     OW 9426   3.271   5.664   4.065 -0.1597  0.0455  0.0001
 2662SOL    HW1 9427   3.231   5.610   4.133  0.0962  1.2391  1.1663
 2662SOL    HW2 9428   3.202   5.726   4.041 -0.2246 -0.3306 -0.7876
 2663SOL     OW 9429   0.634   3.967  11.745  0.1531  0.3611  0.7052
 2663SOL    HW1 9430   0.636   4.063  11.752 -1.4698  0.4928 -0.2182
 2663SOL    HW2 9431   0.548   3.942  11.779 -0.4095 -0.5211 -1.2026
 2664SOL     OW 9432   6.831   3.919   0.935 -0.4340 -0.1019  0.4832
 2664SOL    HW1 9433   6.839   3.941   0.842  1.0871 -0.3340  0.5324
 2664SOL    HW2 9434   6.749   3.870   0.942  0.7297 -2.4692 -1.2270
 2665SOL     OW 9435   7.766   1.106   7.361 -0.6160 -0.3411  0.2910
 2665SOL    HW1 9436   7.770   1.098   7.266  1.8874 -1.4101  0.4066
 2665SOL    HW2 9437   7.854   1.132   7.387 -1.2596 -0.0109  2.3212
 2666SOL     OW 9438   1.963   0.970  12.248 -0.5086 -0.1031  0.1563
 2666SOL    HW1 9439   2.050   0.939  12.270 -0.1279  0.4924 -0.4519
 2666SOL    HW2 9440   1.903   0.914  12.298  0.1660 -1.3717 -0.4190
 2667SOL     OW 9441   3.427   2.414   8.958  0.1512 -0.3142 -0.6954
 2667SOL    HW1 9442   3.393   2.363   8.885  1.6488 -0.3210 -1.4245
 2667SOL    HW2 9443   3.480   2.353   9.008  2.6947  0.6239 -2.0739
 2668SOL     OW 9444   2.475   1.737   8.895  0.8629  0.1607 -0.1483
 2668SOL    HW1 9445   2.501   1.802   8.961 -0.3918  0.5036  0.0388
 2668SOL    HW2 9446   2.557   1.703   8.861  1.5678 -0.3376  1.9145
 2669SOL     OW 9447   1.976   4.050   6.446  0.5445  0.1464 -0.0216
 2669SOL    HW1 9448   1.985   3.970   6.394  1.2057 -0.4183  0.9257
 2669SOL    HW2 9449   2.003   4.024   6.534  2.1570  1.7402  0.0167
 2670SOL     OW 9450   7.860   2.959   6.850 -0.3059  0.2033  0.4051
 2670SOL    HW1 9451   7.901   2.889   6.800  0.4160  1.1522 -0.3660
 2670SOL    HW2 9452   7.866   2.930   6.941  2.7715  0.5801  0.4385
 2671SOL     OW 9453   7.801   6.599   6.053  0.0184  0.4464 -0.0694
 2671SOL    HW1 9454   7.739   6.562   6.115 -0.1460  0.9199  0.0543
 2671SOL    HW2 9455   7.881   6.614   6.104 -0.2804  1.3129  0.1635
 2672SOL     OW 9456   5.184   0.767  10.688  0.0274 -0.2362  0.0838
 2672SOL    HW1 9457   5.153   0.707  10.620 -1.3655 -1.0194  1.3462
 2672SOL    HW2 9458   5.142   0.850  10.669 -0.0770 -0.3569 -0.2131
 2673SOL     OW 9459   0.310   4.370   5.298 -0.2913  0.4694  0.0146
 2673SOL    HW1 9460   0.214   4.366   5.290 -0.4176 -0.2198  1.5660
 2673SOL    HW2 9461   0.342   4.328   5.218 -1.3581 -1.8560  0.7083
 2674SOL     OW 9462   2.998   2.182   9.625  0.0588 -0.0199 -0.2342
 2674SOL    HW1 9463   3.011   2.123   9.552  0.4838 -1.2841  0.8223
 2674SOL    HW2 9464   2.918   2.231   9.603  0.0407 -0.5563 -1.3987
 2675SOL     OW 9465   1.556   2.372   7.993 -0.2694  0.1325 -0.2988
 2675SOL    HW1 9466   1.587   2.376   8.083  1.8287 -0.2763 -0.9461
 2675SOL    HW2 9467   1.514   2.286   7.985 -0.2961  0.0966  0.2288
 2676SOL     OW 9468   1.385   3.903   2.204  0.9656  0.2299  0.2487
 2676SOL    HW1 9469   1.319   3.844   2.241  1.5390 -0.4406  0.2126
 2676SOL    HW2 9470   1.334   3.976   2.170  0.0994 -0.9251 -1.0515
 2677SOL     OW 9471   0.260   6.120  10.600 -0.2284  0.3264 -0.1306
 2677SOL    HW1 9472   0.184   6.177  10.616  0.9182  1.7753  0.3109
 2677SOL    HW2 9473   0.327   6.152  10.660  0.6810 -1.0804 -0.3595
 2678SOL     OW 9474   3.268   4.244   1.369  0.6138  0.5769  0.3619
 2678SOL    HW1 9475   3.343   4.187   1.386 -0.3449 -0.9741 -0.4061
 2678SOL    HW2 9476   3.303   4.312   1.311  1.1796 -0.8834 -1.1137
 2679SOL     OW 9477   2.826   0.074   1.456  0.4236 -0.0211  0.0384
 2679SOL    HW1 9478   2.803  -0.015   1.483  1.4523 -0.6814 -1.1690
 2679SOL    HW2 9479   2.922   0.076   1.458  0.4403  0.7882 -0.7817
 2680SOL     OW 9480   7.838   0.840   0.281  0.0040 -0.0130 -0.3863
 2680SOL    HW1 9481   7.908   0.900   0.257  3.9763 -4.5159 -1.7373
 2680SOL    HW2 9482   7.819   0.792   0.200 -1.8136 -1.5308  0.8582
 2681SOL     OW 9483   2.856   2.117   3.468  0.1803  0.2382  0.3183
 2681SOL    HW1 9484   2.808   2.098   3.387  0.5135 -3.1684  0.7550
 2681SOL    HW2 9485   2.947   2.127   3.441  0.3332 -1.1651  0.2130
 2682SOL     OW 9486   5.512   1.857   9.367 -0.7310  0.2974  0.0308
 2682SOL    HW1 9487   5.567   1.833   9.442 -0.1601  0.2667 -0.3926
 2682SOL    HW2 9488   5.424   1.829   9.393 -0.2340 -1.5913 -0.1219
 2683SOL     OW 9489   7.961   3.131  10.003  0.1473  0.0757  0.0214
 2683SOL    HW1 9490   7.982   3.217   9.965  0.6449  0.3737  0.9206
 2683SOL    HW2 9491   7.866   3.130  10.009 -0.0464 -0.4835 -2.3192
 2684SOL     OW 9492   4.094   0.876   3.623  0.6441  0.1254  0.3061
 2684SOL    HW1 9493   4.085   0.904   3.715  0.1740 -0.9849  0.6140
 2684SOL    HW2 9494   4.094   0.781   3.627  1.2618  0.0634 -0.8057
 2685SOL     OW 9495   6.806   6.582  12.164 -0.0511  0.1539 -0.5266
 2685SOL    HW1 9496   6.784   6.650  12.227  1.3895 -0.7681  1.0804
 2685SOL    HW2 9497   6.773   6.501  12.204  0.5983 -0.4039 -1.0902
 2686SOL     OW 9498   6.181   1.521   9.848  0.4028  0.0088  0.1684
 2686SOL    HW1 9499   6.114   1.559   9.791  0.6438 -1.1518 -0.9414
 2686SOL    HW2 9500   6.201   1.590   9.911 -0.4590  1.0469 -0.6523
 2687SOL     OW 9501   6.891   3.591   0.989 -0.4299  0.4365  0.1279
 2687SOL    HW1 9502   6.796   3.580   0.998 -0.4047 -2.4016 -1.7363
 2687SOL    HW2 9503   6.908   3.580   0.895  1.8455 -0.2329  0.5509
 2688SOL     OW 9504   3.466   2.044   3.824  0.1993 -0.0960  0.3541
 2688SOL    HW1 9505   3.505   1.957   3.835  1.7003  0.4804 -0.2975
 2688SOL    HW2 9506   3.497   2.075   3.740 -0.6094  0.9521  0.4149
 2689SOL     OW 9507   0.617   7.709   9.114 -0.1968  0.6756 -0.1316
 2689SOL    HW1 9508   0.628   7.634   9.057 -2.0226  0.7001 -0.5778
 2689SOL    HW2 9509   0.642   7.677   9.201 -2.1614 -0.8901 -0.0604
 2690SOL     OW 9510   1.336   6.817   8.223  0.2238 -0.0740  1.0679
 2690SOL    HW1 9511   1.255   6.864   8.246  0.3605  0.4492  0.5388
 2690SOL    HW2 9512   1.380   6.801   8.306  1.1716  2.5810  1.1935
 2691SOL     OW 9513   4.869   0.257   0.588  0.2447 -0.4554 -0.4878
 2691SOL    HW1 9514   4.774   0.242   0.586  0.1332 -0.1691 -4.6405
 2691SOL    HW2 9515   4.878   0.348   0.614 -0.7193 -0.1405 -1.2004
 2692SOL     OW 9516   1.591   4.033   0.206 -0.8603  0.3964  0.4476
 2692SOL    HW1 9517   1.539   4.069   0.134 -1.0030 -0.6811  0.0017
 2692SOL    HW2 9518   1.598   3.940   0.187  0.5721  0.3778  0.9216
 2693SOL     OW 9519   4.054   6.535  11.048  0.0859 -0.7491 -0.2822
 2693SOL    HW1 9520   3.987   6.502  11.108  0.4163 -0.8824  0.0157
 2693SOL    HW2 9521   4.041   6.485  10.968 -0.9326  0.0551 -0.6351
 2694SOL     OW 9522   7.849   6.885  11.654 -0.2657 -0.1510  0.4156
 2694SOL    HW1 9523   7.831   6.901  11.747  0.7081 -0.0640  0.5963
 2694SOL    HW2 9524   7.887   6.967  11.623 -2.0512  0.3996 -0.4793
 2695SOL     OW 9525   1.964   5.825   0.936  0.5442  0.4302 -0.0333
 2695SOL    HW1 9526   2.051   5.785   0.934  1.5135  2.4473 -0.6942
 2695SOL    HW2 9527   1.981   5.918   0.948 -1.4825  1.0318 -1.4000
 2696SOL     OW 9528   3.307   1.963  11.643 -0.4652  0.0729 -0.2641
 2696SOL    HW1 9529   3.318   1.870  11.663  0.2357  0.1876 -0.0697
 2696SOL    HW2 9530   3.315   1.968  11.547 -1.1190 -0.1398 -0.3337
 2697SOL     OW 9531   3.085   6.734   2.961  0.0390 -0.6220 -0.0397
 2697SOL    HW1 9532   3.005   6.774   2.927  0.4879 -1.3284 -2.0616
 2697SOL    HW2 9533   3.080   6.747   3.056 -0.7500  2.4696 -0.3925
 2698SOL     OW 9534   6.925   2.365   8.358 -0.5266  0.2226  0.0192
 2698SOL    HW1 9535   6.909   2.285   8.309 -1.7098  0.5995 -0.2594
 2698SOL    HW2 9536   6.918   2.435   8.292  0.2440  0.5778  0.3005
 2699SOL     OW 9537   6.922   2.832  12.193 -0.0033 -0.3490 -0.2858
 2699SOL    HW1 9538   6.845   2.777  12.178 -1.7907  1.9626 -0.1635
 2699SOL    HW2 9539   6.961   2.798  12.274 -0.8187 -1.6049 -0.3877
 2700SOL     OW 9540   1.006   0.617   2.570 -0.2224  0.1109  0.8184
 2700SOL    HW1 9541   0.925   0.652   2.534 -0.2664 -0.7572  0.0378
 2700SOL    HW2 9542   1.022   0.537   2.520  2.0334  1.1414 -0.2730
 2701SOL     OW 9543   3.193   6.300   8.401 -0.0630  0.2058  0.1699
 2701SOL    HW1 9544   3.248   6.248   8.460  0.5407 -1.0272 -1.4100
 2701SOL    HW2 9545   3.144   6.235   8.350 -1.1676  1.2481 -0.1385
 2702SOL     OW 9546   6.473   5.820   4.258 -0.2252 -0.1246 -0.1958
 2702SOL    HW1 9547   6.429   5.853   4.180 -0.0289 -0.7484 -0.5676
 2702SOL    HW2 9548   6.460   5.725   4.256 -0.7180 -0.0983  0.8301
 2703SOL     OW 9549   6.338   0.654   3.702  0.1314  0.2314 -0.8686
 2703SOL    HW1 9550   6.385   0.594   3.644  1.5332  0.8369 -0.4150
 2703SOL    HW2 9551   6.395   0.731   3.707 -0.2601  0.4468  0.7852
 2704SOL     OW 9552   4.369   0.993   8.187 -0.2828  0.5923  0.4093
 2704SOL    HW1 9553   4.414   0.928   8.133  0.6355  0.7735  0.9319
 2704SOL    HW2 9554   4.292   0.947   8.220  0.0026 -0.0309  0.2356
 2705SOL     OW 9555   2.216   2.053   8.493  0.5718 -0.2101  0.3759
 2705SOL    HW1 9556   2.196   2.081   8.582 -1.9916 -0.6722  0.0215
 2705SOL    HW2 9557   2.245   2.132   8.449 -1.4149  0.8129  0.7802
 2706SOL     OW 9558   4.946   1.617   5.712 -0.2709  0.2472 -0.3325
 2706SOL    HW1 9559   5.031   1.632   5.753 -0.4286 -1.1922  0.5630
 2706SOL    HW2 9560   4.953   1.530   5.673 -1.7302 -0.4452  0.8668
 2707SOL     OW 9561   2.817   0.902   4.740 -0.0428 -0.1502  0.4340
 2707SOL    HW1 9562   2.830   0.807   4.745  0.3629 -0.1007  0.3104
 2707SOL    HW2 9563   2.812   0.930   4.832 -3.0028 -0.6639  0.5261
 2708SOL     OW 9564   5.134   3.221   3.912 -0.5182 -0.7725  0.4210
 2708SOL    HW1 9565   5.046   3.192   3.934 -0.9414  0.1141 -0.0387
 2708SOL    HW2 9566   5.132   3.316   3.923  0.0078 -0.5941 -0.7921
 2709SOL     OW 9567   7.107   4.791  10.571 -0.6666  0.0435  0.1274
 2709SOL    HW1 9568   7.197   4.760  10.554 -1.0446 -1.4907  0.7321
 2709SOL    HW2 9569   7.086   4.845  10.495  0.8935  0.7467  0.1472
 2710SOL     OW 9570   4.787   7.186   9.777  0.5431  0.0178 -0.2701
 2710SOL    HW1 9571   4.765   7.102   9.737  0.8344  0.3151 -1.0722
 2710SOL    HW2 9572   4.865   7.168   9.829  0.5724 -0.2168 -0.3950
 2711SOL     OW 9573   7.858   6.128   7.925  0.5849 -0.3598  0.1489
 2711SOL    HW1 9574   7.886   6.037   7.936  2.6806  0.0525 -1.2250
 2711SOL    HW2 9575   7.939   6.179   7.930 -0.5189  1.4352  0.6829
 2712SOL     OW 9576   1.467   0.148   5.453 -0.1763 -0.4530  0.0421
 2712SOL    HW1 9577   1.437   0.147   5.363 -1.4479 -1.9315  0.4320
 2712SOL    HW2 9578   1.453   0.058   5.484  2.3407 -0.5860  1.0439
 2713SOL     OW 9579   6.917   7.699   0.627 -0.4217 -0.0791  0.5662
 2713SOL    HW1 9580   6.950   7.623   0.580  0.5800  0.4066  0.4506
 2713SOL    HW2 9581   6.828   7.676   0.651 -0.5010 -0.8578 -0.4141
 2714SOL     OW 9582   0.206   4.931   6.893  0.2650 -0.0942  0.6632
 2714SOL    HW1 9583   0.218   4.866   6.824  0.5608 -1.4934  1.9804
 2714SOL    HW2 9584   0.147   4.996   6.855  1.0513 -0.4025 -1.1602
 2715SOL     OW 9585   7.462   4.576   6.321  0.4889  0.3019 -0.1370
 2715SOL    HW1 9586   7.494   4.512   6.257  0.2051  0.1284 -0.1066
 2715SOL    HW2 9587   7.542   4.611   6.361  0.6241 -1.1810  0.9830
 2716SOL     OW 9588   0.560   5.234   0.275 -0.2354  0.0967  0.4470
 2716SOL    HW1 9589   0.517   5.298   0.218 -0.3508  0.1360  0.5782
 2716SOL    HW2 9590   0.572   5.157   0.219 -1.2668 -0.2298  0.6433
 2717SOL     OW 9591   4.560   7.222   7.863 -0.3594  0.2451 -0.1729
 2717SOL    HW1 9592   4.474   7.189   7.837 -0.7132  0.5321  0.5996
 2717SOL    HW2 9593   4.599   7.151   7.914  0.1086 -0.1082 -1.0110
 2718SOL     OW 9594   1.236   2.704   4.093  0.1866 -0.3670  0.7919
 2718SOL    HW1 9595   1.250   2.761   4.169  1.0646 -0.2039  0.5173
 2718SOL    HW2 9596   1.319   2.658   4.082 -0.4338 -1.5521  0.8691
 2719SOL     OW 9597   3.358   1.635   3.824  0.3415 -0.0449  0.6996
 2719SOL    HW1 9598   3.297   1.568   3.792 -1.1942  1.0347  1.2223
 2719SOL    HW2 9599   3.419   1.649   3.751 -0.4261 -0.7061 -0.0978
 2720SOL     OW 9600   7.935   2.535   6.313  0.7288  0.4264 -0.0402
 2720SOL    HW1 9601   7.896   2.477   6.248  0.5049  0.4688  0.0556
 2720SOL    HW2 9602   8.003   2.481   6.355  0.9201  0.4201 -0.3514
 2721SOL     OW 9603   3.028   3.857  11.135  0.5082 -0.1299  0.1199
 2721SOL    HW1 9604   3.017   3.944  11.097 -1.9285 -0.4798 -0.1348
 2721SOL    HW2 9605   3.088   3.812  11.076  2.2576  1.4922  0.5562
 2722SOL     OW 9606   1.089   1.919   0.512  0.4914  0.1780  0.1080
 2722SOL    HW1 9607   1.088   1.824   0.521  0.8900  0.2233  0.6935
 2722SOL    HW2 9608   1.173   1.946   0.549 -0.0056  0.8257  0.8155
 2723SOL     OW 9609   4.811   0.605   6.346 -0.0123  0.1374 -0.4650
 2723SOL    HW1 9610   4.806   0.580   6.253 -1.5119 -0.6021 -0.2294
 2723SOL    HW2 9611   4.867   0.538   6.385 -0.9803 -0.7310 -0.5119
 2724SOL     OW 9612   3.865   2.207   2.169  0.3906 -0.6437  0.3930
 2724SOL    HW1 9613   3.817   2.241   2.244 -0.2937 -2.6783  0.9483
 2724SOL    HW2 9614   3.951   2.181   2.204 -0.3608 -2.7481  0.8273
 2725SOL     OW 9615   0.373   7.397  12.330 -0.0016  0.0481  0.1591
 2725SOL    HW1 9616   0.439   7.383  12.397 -1.4018 -2.3995  1.1648
 2725SOL    HW2 9617   0.291   7.409  12.380 -0.7984 -0.0982 -1.0695
 2726SOL     OW 9618   5.382   7.695   0.025 -0.2680  0.2086 -0.0315
 2726SOL    HW1 9619   5.308   7.685  -0.035 -1.9955  0.4594  1.9072
 2726SOL    HW2 9620   5.379   7.616   0.079 -2.3761  2.3142  3.3056
 2727SOL     OW 9621   4.351   0.582   3.187 -0.0543 -0.4802  0.5539
 2727SOL    HW1 9622   4.316   0.668   3.165  0.1124 -0.0476  1.9046
 2727SOL    HW2 9623   4.433   0.576   3.139 -0.2268 -0.0261  0.1969
 2728SOL     OW 9624   7.036   3.101   9.614  0.1072  0.0354 -0.2680
 2728SOL    HW1 9625   7.062   3.012   9.594 -2.6850 -1.3810  1.6625
 2728SOL    HW2 9626   7.014   3.140   9.529  1.0823 -1.1919 -1.1121
 2729SOL     OW 9627   2.109   4.243  11.426 -0.1257  0.7859  0.6563
 2729SOL    HW1 9628   2.073   4.324  11.462 -0.1337 -0.2905  3.3133
 2729SOL    HW2 9629   2.104   4.181  11.498  2.1313 -0.9176 -0.5299
 2730SOL     OW 9630   3.145   2.620   1.633 -0.1849  0.1979 -0.0839
 2730SOL    HW1 9631   3.075   2.623   1.567  0.6795 -0.5405 -1.0543
 2730SOL    HW2 9632   3.169   2.712   1.645 -1.4893  0.5022  0.4805
 2731SOL     OW 9633   3.409   3.263   0.688 -0.3310  0.6382  0.1554
 2731SOL    HW1 9634   3.488   3.261   0.633 -0.6624  1.0246 -0.3446
 2731SOL    HW2 9635   3.436   3.223   0.771 -0.3174 -1.8031 -0.9278
 2732SOL     OW 9636   6.049   6.501   0.666 -0.5807  0.6191 -0.1677
 2732SOL    HW1 9637   5.971   6.543   0.631 -1.4878 -1.4177 -0.6859
 2732SOL    HW2 9638   6.078   6.441   0.598  1.8336  1.7002 -0.2369
 2733SOL     OW 9639   7.830   6.264   5.873 -0.1346  0.0639  0.7040
 2733SOL    HW1 9640   7.736   6.263   5.888 -0.3106  0.5350 -0.2643
 2733SOL    HW2 9641   7.843   6.332   5.806  0.9451  0.3441  1.1690
 2734SOL     OW 9642   0.096   2.304   8.883  0.3772 -0.1308 -0.0961
 2734SOL    HW1 9643   0.190   2.312   8.873  0.2824  1.3940  0.0630
 2734SOL    HW2 9644   0.070   2.238   8.819  1.4753 -0.1896 -0.4883
 2735SOL     OW 9645   2.591   0.452   8.523  0.1368 -0.2286  0.3880
 2735SOL    HW1 9646   2.643   0.381   8.486  3.2427 -0.0161  3.7818
 2735SOL    HW2 9647   2.611   0.528   8.467  4.2230 -0.0342  1.7559
 2736SOL     OW 9648   4.832   3.203   4.098 -0.1692 -0.0487 -0.2146
 2736SOL    HW1 9649   4.770   3.223   4.028 -0.3945  0.6486  0.1716
 2736SOL    HW2 9650   4.891   3.278   4.100 -1.7648  1.3119  2.0619
 2737SOL     OW 9651   7.345   0.488   3.330  0.3270  0.0495 -0.3833
 2737SOL    HW1 9652   7.251   0.500   3.328  0.1710 -0.8963  0.5299
 2737SOL    HW2 9653   7.358   0.400   3.364  1.5508  0.3627  0.0441
 2738SOL     OW 9654   1.266   3.335  11.353  0.3180  0.1513 -0.3682
 2738SOL    HW1 9655   1.172   3.324  11.370  0.2702  0.2029 -0.6018
 2738SOL    HW2 9656   1.292   3.406  11.412  0.3490 -0.2882  0.1674
 2739SOL     OW 9657   7.392   2.612   9.128  0.6891 -0.6745 -0.1093
 2739SOL    HW1 9658   7.321   2.635   9.188 -0.5911  1.5675 -2.3155
 2739SOL    HW2 9659   7.459   2.679   9.144  1.0717 -1.0625 -0.0648
 2740SOL     OW 9660   0.541   4.000   6.140 -0.4687  0.3062  0.3376
 2740SOL    HW1 9661   0.635   4.008   6.160 -0.2749 -1.3116  0.1770
 2740SOL    HW2 9662   0.527   4.062   6.068  0.4380  0.7010  0.4858
 2741SOL     OW 9663   3.216   3.112  10.053  0.5172  0.4199 -0.7060
 2741SOL    HW1 9664   3.140   3.161  10.082  0.8131  0.7712 -0.5168
 2741SOL    HW2 9665   3.263   3.172   9.995  0.4554  0.0738 -1.1258
 2742SOL     OW 9666   5.131   4.867   3.493 -0.1933 -0.0694  0.5041
 2742SOL    HW1 9667   5.204   4.859   3.555 -1.1137  1.1463  1.8159
 2742SOL    HW2 9668   5.166   4.920   3.422  0.1377  0.7627  1.2681
 2743SOL     OW 9669   2.298   5.514   3.045  0.0209 -0.2057 -0.4266
 2743SOL    HW1 9670   2.256   5.491   3.128  1.0287 -1.2603 -0.1766
 2743SOL    HW2 9671   2.338   5.599   3.062 -0.4954 -0.0237 -0.1005
 2744SOL     OW 9672   1.898   5.498  11.055 -0.3160  0.1008 -0.1410
 2744SOL    HW1 9673   1.931   5.545  11.131 -1.5386  0.3807  0.2451
 2744SOL    HW2 9674   1.805   5.483  11.074 -0.7570  0.5548 -1.7554
 2745SOL     OW 9675   2.590   7.522   5.358  0.4331 -0.0964  0.0480
 2745SOL    HW1 9676   2.524   7.455   5.339  0.0264  0.3113  0.0051
 2745SOL    HW2 9677   2.672   7.474   5.366  0.9613 -0.2113 -4.1591
 2746SOL     OW 9678   3.303   0.894   7.583 -0.1225  0.1344  0.2171
 2746SOL    HW1 9679   3.327   0.806   7.554 -2.1159  0.3877 -2.7065
 2746SOL    HW2 9680   3.384   0.945   7.575  1.3198 -1.5168  2.9108
 2747SOL     OW 9681   2.334   0.954  11.313 -0.1853  0.3749 -0.1463
 2747SOL    HW1 9682   2.418   0.997  11.326 -0.5901  1.1466 -0.0176
 2747SOL    HW2 9683   2.302   0.935  11.402  0.3266 -0.8881 -0.2081
 2748SOL     OW 9684   4.662   0.429   5.359 -0.2092  0.1415 -0.2473
 2748SOL    HW1 9685   4.621   0.478   5.431 -1.1702 -0.5991 -0.2576
 2748SOL    HW2 9686   4.611   0.347   5.355 -1.3813  0.8941 -2.9281
 2749SOL     OW 9687   1.317   1.077   8.501 -0.3885 -0.2150 -0.2637
 2749SOL    HW1 9688   1.280   1.164   8.518 -0.1327  0.0619 -1.0940
 2749SOL    HW2 9689   1.383   1.065   8.570 -0.8507 -0.0178  0.2246
 2750SOL     OW 9690   6.376   2.768   2.949  0.3432 -0.1908  0.2885
 2750SOL    HW1 9691   6.390   2.855   2.912 -0.4083  0.0920  0.6516
 2750SOL    HW2 9692   6.464   2.734   2.965  0.6628  1.4005  2.2008
 2751SOL     OW 9693   6.548   1.622  11.989  0.2575  0.0534  0.0444
 2751SOL    HW1 9694   6.562   1.589  12.078 -0.7655  0.3694  0.3253
 2751SOL    HW2 9695   6.500   1.703  12.000 -0.3680 -0.1861 -0.8276
 2752SOL     OW 9696   2.791   1.751  10.368 -0.0176 -0.0406  0.0599
 2752SOL    HW1 9697   2.880   1.782  10.355 -0.0473 -0.6368 -1.9243
 2752SOL    HW2 9698   2.773   1.696  10.292 -2.2032  0.3522  0.2050
 2753SOL     OW 9699   3.609   1.837   0.073  0.2114 -0.2590  0.3382
 2753SOL    HW1 9700   3.692   1.883   0.061  0.2360 -0.1129  1.0588
 2753SOL    HW2 9701   3.618   1.791   0.157 -0.5468  0.0075  0.5720
 2754SOL     OW 9702   6.862   3.745   8.687  0.0359  0.0406 -0.0598
 2754SOL    HW1 9703   6.896   3.763   8.775 -0.0486 -3.2652  0.7699
 2754SOL    HW2 9704   6.772   3.775   8.689  0.7455  2.3850  0.0391
 2755SOL     OW 9705   4.840   1.831  10.120  0.7564  0.0111 -0.1476
 2755SOL    HW1 9706   4.835   1.923  10.094 -2.1033 -0.2757 -1.0056
 2755SOL    HW2 9707   4.865   1.834  10.212 -3.5565  2.1152  1.2641
 2756SOL     OW 9708   1.438   1.649   0.592  0.4943  0.0144  0.2261
 2756SOL    HW1 9709   1.406   1.647   0.683 -1.5431 -0.8626 -0.4654
 2756SOL    HW2 9710   1.416   1.737   0.561  0.0607 -0.1069  0.1930
 2757SOL     OW 9711   2.247   4.112   1.718 -0.0739 -0.1193 -0.2859
 2757SOL    HW1 9712   2.199   4.113   1.800 -1.7520 -0.8910 -1.2040
 2757SOL    HW2 9713   2.291   4.197   1.713 -1.8887  0.8791  0.3009
 2758SOL     OW 9714   1.035   0.621   5.314  0.3961  0.3048 -0.0699
 2758SOL    HW1 9715   1.054   0.683   5.384 -1.7579 -1.7450  2.5604
 2758SOL    HW2 9716   0.974   0.667   5.256 -4.2290 -0.1171  3.8108
 2759SOL     OW 9717   2.128   5.817   5.770  0.4891  0.0184  0.3556
 2759SOL    HW1 9718   2.148   5.895   5.822  0.9407 -0.5519  1.0592
 2759SOL    HW2 9719   2.180   5.747   5.810 -0.7143 -0.8895  0.4212
 2760SOL     OW 9720   1.220   0.122  10.000 -0.5546  0.4263 -0.2338
 2760SOL    HW1 9721   1.137   0.101   9.957 -0.4557  1.3133 -0.9041
 2760SOL    HW2 9722   1.233   0.053  10.064 -0.2431 -1.5011 -2.2739
 2761SOL     OW 9723   0.496   3.779   6.480  0.1525  0.6661  0.1396
 2761SOL    HW1 9724   0.543   3.719   6.422  2.2007  2.0719  0.2459
 2761SOL    HW2 9725   0.551   3.787   6.557 -1.0140  1.2397  0.9472
 2762SOL     OW 9726   6.016   7.790   3.799  0.3546  0.3973  0.1731
 2762SOL    HW1 9727   6.031   7.700   3.768 -0.9243 -0.2762  1.3820
 2762SOL    HW2 9728   5.934   7.817   3.759 -0.8914 -0.1825  2.1597
 2763SOL     OW 9729   3.493   7.508   7.506  0.2830 -0.5917  0.0095
 2763SOL    HW1 9730   3.536   7.432   7.546  0.8667 -0.4435 -0.3252
 2763SOL    HW2 9731   3.530   7.513   7.418 -1.0818 -0.9873 -0.6168
 2764SOL     OW 9732   7.051   7.114   5.462 -0.1178 -0.3277  0.2390
 2764SOL    HW1 9733   6.962   7.079   5.459  0.0389 -0.7215  0.1181
 2764SOL    HW2 9734   7.049   7.179   5.532 -0.0651 -1.5688  1.4582
 2765SOL     OW 9735   2.062   0.757  10.535 -0.3649 -0.6439 -0.0051
 2765SOL    HW1 9736   2.098   0.682  10.582  0.3339  0.1297  0.7336
 2765SOL    HW2 9737   2.035   0.817  10.605 -1.1543 -0.3144 -0.5847
 2766SOL     OW 9738   6.536   4.273   5.630 -0.3774  0.7965  0.3869
 2766SOL    HW1 9739   6.550   4.362   5.597  0.8100  0.3999 -0.2361
 2766SOL    HW2 9740   6.592   4.218   5.575  0.2965 -0.1169  1.9284
 2767SOL     OW 9741   1.283   0.213   9.677 -0.9657  0.4290 -0.5758
 2767SOL    HW1 9742   1.264   0.306   9.670 -1.7341  0.3192 -0.1501
 2767SOL    HW2 9743   1.360   0.208   9.734 -0.1726  0.8516 -1.5906
 2768SOL     OW 9744   1.195   7.947  11.145  0.1916  0.0478 -0.1954
 2768SOL    HW1 9745   1.178   7.995  11.064  0.3123 -1.5994 -1.2484
 2768SOL    HW2 9746   1.112   7.902  11.163 -0.3225  1.5228  1.4620
 2769SOL     OW 9747   5.829   3.858   4.542  0.2005 -0.2027 -0.4890
 2769SOL    HW1 9748   5.794   3.787   4.596 -2.8180  1.1054 -0.5455
 2769SOL    HW2 9749   5.789   3.846   4.457  0.7340  0.7966 -0.9017
 2770SOL     OW 9750   4.694   5.543   8.579 -0.3989  0.0809  0.3834
 2770SOL    HW1 9751   4.705   5.551   8.484 -2.2574 -0.9516  0.0306
 2770SOL    HW2 9752   4.688   5.449   8.595  1.5205  0.1310  1.7917
 2771SOL     OW 9753   2.135   7.198   5.380  0.2376 -0.3719  0.4794
 2771SOL    HW1 9754   2.214   7.174   5.429  0.9722  0.0719 -0.4523
 2771SOL    HW2 9755   2.077   7.236   5.446 -0.4691 -3.4045  1.7636
 2772SOL     OW 9756   5.168   3.109   0.660  0.5003  0.0185  0.1700
 2772SOL    HW1 9757   5.127   3.164   0.726 -0.3686  1.1907 -1.2715
 2772SOL    HW2 9758   5.131   3.141   0.577  0.6319 -2.1723 -0.7898
 2773SOL     OW 9759   6.517   2.824   5.306  0.2817 -0.0105  0.4388
 2773SOL    HW1 9760   6.482   2.737   5.327 -0.2341  0.1989  0.4702
 2773SOL    HW2 9761   6.517   2.870   5.390 -1.3535  0.6783  0.1065
 2774SOL     OW 9762   7.229   0.420   3.073 -0.4959  0.1113 -0.0111
 2774SOL    HW1 9763   7.199   0.389   3.158  0.5134 -0.0604  0.3051
 2774SOL    HW2 9764   7.321   0.391   3.068 -0.8503 -0.8590 -1.6268
 2775SOL     OW 9765   6.993   2.106   3.584  0.2296 -0.3058  0.0909
 2775SOL    HW1 9766   7.066   2.056   3.548  1.7247  0.7118  1.5730
 2775SOL    HW2 9767   6.949   2.143   3.507 -0.6817 -3.4199 -1.0392
 2776SOL     OW 9768   4.111   2.182   2.243  0.0275 -0.2561  0.4287
 2776SOL    HW1 9769   4.169   2.252   2.214 -1.2387  0.1248 -1.3661
 2776SOL    HW2 9770   4.151   2.102   2.210  0.2750 -0.1455  0.4551
 2777SOL     OW 9771   4.169   2.450   6.649  0.3660 -0.2471  0.1554
 2777SOL    HW1 9772   4.229   2.417   6.716 -2.3421 -1.9172  1.9788
 2777SOL    HW2 9773   4.083   2.449   6.692 -1.2374  0.3910 -2.8000
 2778SOL     OW 9774   0.680   4.907  11.640 -0.1868 -0.1001  0.0497
 2778SOL    HW1 9775   0.710   4.912  11.731 -0.4085 -3.0104  0.3914
 2778SOL    HW2 9776   0.735   4.839  11.601  0.5184  1.7039 -2.3228
 2779SOL     OW 9777   3.520   5.282   9.677  0.3188  0.2604 -0.3614
 2779SOL    HW1 9778   3.560   5.244   9.755  0.8230 -1.4308 -1.3841
 2779SOL    HW2 9779   3.438   5.322   9.708 -0.7866 -2.5893  0.6994
 2780SOL     OW 9780   0.878   6.171  12.261 -0.1558  0.5561 -0.2648
 2780SOL    HW1 9781   0.908   6.202  12.347  0.0072  0.3078 -0.2313
 2780SOL    HW2 9782   0.871   6.076  12.271 -0.3169  0.5459 -0.4715
 2781SOL     OW 9783   1.752   3.969   1.021 -0.3116  0.1422  0.0364
 2781SOL    HW1 9784   1.712   3.957   0.934 -0.7462  0.0324  0.2511
 2781SOL    HW2 9785   1.763   4.064   1.029 -3.4552  0.4912  1.2630
 2782SOL     OW 9786   4.362   1.968   5.540 -0.0225  0.2535  0.4593
 2782SOL    HW1 9787   4.422   1.961   5.465  1.0586 -0.8349  1.3804
 2782SOL    HW2 9788   4.349   1.877   5.569 -1.4980  0.5419  0.7868
 2783SOL     OW 9789   7.789   5.426   2.187  0.2944  0.2995 -0.4924
 2783SOL    HW1 9790   7.773   5.332   2.187  0.5225  0.2434 -1.7072
 2783SOL    HW2 9791   7.763   5.454   2.100  0.2655  1.3630 -0.1524
 2784SOL     OW 9792   5.735   0.310   4.742  0.3005 -0.7477  0.1759
 2784SOL    HW1 9793   5.818   0.286   4.785  1.3452 -0.3209 -1.4963
 2784SOL    HW2 9794   5.731   0.405   4.750 -0.2398 -0.8062  0.6011
 2785SOL     OW 9795   5.555   3.609  12.129 -0.2847  0.1712  0.4531
 2785SOL    HW1 9796   5.592   3.522  12.115  0.6720  0.7742 -1.0223
 2785SOL    HW2 9797   5.505   3.627  12.049  0.9674  1.6524 -0.0392
 2786SOL     OW 9798   6.844   2.249  11.062 -0.0181  0.0382  0.0174
 2786SOL    HW1 9799   6.810   2.194  10.991  1.9338  0.4334 -1.3134
 2786SOL    HW2 9800   6.915   2.197  11.099  0.7681  0.9612 -0.1626
 2787SOL     OW 9801   5.307   2.337   0.992 -0.0267 -0.2284  0.1499
 2787SOL    HW1 9802   5.374   2.397   1.026  1.5418 -1.5645 -0.4259
 2787SOL    HW2 9803   5.280   2.375   0.909 -1.0137  1.0221  1.0038
 2788SOL     OW 9804   0.587   2.415   0.147  0.3873 -0.5762  0.4127
 2788SOL    HW1 9805   0.638   2.335   0.155  0.4006 -0.6122  0.0128
 2788SOL    HW2 9806   0.496   2.387   0.156  0.3648 -0.7079 -0.1904
 2789SOL     OW 9807   6.907   5.718  11.500  0.2461 -0.3774  0.0927
 2789SOL    HW1 9808   6.889   5.789  11.561  0.0228 -0.5624  0.2459
 2789SOL    HW2 9809   6.975   5.752  11.442  1.2553 -0.5800  1.1243
 2790SOL     OW 9810   2.768   4.895   6.419 -0.5777 -0.2800  0.3853
 2790SOL    HW1 9811   2.699   4.921   6.480 -1.8367 -0.6053 -0.8187
 2790SOL    HW2 9812   2.793   4.976   6.375 -0.6397 -0.2609  0.3859
 2791SOL     OW 9813   3.400   4.747   8.169  0.4687  0.1053 -0.0763
 2791SOL    HW1 9814   3.325   4.689   8.155 -0.2813  0.9018  0.5495
 2791SOL    HW2 9815   3.400   4.805   8.093  0.8217 -0.2790 -0.3749
 2792SOL     OW 9816   7.209   7.866   6.623 -0.0982  0.6004 -0.1827
 2792SOL    HW1 9817   7.271   7.793   6.621 -1.4341 -0.5587 -1.3515
 2792SOL    HW2 9818   7.262   7.943   6.601  1.3437  0.0229  1.0958
 2793SOL     OW 9819   7.234   1.343   3.214 -0.7115  0.1079  0.0275
 2793SOL    HW1 9820   7.149   1.383   3.196 -0.3318  0.4313 -1.1242
 2793SOL    HW2 9821   7.286   1.361   3.136  0.4659  0.0436  0.7677
 2794SOL     OW 9822   7.334   2.760   1.270 -0.0080 -0.6334  0.4424
 2794SOL    HW1 9823   7.429   2.764   1.255 -0.1376 -1.8248 -1.0042
 2794SOL    HW2 9824   7.303   2.848   1.250  0.8360 -0.0761  1.4592
 2795SOL     OW 9825   2.235   4.330   8.927  0.1236  0.0156 -0.6903
 2795SOL    HW1 9826   2.251   4.341   9.021  3.8832 -0.3785 -1.1509
 2795SOL    HW2 9827   2.158   4.272   8.923 -1.3262  1.5194  2.0256
 2796SOL     OW 9828   0.383   1.067   7.705  0.2734 -0.0206 -0.2566
 2796SOL    HW1 9829   0.326   1.036   7.635  0.9896  0.6752 -1.1694
 2796SOL    HW2 9830   0.333   1.137   7.747 -0.4737 -0.9378  0.4605
 2797SOL     OW 9831   0.040   4.006  10.152  0.3370 -0.2718 -0.3362
 2797SOL    HW1 9832   0.006   4.051  10.075  1.9639 -0.0840 -0.9842
 2797SOL    HW2 9833  -0.023   4.026  10.221 -0.9061 -0.0556 -1.4833
 2798SOL     OW 9834   4.507   4.909  10.833 -0.2253  0.1104 -0.2738
 2798SOL    HW1 9835   4.416   4.913  10.803  0.0540 -0.4119 -1.1916
 2798SOL    HW2 9836   4.500   4.911  10.929 -1.1210  1.8389 -0.3335
 2799SOL     OW 9837   0.239   1.427   5.473  0.5629 -0.5544 -0.5551
 2799SOL    HW1 9838   0.243   1.424   5.378 -0.7961  0.2504 -0.6653
 2799SOL    HW2 9839   0.320   1.472   5.499  1.1845 -1.2234 -1.2762
 2800SOL     OW 9840   4.844   5.918   2.190  0.1111 -0.1663  0.2822
 2800SOL    HW1 9841   4.752   5.939   2.209  0.6395  2.2569  0.5612
 2800SOL    HW2 9842   4.891   5.944   2.269  1.2563  0.6984 -0.6551
 2801SOL     OW 9843   0.713   1.634  11.417  0.3102  0.2202 -0.4804
 2801SOL    HW1 9844   0.662   1.554  11.429  0.4795  0.1868  0.0295
 2801SOL    HW2 9845   0.688   1.665  11.330 -0.5756  0.1968 -0.2454
 2802SOL     OW 9846   7.138   5.554   2.019  0.4765 -0.5465 -0.2199
 2802SOL    HW1 9847   7.226   5.566   1.983  0.5373  1.8672  0.5042
 2802SOL    HW2 9848   7.151   5.510   2.102  1.1212  0.5742  0.2886
 2803SOL     OW 9849   2.008   0.611   1.321  0.3874 -0.2269 -0.6598
 2803SOL    HW1 9850   2.061   0.531   1.323  0.3697 -0.2144  0.4856
 2803SOL    HW2 9851   2.031   0.658   1.401 -2.0220 -0.6472  0.3442
 2804SOL     OW 9852   4.450   6.296   8.149 -0.0104 -0.0133  0.1960
 2804SOL    HW1 9853   4.395   6.323   8.223 -0.2577 -2.0150  0.7936
 2804SOL    HW2 9854   4.389   6.256   8.087  0.4268  0.1775 -0.3644
 2805SOL     OW 9855   2.176   0.339  10.078  0.2720  0.1856 -0.2189
 2805SOL    HW1 9856   2.105   0.316  10.139 -0.4322  0.9285 -0.7352
 2805SOL    HW2 9857   2.165   0.277  10.005  1.5363 -1.1597  0.6767
 2806SOL     OW 9858   3.336   3.029   6.447 -0.1757 -0.1721  0.1424
 2806SOL    HW1 9859   3.388   3.110   6.449 -2.0821  1.1617 -1.1038
 2806SOL    HW2 9860   3.344   2.997   6.358  0.1479 -1.1208  0.4958
 2807SOL     OW 9861   7.328   3.991  11.400 -0.2518 -0.0074  0.4938
 2807SOL    HW1 9862   7.275   4.051  11.349 -0.1087 -0.7656 -0.5853
 2807SOL    HW2 9863   7.317   3.906  11.357  3.1164  0.0857 -0.8742
 2808SOL     OW 9864   7.183   4.540   9.582  0.2663 -0.2977  0.2490
 2808SOL    HW1 9865   7.098   4.495   9.574 -2.0110  3.0275  2.7312
 2808SOL    HW2 9866   7.220   4.506   9.664  0.0457  0.0789  0.5091
 2809SOL     OW 9867   5.834   6.133   7.185  0.1266 -0.4480 -0.0535
 2809SOL    HW1 9868   5.900   6.068   7.209  0.4240 -0.2147 -0.2344
 2809SOL    HW2 9869   5.825   6.125   7.090 -1.3350 -1.6410  0.1616
 2810SOL     OW 9870   2.760   6.171   3.307  0.0470  0.5828 -0.2213
 2810SOL    HW1 9871   2.668   6.181   3.284  0.0401  0.4196 -0.2697
 2810SOL    HW2 9872   2.790   6.259   3.330 -0.4579  0.4461  1.0450
 2811SOL     OW 9873   0.239   1.982   4.726 -0.2093  0.1094 -0.2610
 2811SOL    HW1 9874   0.167   1.950   4.779  0.4220  0.7697  1.0383
 2811SOL    HW2 9875   0.301   2.019   4.789  1.2630 -0.4230 -1.3412
 2812SOL     OW 9876   1.749   6.619   9.509 -0.3233  0.1717 -0.2358
 2812SOL    HW1 9877   1.670   6.656   9.549  1.5918  4.3323  0.1757
 2812SOL    HW2 9878   1.768   6.541   9.562 -2.2977  0.9463  1.7863
 2813SOL     OW 9879   3.834   6.488   9.237 -0.3059 -0.3328 -0.3503
 2813SOL    HW1 9880   3.830   6.402   9.194  0.7243 -2.5935  3.6324
 2813SOL    HW2 9881   3.744   6.520   9.236 -0.9708 -2.1308 -0.6276
 2814SOL     OW 9882   6.336   7.166   0.435 -0.1650 -0.2557 -0.2729
 2814SOL    HW1 9883   6.374   7.206   0.513  0.5200 -0.7326 -0.3429
 2814SOL    HW2 9884   6.262   7.115   0.467  0.5633 -1.0552  0.1923
 2815SOL     OW 9885   6.670   4.101   7.260  0.6107  0.2519  0.3480
 2815SOL    HW1 9886   6.637   4.092   7.170 -1.0881 -1.5938  1.0992
 2815SOL    HW2 9887   6.645   4.190   7.285  0.1491  0.4189 -0.6336
 2816SOL     OW 9888   3.306   7.005   0.819  0.1684 -0.0970  0.0982
 2816SOL    HW1 9889   3.397   6.992   0.846  0.0390 -1.0737  0.0816
 2816SOL    HW2 9890   3.303   7.097   0.792  1.1359 -0.0341  0.1545
 2817SOL     OW 9891   3.556   6.217   7.520 -0.4997  0.3119  0.0160
 2817SOL    HW1 9892   3.512   6.203   7.437  0.3906  1.1673 -0.6276
 2817SOL    HW2 9893   3.536   6.307   7.543  2.0421  1.2568 -1.0607
 2818SOL     OW 9894   6.149   6.560   2.337 -0.1575  0.2625 -0.1679
 2818SOL    HW1 9895   6.168   6.642   2.382  1.2465  1.1166 -2.1621
 2818SOL    HW2 9896   6.189   6.570   2.251 -1.1213 -2.0069 -0.9600
 2819SOL     OW 9897   3.385   7.569   4.914 -0.0595 -0.2128  0.4099
 2819SOL    HW1 9898   3.422   7.635   4.973  0.2997 -0.3072  0.2929
 2819SOL    HW2 9899   3.345   7.620   4.843  0.9893 -0.1359 -0.1377
 2820SOL     OW 9900   1.935   6.874   2.219  0.1767  0.5625  0.2258
 2820SOL    HW1 9901   1.883   6.794   2.215 -0.0136  0.7142 -0.6225
 2820SOL    HW2 9902   2.014   6.850   2.267  1.4409 -0.9149 -2.4215
 2821SOL     OW 9903   6.302   0.695   7.585  0.5595 -0.6014 -0.4203
 2821SOL    HW1 9904   6.225   0.657   7.627 -0.8313 -1.7358 -3.6856
 2821SOL    HW2 9905   6.364   0.623   7.578 -0.6934 -1.5533 -3.4223
 2822SOL     OW 9906   6.333   1.237  11.992 -0.3292 -0.0479  0.0963
 2822SOL    HW1 9907   6.244   1.208  12.008  0.0875 -2.4181 -1.3984
 2822SOL    HW2 9908   6.382   1.212  12.070 -0.8090  0.5339  0.5875
 2823SOL     OW 9909   3.732   0.292   9.870  0.1802  0.1033 -0.4817
 2823SOL    HW1 9910   3.775   0.376   9.855 -0.5305  1.1546  2.5463
 2823SOL    HW2 9911   3.665   0.287   9.803  1.4741  0.9979 -1.9170
 2824SOL     OW 9912   4.575   7.062   1.263  0.0382 -0.3724 -0.0401
 2824SOL    HW1 9913   4.589   7.112   1.182  1.0275 -3.1497 -1.6992
 2824SOL    HW2 9914   4.662   7.058   1.304  0.1947 -1.5376 -0.4544
 2825SOL     OW 9915   2.027   6.217   4.606  0.3671 -0.6099  0.5559
 2825SOL    HW1 9916   2.023   6.304   4.567 -0.9157 -0.8805  0.0005
 2825SOL    HW2 9917   1.977   6.225   4.687  0.0444 -0.8681  0.3877
 2826SOL     OW 9918   7.399   0.071  12.285  0.0697 -0.0112 -0.1997
 2826SOL    HW1 9919   7.348  -0.007  12.307  0.4848  0.0181  0.9700
 2826SOL    HW2 9920   7.364   0.139  12.342  1.2736  0.0500  0.5124
 2827SOL     OW 9921   4.281   7.453  12.154  0.5438 -0.1026  0.3986
 2827SOL    HW1 9922   4.209   7.492  12.105  0.3551  0.4326  1.0794
 2827SOL    HW2 9923   4.261   7.359  12.156 -0.5288  0.1319  1.2104
 2828SOL     OW 9924   3.114   1.959   8.511  0.6622 -0.3187  0.0250
 2828SOL    HW1 9925   3.130   2.035   8.455  1.3015 -0.0057  0.6171
 2828SOL    HW2 9926   3.048   1.908   8.464  0.4641  0.4345 -0.5346
 2829SOL     OW 9927   4.883   3.181   2.285 -0.1663  0.5909 -0.4661
 2829SOL    HW1 9928   4.803   3.208   2.331 -1.4750 -0.1812 -2.1638
 2829SOL    HW2 9929   4.950   3.241   2.317 -1.2474  0.8281  1.5243
 2830SOL     OW 9930   6.078   4.621   6.865 -0.6752  0.0746  0.3016
 2830SOL    HW1 9931   6.119   4.703   6.893  0.2204 -0.0906 -0.4460
 2830SOL    HW2 9932   6.148   4.574   6.820 -1.1342 -1.1707  0.8376
 2831SOL     OW 9933   2.269   1.606   8.778  0.3260 -0.0628  0.3997
 2831SOL    HW1 9934   2.347   1.655   8.804  0.2650  0.0783  0.3191
 2831SOL    HW2 9935   2.300   1.547   8.709  0.1617  0.7194 -0.3712
 2832SOL     OW 9936   4.581   0.574   0.637 -0.5210 -0.4749  0.0173
 2832SOL    HW1 9937   4.647   0.627   0.592  0.4012 -1.1859  0.4804
 2832SOL    HW2 9938   4.582   0.491   0.589 -0.9674 -0.5447  0.1323
 2833SOL     OW 9939   7.471   7.824   8.936 -0.1079 -0.4419  0.1433
 2833SOL    HW1 9940   7.519   7.845   9.015  0.4990 -2.8128  0.4849
 2833SOL    HW2 9941   7.494   7.733   8.917 -3.5474 -1.3813 -0.3128
 2834SOL     OW 9942   1.206   4.471   6.085 -0.3091 -0.1061  0.0003
 2834SOL    HW1 9943   1.265   4.403   6.116 -1.1440 -2.3991 -2.9759
 2834SOL    HW2 9944   1.121   4.448   6.123 -0.5284 -0.6186 -0.7673
 2835SOL     OW 9945   1.359   0.372   1.289  0.0429 -0.3587 -0.4639
 2835SOL    HW1 9946   1.410   0.401   1.364 -1.0810 -0.6362  0.4291
 2835SOL    HW2 9947   1.399   0.417   1.214  0.1880  1.1623  0.4942
 2836SOL     OW 9948   1.027   7.547  12.055 -0.8033  0.1197  0.3616
 2836SOL    HW1 9949   0.952   7.489  12.069 -0.8835  0.3735  1.0083
 2836SOL    HW2 9950   1.041   7.588  12.140  1.3642 -1.4418  0.8316
 2837SOL     OW 9951   6.257   4.009  11.782  0.7127  0.2051 -0.7954
 2837SOL    HW1 9952   6.350   4.000  11.805  0.7018  1.1518 -0.3173
 2837SOL    HW2 9953   6.235   4.098  11.810 -0.4718 -0.1879 -0.4351
 2838SOL     OW 9954   5.544   0.536   2.371  0.3542  0.2590  0.2429
 2838SOL    HW1 9955   5.512   0.447   2.353  0.2022  0.3684 -0.0386
 2838SOL    HW2 9956   5.628   0.542   2.325  0.8249 -0.0561  1.0515
 2839SOL     OW 9957   6.733   3.917   6.006  0.4675 -0.2131  0.0597
 2839SOL    HW1 9958   6.678   3.995   5.997 -1.4296 -1.0496  2.8851
 2839SOL    HW2 9959   6.687   3.849   5.958  1.3736  0.0009 -1.1790
 2840SOL     OW 9960   7.347   6.601   3.607  0.3272  0.0280  0.2440
 2840SOL    HW1 9961   7.286   6.658   3.652  0.4782  1.0349 -0.7811
 2840SOL    HW2 9962   7.324   6.512   3.636 -0.4326  0.5343  1.2326
 2841SOL     OW 9963   7.955   7.492  11.447 -0.3334  0.1176 -0.0451
 2841SOL    HW1 9964   7.882   7.517  11.390 -0.9010  0.7996  0.9469
 2841SOL    HW2 9965   8.020   7.562  11.434 -0.7036  0.5813  0.5600
 2842SOL     OW 9966   3.660   4.805   0.664  0.1453 -0.3018  0.0666
 2842SOL    HW1 9967   3.601   4.748   0.615 -0.2015  0.4161 -0.3771
 2842SOL    HW2 9968   3.604   4.876   0.696  0.4862 -0.4379  0.9831
 2843SOL     OW 9969   1.415   0.938   5.088  0.6869 -0.0446 -0.2700
 2843SOL    HW1 9970   1.376   1.022   5.110  0.7040 -0.4453  1.4337
 2843SOL    HW2 9971   1.348   0.874   5.114  0.9883 -0.5918 -0.8215
 2844SOL     OW 9972   7.567   1.208   3.428 -0.0465 -0.0994 -0.0858
 2844SOL    HW1 9973   7.487   1.158   3.443 -1.6946  2.4465  0.2062
 2844SOL    HW2 9974   7.580   1.259   3.508  3.1076 -1.8705  0.7308
 2845SOL     OW 9975   2.520   5.946   8.976 -0.3559  0.4563  0.1999
 2845SOL    HW1 9976   2.607   5.979   8.955 -1.2436  1.5875 -2.1079
 2845SOL    HW2 9977   2.527   5.851   8.964  0.0156  0.7482 -2.5914
 2846SOL     OW 9978   1.140   3.386   6.023 -0.7027 -0.0336 -0.0738
 2846SOL    HW1 9979   1.178   3.438   5.952  1.1166 -0.9017  0.2044
 2846SOL    HW2 9980   1.088   3.449   6.074 -1.6656  0.6976 -1.8605
 2847SOL     OW 9981   2.961   7.429   4.097 -0.4746 -0.2539 -0.1160
 2847SOL    HW1 9982   2.943   7.372   4.022  1.9382 -2.0133  0.5284
 2847SOL    HW2 9983   3.056   7.438   4.099 -0.6575  2.7648  0.6553
 2848SOL     OW 9984   0.359   5.831   4.130  0.0246  1.0403  0.4761
 2848SOL    HW1 9985   0.362   5.923   4.103  0.0180  0.5244 -1.4036
 2848SOL    HW2 9986   0.393   5.783   4.055 -0.9348 -0.5833  1.0356
 2849SOL     OW 9987   5.736   2.782   5.901  0.1639  0.0543  0.0531
 2849SOL    HW1 9988   5.677   2.857   5.894  0.7679  0.4374 -1.1289
 2849SOL    HW2 9989   5.690   2.711   5.856  0.8996  0.5702 -1.6127
 2850SOL     OW 9990   1.188   3.623   5.886  0.3778  0.1256 -0.0337
 2850SOL    HW1 9991   1.138   3.704   5.896  0.0153 -0.2981  2.3343
 2850SOL    HW2 9992   1.278   3.648   5.905  0.9255  0.6040 -2.8680
 2851SOL     OW 9993   4.196   6.098   3.962 -0.6818 -0.3711  1.0761
 2851SOL    HW1 9994   4.273   6.145   3.993  1.7255 -3.0157 -0.4337
 2851SOL    HW2 9995   4.160   6.155   3.893  1.6043 -0.2292 -0.1115
 2852SOL     OW 9996   6.174   1.085   6.843 -0.2418  0.0633  0.1666
 2852SOL    HW1 9997   6.248   1.034   6.878 -0.5712 -0.7932 -0.3364
 2852SOL    HW2 9998   6.215   1.148   6.784  0.2240  0.7781  1.2282
 2853SOL     OW 9999   6.732   0.036   2.686  0.1439 -0.3505  0.3960
 2853SOL    HW110000   6.769   0.004   2.604  0.8984  1.4200  0.0074
 2853SOL    HW210001   6.791   0.003   2.753  0.5555 -0.2744  0.0726
 2854SOL     OW10002   1.961   0.108   1.053  0.0163  0.0796 -0.8037
 2854SOL    HW110003   2.056   0.117   1.067  0.1070 -0.2981 -1.1606
 2854SOL    HW210004   1.952   0.025   1.007 -0.8801 -2.3847  3.3623
 2855SOL     OW10005   2.434   4.505   2.693  0.0173  0.0665 -0.0817
 2855SOL    HW110006   2.524   4.508   2.663 -0.3410  1.2835 -1.1348
 2855SOL    HW210007   2.403   4.595   2.685 -0.6089  0.1528  2.4674
 2856SOL     OW10008   6.875   0.078   7.832 -0.3698  0.1958  0.3130
 2856SOL    HW110009   6.823   0.149   7.794  1.6162  0.9403 -1.1882
 2856SOL    HW210010   6.831  -0.002   7.804 -1.4443  0.8047  0.2248
 2857SOL     OW10011   3.144   0.829   7.043 -0.2430 -0.3041  0.4222
 2857SOL    HW110012   3.083   0.769   7.087  1.8062 -1.4814  1.7954
 2857SOL    HW210013   3.219   0.835   7.103  2.0461 -0.7529 -2.2267
 2858SOL     OW10014   7.913   5.661   1.147 -0.1425 -0.8666 -0.0135
 2858SOL    HW110015   7.974   5.693   1.214 -1.5595 -0.2131  1.0104
 2858SOL    HW210016   7.947   5.698   1.065  0.6848 -0.2973  0.5623
 2859SOL     OW10017   3.464   7.865   6.155 -0.0333 -0.1870 -0.2165
 2859SOL    HW110018   3.409   7.835   6.228  0.5060 -0.1386  0.2159
 2859SOL    HW210019   3.554   7.854   6.187  0.1925  1.2007 -0.3079
 2860SOL     OW10020   1.889   1.887   7.643  0.0878 -0.1582  0.5577
 2860SOL    HW110021   1.938   1.908   7.723  1.3440  1.4399 -0.5484
 2860SOL    HW210022   1.879   1.971   7.599 -0.7762 -0.9662 -0.8665
 2861SOL     OW10023   6.372   4.143   5.253  0.1421 -0.0890  0.3760
 2861SOL    HW110024   6.416   4.058   5.257  0.6377  0.1773  0.6916
 2861SOL    HW210025   6.283   4.125   5.281 -0.2298 -0.8085 -1.1673
 2862SOL     OW10026   6.730   0.277   7.648 -0.5268 -0.2575 -0.3854
 2862SOL    HW110027   6.764   0.359   7.613  2.3869 -1.6763 -1.2420
 2862SOL    HW210028   6.684   0.237   7.575  0.2657 -0.4797 -0.7809
 2863SOL     OW10029   4.208   4.036   0.125  0.5049  0.1225  0.5709
 2863SOL    HW110030   4.281   4.090   0.093 -0.1085  0.3310 -0.5185
 2863SOL    HW210031   4.180   3.986   0.049 -1.3548  1.0318  0.6150
 2864SOL     OW10032   1.919   7.385   1.741  0.1238  0.0487  0.1037
 2864SOL    HW110033   1.936   7.477   1.763 -0.0210  0.1668 -0.2648
 2864SOL    HW210034   1.835   7.365   1.781 -0.2831  0.3507 -0.5675
 2865SOL     OW10035   7.253   2.959   0.335  0.0525  0.6111 -0.3822
 2865SOL    HW110036   7.339   2.984   0.301 -0.5528  1.6821 -1.2144
 2865SOL    HW210037   7.271   2.897   0.405  1.4964  0.7845 -0.5793
 2866SOL     OW10038   0.212   7.106   6.156 -0.9012  0.2028  0.3182
 2866SOL    HW110039   0.245   7.191   6.187  1.3120 -0.1072 -1.0271
 2866SOL    HW210040   0.258   7.041   6.209 -0.0871 -0.2202 -0.8773
 2867SOL     OW10041   4.756   4.907   3.101  0.2850  0.7150  0.4097
 2867SOL    HW110042   4.704   4.964   3.044 -0.8477  0.0652  0.7570
 2867SOL    HW210043   4.795   4.967   3.165 -0.7379  1.1461  0.6579
 2868SOL     OW10044   0.939   6.902   4.565  0.0488 -0.3301  0.2310
 2868SOL    HW110045   0.959   6.911   4.471  0.3328  2.1182  0.4538
 2868SOL    HW210046   0.928   6.808   4.578  0.9151 -0.8317 -2.0735
 2869SOL     OW10047   3.458   4.584   9.565 -0.0614  0.0120  0.1832
 2869SOL    HW110048   3.514   4.651   9.526  0.3216  0.2296  1.0949
 2869SOL    HW210049   3.408   4.550   9.491  2.2127 -1.1475 -0.9143
 2870SOL     OW10050   0.676   3.944   4.331 -0.2795  0.1707 -0.0824
 2870SOL    HW110051   0.649   3.856   4.358  0.8751  0.0460  0.7836
 2870SOL    HW210052   0.678   3.941   4.236  0.0524 -0.8512 -0.0535
 2871SOL     OW10053   4.109   5.413   4.077  0.0534  0.1161 -0.1219
 2871SOL    HW110054   4.081   5.464   4.153  1.2749 -0.4785  0.7657
 2871SOL    HW210055   4.179   5.464   4.038  0.1428 -0.0811 -0.2226
 2872SOL     OW10056   4.217   3.177   8.056  0.3311 -0.0482  0.2807
 2872SOL    HW110057   4.161   3.100   8.056  1.0280 -0.5677  1.0869
 2872SOL    HW210058   4.187   3.229   8.131 -2.0628  1.9549 -1.8547
 2873SOL     OW10059   3.027   4.826   6.451 -0.1880  0.1626 -0.0119
 2873SOL    HW110060   2.935   4.835   6.427 -0.2624  0.6450  0.4315
 2873SOL    HW210061   3.031   4.745   6.502 -0.5336  0.5882  0.7162
 2874SOL     OW10062   6.174   5.766   9.025 -0.4021 -0.2397 -0.0188
 2874SOL    HW110063   6.241   5.704   9.054  0.3185  0.6100  0.1751
 2874SOL    HW210064   6.101   5.711   8.996  0.1424 -1.1674  0.3355
 2875SOL     OW10065   1.761   1.785   1.024 -0.1238 -0.5626  0.0744
 2875SOL    HW110066   1.742   1.766   0.932  0.8458  1.7680 -0.6831
 2875SOL    HW210067   1.709   1.863   1.044 -1.4235 -1.8406  1.9846
 2876SOL     OW10068   2.677   6.106   6.992 -0.5141 -0.8545  0.1973
 2876SOL    HW110069   2.746   6.068   7.046  0.8053  0.1429 -0.7161
 2876SOL    HW210070   2.617   6.148   7.054  0.8154  0.0308  0.9133
 2877SOL     OW10071   0.818   1.642   2.849 -0.6271  0.2922 -0.0005
 2877SOL    HW110072   0.818   1.641   2.945 -1.0306  0.8062  0.0119
 2877SOL    HW210073   0.770   1.722   2.826  0.5462  0.8374 -0.6303
 2878SOL     OW10074   7.147   5.398  11.213 -0.1268  0.3807  0.8700
 2878SOL    HW110075   7.201   5.361  11.283  1.5123 -0.6114 -0.8196
 2878SOL    HW210076   7.149   5.332  11.144 -1.1391  1.6038 -0.3808
 2879SOL     OW10077   3.912   3.672   5.139 -0.1770 -0.8098 -0.1108
 2879SOL    HW110078   3.915   3.696   5.046  0.0342 -0.4083 -0.0025
 2879SOL    HW210079   3.861   3.591   5.141 -2.8643  0.7392 -0.2649
 2880SOL     OW10080   4.287   3.849   8.789  0.0475  0.0870 -0.1546
 2880SOL    HW110081   4.262   3.758   8.805 -2.3551  0.5240 -1.0043
 2880SOL    HW210082   4.272   3.861   8.695  0.6194  1.2993 -0.1086
 2881SOL     OW10083   1.424   3.744   6.004 -0.6504  0.3458 -0.2829
 2881SOL    HW110084   1.401   3.733   6.096 -0.0228  0.5732 -0.0923
 2881SOL    HW210085   1.462   3.832   5.999  1.8386 -0.6439 -0.2145
 2882SOL     OW10086   0.226   7.226   2.476 -0.2802 -0.2136 -0.0679
 2882SOL    HW110087   0.231   7.301   2.535 -1.0173  1.0099 -1.4948
 2882SOL    HW210088   0.164   7.166   2.518  0.9864 -0.4935  1.5309
 2883SOL     OW10089   5.912   0.622   0.595 -0.3175  0.4125  0.0676
 2883SOL    HW110090   5.977   0.559   0.627  0.2755  0.3846 -1.1324
 2883SOL    HW210091   5.893   0.677   0.671  1.0820  0.3810  0.4664
 2884SOL     OW10092   3.592   6.417   6.728  0.2531  0.4942  0.1922
 2884SOL    HW110093   3.565   6.488   6.786  1.4334  2.0420 -1.0391
 2884SOL    HW210094   3.678   6.444   6.695 -0.2751 -0.3614 -2.1416
 2885SOL     OW10095   5.111   4.645   7.720  0.0885  0.4126  0.4577
 2885SOL    HW110096   5.179   4.664   7.784  0.0599  0.1453  0.5689
 2885SOL    HW210097   5.037   4.701   7.746  0.7272  1.7645 -0.4898
 2886SOL     OW10098   2.993   0.321   3.353  0.4628 -0.3862  0.1081
 2886SOL    HW110099   3.009   0.295   3.444  0.5985  0.2605  0.2737
 2886SOL    HW210100   3.000   0.239   3.304  0.7227 -0.6907  0.6360
 2887SOL     OW10101   7.602   2.411   1.576  0.0984 -0.2697  0.0708
 2887SOL    HW110102   7.508   2.412   1.596 -0.3480 -1.7890 -1.6835
 2887SOL    HW210103   7.645   2.405   1.661 -1.4028  0.0834  0.8857
 2888SOL     OW10104   7.111   3.984  12.025 -0.5116  0.0873 -0.6641
 2888SOL    HW110105   7.174   3.922  12.062 -0.9301  1.0886  2.0325
 2888SOL    HW210106   7.158   4.068  12.023 -0.5879  0.1158 -2.3067
 2889SOL     OW10107   2.159   5.842   3.464  0.7628 -0.1391  0.0085
 2889SOL    HW110108   2.079   5.833   3.515  1.4589 -1.2444  0.9496
 2889SOL    HW210109   2.227   5.861   3.529  1.3368  0.4310 -0.7367
 2890SOL     OW10110   6.496   7.515   9.897 -0.4533 -0.0179 -0.0578
 2890SOL    HW110111   6.591   7.522   9.907  0.0310 -1.0757 -2.9470
 2890SOL    HW210112   6.468   7.603   9.873  0.4168 -0.3358 -2.5888
 2891SOL     OW10113   6.575   5.664   5.737 -0.2227 -0.8800  0.0990
 2891SOL    HW110114   6.606   5.689   5.650 -0.6126 -1.7894 -0.3065
 2891SOL    HW210115   6.627   5.718   5.797  0.5610 -0.7726 -0.6587
 2892SOL     OW10116   7.762   6.514   3.292 -0.1532  0.2160  0.0215
 2892SOL    HW110117   7.818   6.590   3.309 -0.7415  0.7897 -0.5899
 2892SOL    HW210118   7.792   6.481   3.207 -0.1643 -0.0062  0.1026
 2893SOL     OW10119   6.863   7.290   9.351  0.8026 -0.8115 -0.2682
 2893SOL    HW110120   6.949   7.304   9.391  1.2669 -0.7189 -1.2667
 2893SOL    HW210121   6.880   7.233   9.276  0.0689 -0.4020 -0.7606
 2894SOL     OW10122   6.903   6.771   8.886  0.0894 -0.2573 -0.0632
 2894SOL    HW110123   6.968   6.701   8.894  0.4117 -0.0980 -1.1910
 2894SOL    HW210124   6.842   6.741   8.819 -0.3302  0.1195  0.1401
 2895SOL     OW10125   2.823   3.079   2.507  0.0054 -0.4778  0.4021
 2895SOL    HW110126   2.914   3.059   2.527  0.2235  0.7553  0.7381
 2895SOL    HW210127   2.823   3.172   2.486 -1.0250 -0.6705 -0.5715
 2896SOL     OW10128   4.301   7.068  12.287 -0.5048 -0.1907  0.0787
 2896SOL    HW110129   4.379   7.014  12.295  1.2588  2.1300 -0.1865
 2896SOL    HW210130   4.298   7.116  12.370 -0.7895  0.7585 -0.4626
 2897SOL     OW10131   7.674   2.245  12.031  0.3520  0.3377 -0.0749
 2897SOL    HW110132   7.705   2.336  12.037 -0.1948  0.6208 -1.2214
 2897SOL    HW210133   7.579   2.253  12.023  0.1323 -0.4282  1.3346
 2898SOL     OW10134   6.450   1.676   0.857  0.6424  0.0074  0.0442
 2898SOL    HW110135   6.528   1.623   0.874 -0.0867 -0.4741  2.1712
 2898SOL    HW210136   6.419   1.646   0.771  2.1653 -0.5563 -0.3401
 2899SOL     OW10137   3.375   7.152   1.712 -1.2100 -0.0984 -0.1361
 2899SOL    HW110138   3.394   7.058   1.709  0.1559  0.1892 -1.3818
 2899SOL    HW210139   3.304   7.160   1.777  0.1942 -1.7263  1.7282
 2900SOL     OW10140   5.262   3.292   8.954  0.4061  0.0652 -0.0120
 2900SOL    HW110141   5.215   3.370   8.925 -0.0634 -0.0176  0.4904
 2900SOL    HW210142   5.235   3.224   8.893 -2.1905 -0.6089  1.7211
 2901SOL     OW10143   1.612   0.635  12.328 -0.0577  0.1070  0.2255
 2901SOL    HW110144   1.642   0.655  12.240  0.1826  0.6819  0.4316
 2901SOL    HW210145   1.542   0.571  12.316  1.5081 -1.6002 -0.2416
 2902SOL     OW10146   0.711   0.535   7.571  0.2990  0.3209  0.2771
 2902SOL    HW110147   0.688   0.495   7.488 -0.8306 -0.8575  1.1161
 2902SOL    HW210148   0.788   0.487   7.601  0.6427  0.6759 -0.0356
 2903SOL     OW10149   6.266   0.304   6.352  0.2156 -0.0021 -0.4838
 2903SOL    HW110150   6.239   0.380   6.301 -0.6005 -1.6820 -2.6950
 2903SOL    HW210151   6.286   0.339   6.439 -1.1182  2.5499 -1.1283
 2904SOL     OW10152   7.140   2.774   8.203  0.0171 -0.1991  0.1348
 2904SOL    HW110153   7.086   2.750   8.278  0.7291 -0.4822  0.5593
 2904SOL    HW210154   7.085   2.835   8.153 -1.2223 -1.5046 -0.1585
 2905SOL     OW10155   2.487   2.403   3.156 -0.0626  0.3989 -0.3779
 2905SOL    HW110156   2.519   2.376   3.070 -0.0049 -0.9860  0.0611
 2905SOL    HW210157   2.392   2.408   3.146 -0.0074  0.9112 -0.6933
 2906SOL     OW10158   5.701   5.076   5.337  0.1251 -0.7157  0.1988
 2906SOL    HW110159   5.709   4.988   5.299 -2.0532 -0.1165 -1.8890
 2906SOL    HW210160   5.634   5.067   5.405 -2.0792 -0.2783 -1.7857
 2907SOL     OW10161   1.356   6.764   5.975 -0.1120  0.0430  0.2161
 2907SOL    HW110162   1.416   6.704   6.018  0.4149  0.4137  0.0029
 2907SOL    HW210163   1.374   6.753   5.882 -2.3471 -1.9396 -0.0745
 2908SOL     OW10164   2.450   3.195   2.515 -0.3063  0.2482  0.4406
 2908SOL    HW110165   2.498   3.265   2.558  0.5763 -0.3439  0.4468
 2908SOL    HW210166   2.501   3.116   2.533 -0.7387 -0.2439 -0.4101
 2909SOL     OW10167   7.619   7.727   5.614  0.1981 -0.0682  0.3807
 2909SOL    HW110168   7.623   7.689   5.702  1.5963 -2.9658 -0.7851
 2909SOL    HW210169   7.706   7.762   5.599  0.1625 -0.1571 -0.0568
 2910SOL     OW10170   2.158   3.781   6.495  0.3987  0.4263 -0.2071
 2910SOL    HW110171   2.078   3.741   6.529  1.9293 -1.9929  0.8178
 2910SOL    HW210172   2.170   3.740   6.409  0.8428  0.3023 -0.0890
 2911SOL     OW10173   1.693   0.907  11.468  0.5165  0.4273 -0.5736
 2911SOL    HW110174   1.647   0.990  11.476  0.7057  0.5945 -1.1710
 2911SOL    HW210175   1.625   0.845  11.439  0.0322  0.0172  1.2873
 2912SOL     OW10176   3.888   7.549   0.250 -0.4723 -0.2270  0.7082
 2912SOL    HW110177   3.808   7.529   0.299 -1.6661  0.7313 -0.7780
 2912SOL    HW210178   3.860   7.557   0.159  1.2885  0.3097  0.1684
 2913SOL     OW10179   0.597   0.159   9.733  0.0589  0.1021 -0.1015
 2913SOL    HW110180   0.533   0.106   9.780 -1.1858  0.4936 -1.2684
 2913SOL    HW210181   0.660   0.096   9.698  1.1675 -0.1791  2.1902
 2914SOL     OW10182   2.366   7.204   8.865 -0.3607  0.3957 -0.4881
 2914SOL    HW110183   2.438   7.235   8.920 -1.1274  0.9044  0.2475
 2914SOL    HW210184   2.408   7.183   8.781  0.9450 -1.0798  0.4829
 2915SOL     OW10185   2.215   7.538   4.212 -0.2164  0.0019 -0.7762
 2915SOL    HW110186   2.133   7.567   4.252 -0.0003 -1.3726  0.7229
 2915SOL    HW210187   2.283   7.582   4.263  0.0317 -0.2723 -0.8717
 2916SOL     OW10188   7.013   5.632  11.179 -0.5075 -0.6196  0.1643
 2916SOL    HW110189   7.064   5.554  11.200  0.0475  0.2139  2.2052
 2916SOL    HW210190   6.996   5.626  11.085  1.4027 -2.0800 -0.1420
 2917SOL     OW10191   3.471   7.234   8.728  0.0417 -0.0688  0.1500
 2917SOL    HW110192   3.542   7.171   8.715 -0.9234 -1.0724 -0.3530
 2917SOL    HW210193   3.497   7.310   8.676  0.8335 -0.3465  0.1258
 2918SOL     OW10194   4.459   1.415   3.834 -0.5267 -0.0001 -0.2094
 2918SOL    HW110195   4.421   1.432   3.921 -0.2815  3.5486 -0.6629
 2918SOL    HW210196   4.393   1.447   3.773 -0.0060 -0.9732 -1.3123
 2919SOL     OW10197   0.998   6.275   8.787  0.0374  0.4668 -0.0422
 2919SOL    HW110198   1.023   6.290   8.696 -0.0943  1.6529  0.1020
 2919SOL    HW210199   1.082   6.265   8.833  0.0983 -0.5958 -0.3416
 2920SOL     OW10200   0.802   5.437   1.335 -0.1051  0.7766  0.3892
 2920SOL    HW110201   0.781   5.352   1.295  1.0255  0.4525  0.4629
 2920SOL    HW210202   0.893   5.453   1.311 -0.2727  1.9228  0.4801
 2921SOL     OW10203   2.231   6.392   6.519  0.0583  0.2851 -0.3677
 2921SOL    HW110204   2.248   6.453   6.447  1.2472  0.1432 -0.2297
 2921SOL    HW210205   2.136   6.383   6.521 -0.2257  2.5702 -0.0396
 2922SOL     OW10206   2.474   3.823   2.681 -0.0826  0.1148  0.0819
 2922SOL    HW110207   2.445   3.911   2.659  1.2177  0.3218 -0.9410
 2922SOL    HW210208   2.473   3.820   2.777  1.6551  1.9193  0.2290
 2923SOL     OW10209   5.857   6.952   9.938  0.0972 -0.5078 -0.5944
 2923SOL    HW110210   5.881   6.860   9.951  0.5040 -0.3590 -0.2644
 2923SOL    HW210211   5.763   6.950   9.920 -0.0687 -0.9241  0.2299
 2924SOL     OW10212   5.367   2.643  10.178  0.2557 -0.4000  0.1011
 2924SOL    HW110213   5.438   2.653  10.241 -0.6930 -0.3846  1.2031
 2924SOL    HW210214   5.368   2.725  10.128  1.2002 -0.5301 -0.1108
 2925SOL     OW10215   2.796   2.220   0.286 -0.2068  0.0429 -0.8610
 2925SOL    HW110216   2.840   2.135   0.274 -1.6464 -0.5729 -2.1073
 2925SOL    HW210217   2.764   2.243   0.199 -1.3374  1.0286 -0.2128
 2926SOL     OW10218   1.487   5.476  10.499  0.1542  0.0633  0.0984
 2926SOL    HW110219   1.515   5.470  10.591 -0.9775 -0.6952  0.4256
 2926SOL    HW210220   1.394   5.499  10.505 -0.5371 -2.2310 -0.7602
 2927SOL     OW10221   2.381   0.075   3.604 -0.5056  0.1827 -0.0027
 2927SOL    HW110222   2.446   0.141   3.580 -2.2966  1.3690 -1.8567
 2927SOL    HW210223   2.405  -0.001   3.551 -0.1312  0.3092 -0.0206
 2928SOL     OW10224   0.920   3.337   4.005 -0.6110 -0.0581 -0.5050
 2928SOL    HW110225   1.007   3.301   3.986 -0.0707 -1.5128  3.7283
 2928SOL    HW210226   0.864   3.259   4.015 -1.5757  0.7099  0.2212
 2929SOL     OW10227   3.478   7.466  11.184  0.7287  0.4393  0.0575
 2929SOL    HW110228   3.494   7.560  11.176 -0.6624  0.7264  0.3046
 2929SOL    HW210229   3.434   7.457  11.269  2.3111 -0.6630  0.8049
 2930SOL     OW10230   2.949   3.070  12.150 -0.3508 -0.4120  0.1193
 2930SOL    HW110231   3.011   3.064  12.078 -0.8428 -0.3938 -0.3131
 2930SOL    HW210232   2.864   3.051  12.110 -0.4875 -1.6235  0.9227
 2931SOL     OW10233   2.998   2.643   4.012  0.3256  0.2022  0.3546
 2931SOL    HW110234   3.086   2.676   4.028  0.5586 -0.8636  1.4662
 2931SOL    HW210235   2.999   2.614   3.921  1.1703  0.0862  0.3945
 2932SOL     OW10236   7.220   3.159   0.126 -0.0776  0.0871 -0.4082
 2932SOL    HW110237   7.255   3.199   0.047  0.4271  1.1633  0.3316
 2932SOL    HW210238   7.297   3.130   0.175 -0.4065 -1.1238 -0.5715
 2933SOL     OW10239   6.923   5.080  10.024 -0.5172  0.0085 -0.3413
 2933SOL    HW110240   6.894   5.109  10.110 -0.1760  0.5289 -0.3953
 2933SOL    HW210241   6.910   4.985  10.025 -0.4304 -0.0022  0.3155
 2934SOL     OW10242   0.794   6.337   1.966  0.9299  0.7244 -0.2113
 2934SOL    HW110243   0.794   6.397   2.040 -1.1339  0.4743  0.0649
 2934SOL    HW210244   0.720   6.365   1.912  0.1875 -1.2267 -0.3121
 2935SOL     OW10245   1.178   5.869   8.607 -0.1875 -0.7006 -0.1247
 2935SOL    HW110246   1.122   5.845   8.680  1.4420 -1.6249  0.8859
 2935SOL    HW210247   1.189   5.788   8.558 -0.8092 -0.2138 -1.1072
 2936SOL     OW10248   6.702   6.558   6.309  0.0780  0.4188  0.9974
 2936SOL    HW110249   6.774   6.495   6.311 -0.1552  0.1527  2.5307
 2936SOL    HW210250   6.647   6.531   6.236  0.2050 -0.9288  1.3814
 2937SOL     OW10251   6.081   6.578   4.784 -0.1355  0.0193  0.4086
 2937SOL    HW110252   6.132   6.646   4.740  1.0762 -1.0066  0.1706
 2937SOL    HW210253   5.990   6.609   4.779  0.2460  1.0334 -0.7464
 2938SOL     OW10254   4.573   4.038   1.516  0.2024 -0.2604  0.2520
 2938SOL    HW110255   4.539   4.119   1.478 -0.3217 -0.8121 -0.4887
 2938SOL    HW210256   4.514   3.970   1.484  0.7958 -0.9765  0.6456
 2939SOL     OW10257   1.485   0.212   6.464  0.1220  0.0457 -0.1284
 2939SOL    HW110258   1.428   0.267   6.409 -0.1076 -1.6415 -1.6734
 2939SOL    HW210259   1.486   0.127   6.419  1.1746 -0.9518  1.6993
 2940SOL     OW10260   3.768   1.101   4.007  0.0071  0.1599 -0.1324
 2940SOL    HW110261   3.695   1.137   4.057 -0.8912 -0.7889 -0.6971
 2940SOL    HW210262   3.797   1.025   4.058  0.9434  0.8259  0.3408
 2941SOL     OW10263   4.732   7.489   1.617  0.4454  0.4290 -0.5345
 2941SOL    HW110264   4.681   7.478   1.697  0.8108  1.1933 -0.1890
 2941SOL    HW210265   4.717   7.408   1.568 -1.1015  0.6326 -0.4441
 2942SOL     OW10266   6.398   5.695   7.164 -0.4200  0.2113 -0.3323
 2942SOL    HW110267   6.329   5.706   7.230 -1.3466 -0.1132 -1.2191
 2942SOL    HW210268   6.393   5.603   7.140  1.0162 -0.0584  0.2985
 2943SOL     OW10269   1.986   0.844   3.638  0.1513 -0.1627 -0.3614
 2943SOL    HW110270   1.996   0.777   3.706 -0.0755  0.6098  0.4550
 2943SOL    HW210271   2.063   0.832   3.581  0.7595 -0.3362  0.4757
 2944SOL     OW10272   3.935   7.095   8.667 -0.0380  0.2619 -0.1887
 2944SOL    HW110273   4.009   7.068   8.721  0.9890  1.7230 -0.8122
 2944SOL    HW210274   3.944   7.190   8.658 -2.9710  0.7737  1.1336
 2945SOL     OW10275   4.629   3.652   5.617  0.0446  0.1632 -0.6387
 2945SOL    HW110276   4.681   3.646   5.697  0.2056  0.5778 -0.7077
 2945SOL    HW210277   4.652   3.738   5.580 -1.0527  0.5676 -0.4126
 2946SOL     OW10278   6.541   7.761  11.081  0.0093  0.3299 -0.6764
 2946SOL    HW110279   6.506   7.839  11.123 -0.8615 -0.1601 -0.4557
 2946SOL    HW210280   6.629   7.785  11.053  0.3272  0.9200  0.7332
 2947SOL     OW10281   4.653   0.455   3.686  0.3441 -0.1548 -0.2419
 2947SOL    HW110282   4.670   0.417   3.772 -1.1087  0.7708  0.4843
 2947SOL    HW210283   4.736   0.445   3.638  1.6140  0.5331  1.7101
 2948SOL     OW10284   4.116   7.900   6.485  0.2363 -0.2646  0.2274
 2948SOL    HW110285   4.124   7.908   6.390 -0.0748 -1.5293  0.0768
 2948SOL    HW210286   4.113   7.991   6.517 -1.0532  0.1991 -1.0977
 2949SOL     OW10287   3.564   2.706   6.174 -0.0289  0.0250 -0.7521
 2949SOL    HW110288   3.624   2.644   6.133 -0.7838 -0.7316 -0.7405
 2949SOL    HW210289   3.621   2.766   6.223  0.7146 -0.5828 -0.8535
 2950SOL     OW10290   3.300   1.901  10.965  0.1428 -0.5127 -0.5363
 2950SOL    HW110291   3.236   1.968  10.988  0.3819 -0.7214  0.8366
 2950SOL    HW210292   3.385   1.945  10.971  0.3890 -1.1607  1.4675
 2951SOL     OW10293   6.452   2.554   6.359 -0.1913 -0.1452  0.1078
 2951SOL    HW110294   6.476   2.582   6.447 -1.3812 -1.8659  1.0448
 2951SOL    HW210295   6.382   2.613   6.333  0.5009  0.6820  0.1059
 2952SOL     OW10296   1.535   4.537   1.415  0.4961 -0.0644 -0.0747
 2952SOL    HW110297   1.620   4.574   1.440  0.7242 -1.3914  1.2138
 2952SOL    HW210298   1.510   4.483   1.490 -2.2084  1.4473  0.2366
 2953SOL     OW10299   1.322   6.834  11.699  0.2085 -0.4487  0.0773
 2953SOL    HW110300   1.376   6.902  11.740  0.4293 -0.4229 -0.2475
 2953SOL    HW210301   1.335   6.756  11.754 -0.6600 -0.0313  0.9029
 2954SOL     OW10302   1.557   1.403  12.057  0.0281 -0.0026 -0.1300
 2954SOL    HW110303   1.626   1.352  12.100  1.1902  0.7683 -1.0303
 2954SOL    HW210304   1.541   1.356  11.975  0.5898  0.6475 -0.6269
 2955SOL     OW10305   2.130   0.371   8.703  0.2470 -0.6414 -0.0650
 2955SOL    HW110306   2.079   0.348   8.781  1.2404 -1.4703  0.3528
 2955SOL    HW210307   2.095   0.314   8.634  0.4095 -0.9911  0.1434
 2956SOL     OW10308   6.560   2.886   5.575  0.5606  0.2138  0.1591
 2956SOL    HW110309   6.503   2.914   5.646  3.3886  1.3141  2.1440
 2956SOL    HW210310   6.624   2.828   5.616  0.0173 -2.3995 -2.2962
 2957SOL     OW10311   0.400   0.512   7.693  0.0587  0.0215 -0.5417
 2957SOL    HW110312   0.494   0.509   7.678  0.2122  0.9046  0.1786
 2957SOL    HW210313   0.372   0.421   7.687  1.3712 -0.6045  1.7222
 2958SOL     OW10314   6.367   1.036   1.586 -0.2578 -0.1381  0.2298
 2958SOL    HW110315   6.318   1.049   1.667 -0.3016 -0.8621  0.3229
 2958SOL    HW210316   6.454   1.009   1.615 -0.3440 -0.6311  0.0335
 2959SOL     OW10317   6.387   5.124  10.115 -0.1218 -0.6402 -0.1831
 2959SOL    HW110318   6.344   5.206  10.088 -0.7344 -0.9638 -0.2193
 2959SOL    HW210319   6.418   5.085  10.034 -0.6483 -0.8902 -0.2670
 2960SOL     OW10320   2.782   5.790   8.450 -0.0167  0.0966 -0.0851
 2960SOL    HW110321   2.722   5.857   8.484  1.3290  0.5219  1.6392
 2960SOL    HW210322   2.750   5.708   8.489  1.0521  0.4708  1.7145
 2961SOL     OW10323   2.136   5.620   6.278 -0.4308  0.2570 -0.5066
 2961SOL    HW110324   2.072   5.565   6.324 -0.3839  0.6421  0.0231
 2961SOL    HW210325   2.186   5.663   6.347  1.2375 -0.9697 -0.8929
 2962SOL     OW10326   3.119   3.254  12.250 -0.7273  0.5791  0.3714
 2962SOL    HW110327   3.079   3.248  12.336 -0.7959  0.1585  0.3102
 2962SOL    HW210328   3.056   3.214  12.190  0.7152 -2.2716  0.5867
 2963SOL     OW10329   6.374   1.657   8.605  0.2888  0.5148  0.1806
 2963SOL    HW110330   6.419   1.572   8.607 -0.5106  0.0965  1.2415
 2963SOL    HW210331   6.303   1.645   8.541 -0.0813  0.2387  0.6367
 2964SOL     OW10332   5.515   5.025  11.514  0.2842 -0.2937 -0.1045
 2964SOL    HW110333   5.453   4.973  11.566 -0.1858  1.4618  1.1947
 2964SOL    HW210334   5.463   5.055  11.439  0.3068 -0.9120 -0.3785
 2965SOL     OW10335   3.879   6.117   0.005  0.3897 -0.2874 -0.4960
 2965SOL    HW110336   3.832   6.038   0.032 -0.0284  0.7546  2.0271
 2965SOL    HW210337   3.971   6.095   0.018  0.2378 -0.1217  0.9950
 2966SOL     OW10338   6.490   1.372   7.319 -0.3757  0.4817 -0.3701
 2966SOL    HW110339   6.556   1.392   7.253  0.0372 -0.4071 -0.2275
 2966SOL    HW210340   6.415   1.339   7.269 -0.3629  0.5793 -0.4540
 2967SOL     OW10341   5.424   2.968   2.409  0.1905  0.1810 -0.3179
 2967SOL    HW110342   5.335   2.944   2.437  0.1255  0.7040 -0.0601
 2967SOL    HW210343   5.464   2.885   2.383 -0.3574 -0.0673 -0.3871
 2968SOL     OW10344   0.053   3.394   3.444  0.3395 -0.0880  0.2601
 2968SOL    HW110345   0.098   3.378   3.361  1.3800  0.5899  0.6803
 2968SOL    HW210346   0.090   3.476   3.476 -0.4882 -0.0291  1.1044
 2969SOL     OW10347   6.766   3.908   9.628  0.1753  0.9247 -0.2462
 2969SOL    HW110348   6.859   3.928   9.643  0.5361  0.3070 -1.4555
 2969SOL    HW210349   6.740   3.966   9.557 -0.3981  1.1543  0.1465
 2970SOL     OW10350   6.811   5.861   4.860  0.6155  0.2203  0.5155
 2970SOL    HW110351   6.844   5.796   4.922  1.5153  0.3815  0.2257
 2970SOL    HW210352   6.720   5.875   4.885  0.5028 -0.9000  0.7951
 2971SOL     OW10353   6.428   2.181   0.311 -0.0235 -0.6575 -0.4951
 2971SOL    HW110354   6.510   2.142   0.341  1.0061  0.4102 -1.7807
 2971SOL    HW210355   6.422   2.264   0.360 -1.1222 -1.3833  0.6714
 2972SOL     OW10356   1.045   6.813   3.135 -0.0434  0.3803  0.1640
 2972SOL    HW110357   1.011   6.830   3.048 -1.8847 -1.8297  0.3555
 2972SOL    HW210358   1.075   6.898   3.166 -2.1427  1.8243 -1.4717
 2973SOL     OW10359   3.015   1.823   9.569 -0.2946 -0.4043  0.1347
 2973SOL    HW110360   2.996   1.899   9.513  0.2647 -0.6192 -0.3540
 2973SOL    HW210361   3.000   1.855   9.658  1.5731  0.7998  0.0628
 2974SOL     OW10362   6.309   4.306   2.541 -0.1637  0.1802  0.3736
 2974SOL    HW110363   6.301   4.352   2.624  0.8952  0.8719  0.1098
 2974SOL    HW210364   6.301   4.213   2.565 -0.9433  0.4137  1.0858
 2975SOL     OW10365   3.045   6.555  12.134  0.2931  0.6622 -0.2125
 2975SOL    HW110366   3.038   6.470  12.177 -2.2845  0.5772 -0.6555
 2975SOL    HW210367   3.132   6.555  12.093  0.2695 -1.8403 -0.3761
 2976SOL     OW10368   0.378   0.179   8.371  0.1913  0.1902 -0.0056
 2976SOL    HW110369   0.288   0.146   8.374  0.5696 -0.8528  1.0758
 2976SOL    HW210370   0.374   0.265   8.412 -0.2512 -0.0458  0.4537
 2977SOL     OW10371   3.086   1.589   4.870 -0.2344 -0.0643 -0.3133
 2977SOL    HW110372   3.104   1.660   4.931 -0.4572  0.1827 -0.5287
 2977SOL    HW210373   2.999   1.609   4.834  0.6951  0.9089 -2.2054
 2978SOL     OW10374   6.385   0.651   5.637  0.1633  0.1307 -0.1336
 2978SOL    HW110375   6.447   0.586   5.671  0.1062 -0.1583 -0.5733
 2978SOL    HW210376   6.425   0.683   5.557 -0.4545 -0.3842 -0.6586
 2979SOL     OW10377   6.554   1.529   2.846 -0.1813  0.0574 -0.1441
 2979SOL    HW110378   6.624   1.533   2.912  0.5015 -0.3325 -0.8298
 2979SOL    HW210379   6.486   1.588   2.880  1.7141  2.8827 -0.8812
 2980SOL     OW10380   2.292   6.774   8.176  0.5223  0.0945  0.8455
 2980SOL    HW110381   2.331   6.757   8.090  0.2986  2.2914  0.2661
 2980SOL    HW210382   2.198   6.765   8.161  0.5108 -0.0165  0.9836
 2981SOL     OW10383   4.812   1.088   6.866  0.0818 -0.1320  0.2102
 2981SOL    HW110384   4.811   1.139   6.947 -2.3537  1.4926 -0.7197
 2981SOL    HW210385   4.852   1.004   6.891 -0.9618  0.1249  3.2001
 2982SOL     OW10386   3.661   2.191  10.613 -0.0128 -0.4790 -0.2561
 2982SOL    HW110387   3.710   2.231  10.685  1.6248 -1.1121 -0.9573
 2982SOL    HW210388   3.713   2.114  10.589 -2.3889 -2.3924  0.2483
 2983SOL     OW10389   2.428   3.634   6.418 -0.1964  0.0606 -0.0839
 2983SOL    HW110390   2.454   3.720   6.451 -0.9943 -0.5031  2.2282
 2983SOL    HW210391   2.473   3.572   6.475 -0.1448 -1.0623 -1.3013
 2984SOL     OW10392   6.612   4.251  10.827  0.4619  0.1959  0.0900
 2984SOL    HW110393   6.615   4.161  10.858 -1.7067 -0.1302 -0.4393
 2984SOL    HW210394   6.652   4.303  10.897  0.0390 -0.9969  1.2377
 2985SOL     OW10395   3.424   0.145   3.405  0.3410  0.4284  0.0965
 2985SOL    HW110396   3.507   0.153   3.451 -0.5717  0.2417  1.8322
 2985SOL    HW210397   3.406   0.234   3.374  0.4774  0.7844  1.0092
 2986SOL     OW10398   3.530   7.193  12.015 -0.4016 -0.2442 -0.0411
 2986SOL    HW110399   3.492   7.202  11.927 -0.2990  0.7929  0.0080
 2986SOL    HW210400   3.622   7.172  11.999 -0.3149  0.2318 -0.1953
 2987SOL     OW10401   6.791   0.501   3.069  0.7499 -0.2521  0.1476
 2987SOL    HW110402   6.700   0.486   3.096  0.2633 -0.2101 -1.3503
 2987SOL    HW210403   6.820   0.575   3.122 -0.6000  0.6905 -0.3784
 2988SOL     OW10404   6.379   1.961   7.980 -0.9358 -0.2911  0.2473
 2988SOL    HW110405   6.360   1.940   7.889 -0.3459  0.4421 -0.0535
 2988SOL    HW210406   6.358   1.881   8.028  2.4803 -2.1396 -0.9969
 2989SOL     OW10407   3.836   3.094   4.393 -0.1861 -0.3238 -0.0433
 2989SOL    HW110408   3.914   3.145   4.414 -0.3950 -0.7834  2.0726
 2989SOL    HW210409   3.818   3.114   4.301  1.1888  1.4264  0.0193
 2990SOL     OW10410   5.299   7.772   3.835 -0.2971  0.1119  0.9202
 2990SOL    HW110411   5.241   7.778   3.759  0.8421  0.3164  0.0298
 2990SOL    HW210412   5.270   7.693   3.881 -0.3931 -0.5801 -0.2742
 2991SOL     OW10413   7.418   0.939   9.196  0.0766  0.3017 -0.3449
 2991SOL    HW110414   7.459   0.885   9.263  0.0993 -1.1595 -1.4854
 2991SOL    HW210415   7.484   1.006   9.176  0.4707  0.1312  0.3659
 2992SOL     OW10416   2.580   2.057   7.933 -0.5191  0.3562 -0.3606
 2992SOL    HW110417   2.606   2.144   7.964 -0.3906 -0.3646  1.6749
 2992SOL    HW210418   2.621   2.049   7.847 -1.5101  2.7529 -1.1476
 2993SOL     OW10419   7.827   5.259   3.369  0.1678  0.2102 -0.6549
 2993SOL    HW110420   7.852   5.342   3.329 -0.7823  0.8842  0.1107
 2993SOL    HW210421   7.895   5.197   3.340  0.2250  0.9529 -2.2200
 2994SOL     OW10422   5.405   6.597  10.884 -0.0277 -0.0700 -0.0923
 2994SOL    HW110423   5.325   6.586  10.832 -0.1437 -0.1328  0.0979
 2994SOL    HW210424   5.375   6.631  10.968  0.2675  1.0869 -0.4349
 2995SOL     OW10425   3.341   7.751  10.188 -0.2096  0.0587 -0.4191
 2995SOL    HW110426   3.374   7.828  10.233  0.6113 -0.2958 -0.4085
 2995SOL    HW210427   3.417   7.694  10.177 -0.9838 -1.1832  0.4319
 2996SOL     OW10428   0.986   0.371   0.562 -0.5155  0.4226  0.2607
 2996SOL    HW110429   0.937   0.434   0.615 -0.1377 -0.5195  1.7921
 2996SOL    HW210430   0.947   0.287   0.585 -0.4230  0.0043 -1.0901
 2997SOL     OW10431   6.032   2.643  11.866 -0.3506  0.5164 -0.4639
 2997SOL    HW110432   6.021   2.728  11.825 -2.3354  0.5164 -0.0260
 2997SOL    HW210433   5.961   2.637  11.930  0.7304 -0.7971  0.7054
 2998SOL     OW10434   5.675   7.062  11.403  0.4879  0.3816  0.3760
 2998SOL    HW110435   5.637   7.130  11.459 -0.0754  0.4747 -0.1076
 2998SOL    HW210436   5.644   6.980  11.441 -2.8767  0.4713 -1.7510
 2999SOL     OW10437   7.763   5.212   8.865  0.1465 -0.2509 -0.1015
 2999SOL    HW110438   7.714   5.135   8.894  0.6482 -0.6522 -0.2925
 2999SOL    HW210439   7.713   5.286   8.899 -0.4154 -0.6541 -0.0178
 3000SOL     OW10440   5.881   5.218   7.307  0.4399 -0.2938 -0.2864
 3000SOL    HW110441   5.973   5.204   7.284  1.3229  1.2189  2.0291
 3000SOL    HW210442   5.875   5.311   7.326 -1.5814 -0.3851 -0.2707
 3001SOL     OW10443   1.063   1.750  12.125  0.0801 -0.3648  0.3052
 3001SOL    HW110444   0.974   1.774  12.150  0.8356  1.8668  1.1129
 3001SOL    HW210445   1.074   1.786  12.037  0.8180  1.3193  1.0367
 3002SOL     OW10446   4.505   5.095   7.911  0.2353 -0.2168  0.3663
 3002SOL    HW110447   4.545   5.097   7.824 -0.8986 -2.1003 -0.2600
 3002SOL    HW210448   4.565   5.146   7.966  3.5160 -2.7791 -0.5086
 3003SOL     OW10449   3.315   6.184   3.338  0.2011  0.2112 -0.3544
 3003SOL    HW110450   3.307   6.172   3.433  1.2186  0.5820 -0.2161
 3003SOL    HW210451   3.394   6.237   3.327 -1.2582  2.3406 -1.2527
 3004SOL     OW10452   3.939   5.487   2.828  0.0941 -0.0050 -0.2109
 3004SOL    HW110453   3.998   5.476   2.902 -0.2041  0.8989  0.1778
 3004SOL    HW210454   3.986   5.449   2.754  1.1707  0.7267  0.0826
 3005SOL     OW10455   3.851   2.811   0.314  0.4041  0.4909 -0.1389
 3005SOL    HW110456   3.945   2.813   0.297  0.2238  1.2508 -1.1376
 3005SOL    HW210457   3.816   2.886   0.265 -0.8404 -0.3348 -0.5726
 3006SOL     OW10458   5.385   7.743  10.512 -0.3722  0.2140 -0.3523
 3006SOL    HW110459   5.313   7.708  10.459 -0.2198 -0.1386 -0.3292
 3006SOL    HW210460   5.457   7.681  10.499  0.1463  0.9140 -0.8884
 3007SOL     OW10461   6.184   0.995   8.917 -0.0947  0.2196  0.2175
 3007SOL    HW110462   6.145   0.919   8.874  0.4532 -0.0769  0.2268
 3007SOL    HW210463   6.119   1.064   8.909 -0.0416  0.1475 -1.0202
 3008SOL     OW10464   3.120   4.399   1.560 -0.0604 -0.2172  0.2706
 3008SOL    HW110465   3.106   4.361   1.473 -0.8424 -1.8763  1.0691
 3008SOL    HW210466   3.200   4.358   1.592 -0.6054 -0.8298  0.9128
 3009SOL     OW10467   6.045   5.093   6.825 -0.1551  0.3003 -0.0311
 3009SOL    HW110468   5.971   5.124   6.775 -0.1528  3.7215  1.8274
 3009SOL    HW210469   6.111   5.161   6.816  1.5232 -1.0843  1.0461
 3010SOL     OW10470   1.240   5.916   2.989  0.0825  0.1706 -0.4581
 3010SOL    HW110471   1.256   5.880   3.076 -1.1440  1.0076  0.1492
 3010SOL    HW210472   1.179   5.989   3.004 -0.6295 -0.0416 -2.0740
 3011SOL     OW10473   1.290   6.075   3.306 -0.5076 -0.3347  0.2222
 3011SOL    HW110474   1.378   6.086   3.342  0.3002 -2.8189 -0.7822
 3011SOL    HW210475   1.247   6.159   3.322  1.8202  0.7413  1.3108
 3012SOL     OW10476   4.681   7.228  10.607  0.5202  0.1387  0.1897
 3012SOL    HW110477   4.759   7.221  10.663  0.5152  1.0544  0.3376
 3012SOL    HW210478   4.620   7.164  10.642  1.9335 -2.1257 -1.2036
 3013SOL     OW10479   2.746   1.435   0.006 -0.7825 -0.1898 -0.0733
 3013SOL    HW110480   2.691   1.389  -0.058 -1.4994 -0.4994  0.7448
 3013SOL    HW210481   2.685   1.464   0.073  0.0404 -0.4357  0.7978
 3014SOL     OW10482   5.391   3.951   5.105  0.0241 -0.5501  0.4129
 3014SOL    HW110483   5.324   3.997   5.055  0.6726 -2.8558 -2.8612
 3014SOL    HW210484   5.344   3.913   5.179 -1.3838  1.3765  0.5686
 3015SOL     OW10485   2.534   2.981   9.889  0.1998  0.0282 -0.1146
 3015SOL    HW110486   2.486   3.057   9.921 -2.6791 -0.4356 -2.9098
 3015SOL    HW210487   2.617   3.017   9.858 -0.7430  1.9137 -0.5982
 3016SOL     OW10488   1.507   7.977   2.740 -0.0818  0.4695  0.0362
 3016SOL    HW110489   1.447   8.037   2.696  2.9976  2.7038 -1.4834
 3016SOL    HW210490   1.498   7.999   2.833 -2.0846  0.1754 -0.0369
 3017SOL     OW10491   2.202   6.745   6.450  0.2933  0.2421 -0.1316
 3017SOL    HW110492   2.110   6.771   6.451  0.1535 -0.2263  1.5101
 3017SOL    HW210493   2.206   6.672   6.387  0.0433  1.8031 -2.0743
 3018SOL     OW10494   7.607   4.244  11.573  0.1444  0.3724  0.8293
 3018SOL    HW110495   7.576   4.331  11.549 -1.1677  0.1113  1.4504
 3018SOL    HW210496   7.602   4.243  11.669  2.7079  0.4931  1.0443
 3019SOL     OW10497   6.117   4.009   5.282  0.5181 -0.1228  0.6203
 3019SOL    HW110498   6.143   3.919   5.261  0.2539 -0.5333  1.9178
 3019SOL    HW210499   6.085   4.003   5.372  1.8305  1.5225  1.2557
 3020SOL     OW10500   5.988   2.966   4.666  0.2516 -0.5907 -0.2298
 3020SOL    HW110501   6.069   2.928   4.700 -0.1304 -0.6433  0.6337
 3020SOL    HW210502   5.939   2.892   4.631  0.7304 -0.5111 -1.1210
 3021SOL     OW10503   0.639   7.415   5.652  0.0727  0.0857 -0.2637
 3021SOL    HW110504   0.556   7.399   5.696  0.5150 -0.7605  0.2845
 3021SOL    HW210505   0.636   7.359   5.574 -0.0137  0.3176 -0.4278
 3022SOL     OW10506   0.936   7.855   7.291 -0.0169  0.9630 -0.0648
 3022SOL    HW110507   1.011   7.815   7.335 -0.8963  1.9812  2.5926
 3022SOL    HW210508   0.953   7.841   7.198  2.3809 -0.6994  0.5031
 3023SOL     OW10509   7.589   0.055   1.400 -0.4615  0.5166 -0.2163
 3023SOL    HW110510   7.634   0.106   1.467 -2.1337 -0.1652  1.5051
 3023SOL    HW210511   7.543  -0.013   1.448 -0.0381 -1.3349 -2.2661
 3024SOL     OW10512   0.753   5.546   7.414  0.7651 -1.0344 -0.1662
 3024SOL    HW110513   0.795   5.630   7.434 -0.0901 -0.4837 -0.6149
 3024SOL    HW210514   0.675   5.544   7.470  0.1310 -0.9744 -1.0333
 3025SOL     OW10515   4.820   4.455   5.432 -0.1831  0.0681  0.0782
 3025SOL    HW110516   4.744   4.408   5.466 -0.2240  0.2811  0.2824
 3025SOL    HW210517   4.833   4.420   5.344  0.5313 -1.2166  0.6638
 3026SOL     OW10518   6.410   4.959   8.287 -0.0882  0.1771 -0.1830
 3026SOL    HW110519   6.319   4.986   8.290 -0.2761 -0.2972 -1.2098
 3026SOL    HW210520   6.460   5.041   8.285 -0.5143  0.4349 -0.2762
 3027SOL     OW10521   4.514   6.547   3.859 -0.4890 -0.0775  0.0206
 3027SOL    HW110522   4.597   6.517   3.824  0.7319  0.3884  2.3168
 3027SOL    HW210523   4.476   6.601   3.790  1.5637  0.4861 -0.7079
 3028SOL     OW10524   2.787   4.725   6.193 -0.6379 -0.1113 -0.2401
 3028SOL    HW110525   2.801   4.769   6.276  1.4926 -0.6150 -0.2715
 3028SOL    HW210526   2.819   4.636   6.207 -2.5668 -0.9477 -0.8913
 3029SOL     OW10527   5.277   3.294   1.482  0.3809 -0.0669 -0.1134
 3029SOL    HW110528   5.236   3.359   1.540 -0.2892  0.5646 -1.2662
 3029SOL    HW210529   5.370   3.318   1.481  0.0292  1.3750 -1.1092
 3030SOL     OW10530   4.434   3.227  11.157  0.3669  0.7767  0.1337
 3030SOL    HW110531   4.388   3.175  11.223 -0.7034  1.5673  0.0447
 3030SOL    HW210532   4.461   3.163  11.090 -2.1178  0.4524 -0.6547
 3031SOL     OW10533   2.876   2.016   4.433 -0.0135 -0.2512 -0.3527
 3031SOL    HW110534   2.867   1.921   4.444  0.0341 -0.2904 -0.6432
 3031SOL    HW210535   2.862   2.031   4.340  1.1566 -0.1067 -0.5173
 3032SOL     OW10536   2.709   3.139   9.778 -0.1180 -0.0229 -0.3359
 3032SOL    HW110537   2.728   3.230   9.796  0.5715 -0.5815  2.1312
 3032SOL    HW210538   2.759   3.118   9.699 -1.2775  1.9983 -1.6797
 3033SOL     OW10539   2.299   4.000   8.649 -0.5597  0.2405  0.3460
 3033SOL    HW110540   2.317   4.047   8.568 -0.8663  0.5893  0.4789
 3033SOL    HW210541   2.370   4.023   8.708 -0.7195  0.5522  0.4169
 3034SOL     OW10542   4.162   4.093   9.871 -0.2221  0.0848  0.2353
 3034SOL    HW110543   4.213   4.053   9.801 -0.3339  1.2447 -0.5372
 3034SOL    HW210544   4.153   4.024   9.937  1.5923 -0.4141  0.0122
 3035SOL     OW10545   4.483   3.145   2.111  0.1424  0.6433 -0.2179
 3035SOL    HW110546   4.439   3.074   2.065  0.4616  1.2132 -1.4744
 3035SOL    HW210547   4.490   3.116   2.201 -2.2099  0.2540 -0.1058
 3036SOL     OW10548   4.072   2.147   6.573  0.1875  0.5721 -0.2853
 3036SOL    HW110549   4.099   2.141   6.665 -0.2345  0.9843 -0.1305
 3036SOL    HW210550   4.106   2.231   6.543  0.3037  0.4484 -0.5030
 3037SOL     OW10551   7.750   2.954   2.010  0.1182  0.0015 -0.0718
 3037SOL    HW110552   7.824   3.013   2.000  2.0299 -1.9453  1.6173
 3037SOL    HW210553   7.771   2.901   2.088 -1.7107 -2.5092 -1.1380
 3038SOL     OW10554   1.883   6.041   8.306 -0.0498  0.1890 -0.2746
 3038SOL    HW110555   1.809   6.087   8.347  0.5976  1.9158 -0.9220
 3038SOL    HW210556   1.954   6.050   8.369 -0.2932 -1.2467  0.2326
 3039SOL     OW10557   6.474   7.766   2.840  0.5114  0.7257  0.7217
 3039SOL    HW110558   6.507   7.813   2.917  1.7521  0.8430  0.1351
 3039SOL    HW210559   6.382   7.748   2.861  1.1289 -0.3983  2.7924
 3040SOL     OW10560   2.843   2.778   7.742 -0.1646 -0.2837 -0.5418
 3040SOL    HW110561   2.840   2.787   7.647  0.3678  1.7520 -0.4100
 3040SOL    HW210562   2.914   2.715   7.758 -0.6046 -1.0355 -1.4971
 3041SOL     OW10563   0.831   5.412   8.568 -0.6404  0.2036 -0.0093
 3041SOL    HW110564   0.870   5.326   8.573  0.3898  0.7039  0.9643
 3041SOL    HW210565   0.754   5.401   8.511  0.7838 -0.8345 -1.8270
 3042SOL     OW10566   3.885   1.970   6.469  0.3415 -0.5200 -0.2463
 3042SOL    HW110567   3.890   1.951   6.376  0.0759  1.2637 -0.6582
 3042SOL    HW210568   3.943   2.045   6.482  0.1168 -0.5226  0.9584
 3043SOL     OW10569   0.718   0.511   1.669 -0.0245 -0.3762 -0.0074
 3043SOL    HW110570   0.691   0.559   1.591 -2.7946  0.9597  1.6389
 3043SOL    HW210571   0.706   0.418   1.647  0.8130 -0.1236 -1.6436
 3044SOL     OW10572   5.740   7.585  10.763 -0.0343  0.2806 -0.2841
 3044SOL    HW110573   5.799   7.621  10.697 -0.3115  0.9449 -0.1804
 3044SOL    HW210574   5.733   7.654  10.829  0.2693 -0.3904  0.4622
 3045SOL     OW10575   1.491   0.683   0.674  0.1770  0.6029 -0.4383
 3045SOL    HW110576   1.533   0.754   0.723 -0.3307  1.2729 -0.9358
 3045SOL    HW210577   1.545   0.606   0.690  0.1945  0.8789  0.9103
 3046SOL     OW10578   6.196   7.193   3.990 -0.1049 -0.2955  0.1812
 3046SOL    HW110579   6.200   7.104   4.025  2.4137  0.5602  2.4323
 3046SOL    HW210580   6.193   7.249   4.068 -0.2095  1.6269 -1.1468
 3047SOL     OW10581   5.493   2.318   6.741  0.0346 -0.4337 -0.5122
 3047SOL    HW110582   5.519   2.405   6.710 -0.6127 -0.4993 -1.2935
 3047SOL    HW210583   5.408   2.333   6.784  0.6127 -0.4561  0.6753
 3048SOL     OW10584   1.138   1.497   5.850 -0.1655 -0.4051  0.2890
 3048SOL    HW110585   1.045   1.476   5.841  0.2406 -1.8763 -1.0747
 3048SOL    HW210586   1.164   1.458   5.933 -0.6044 -0.7302  0.2778
 3049SOL     OW10587   7.275   3.276   9.689 -0.7258 -0.0423  0.0138
 3049SOL    HW110588   7.207   3.211   9.705 -0.0857 -0.5063  0.9362
 3049SOL    HW210589   7.306   3.258   9.600 -1.8355  0.2275 -0.4548
 3050SOL     OW10590   7.596   5.772   3.572 -0.2834 -0.1216 -0.6416
 3050SOL    HW110591   7.517   5.740   3.528  0.0842 -0.2294 -1.2395
 3050SOL    HW210592   7.606   5.862   3.541  0.2941 -0.3851 -1.2296
 3051SOL     OW10593   1.107   7.695   3.095  0.1474  0.6894  0.6699
 3051SOL    HW110594   1.151   7.636   3.034 -1.0506  1.1305 -0.6702
 3051SOL    HW210595   1.174   7.758   3.119  1.4274 -1.0757  2.0420
 3052SOL     OW10596   6.934   0.985   7.623  0.3587  0.0463 -0.3237
 3052SOL    HW110597   6.876   1.009   7.695  0.8565 -0.4145  0.2401
 3052SOL    HW210598   6.956   0.894   7.638 -1.6107 -0.8958 -2.5322
 3053SOL     OW10599   2.981   0.461   3.993  0.2873  0.4238  0.1831
 3053SOL    HW110600   3.068   0.492   4.019  0.7637 -1.0261  0.4599
 3053SOL    HW210601   2.987   0.448   3.899  0.2858  0.6026  0.1590
 3054SOL     OW10602   4.749   5.675   2.965  0.1578  0.0333 -0.3300
 3054SOL    HW110603   4.737   5.585   2.997  1.5690  0.3370  1.1987
 3054SOL    HW210604   4.764   5.666   2.872 -0.3464 -1.2540 -0.3100
 3055SOL     OW10605   4.170   3.100  12.254  0.8261 -0.5795 -0.4390
 3055SOL    HW110606   4.261   3.125  12.238  1.7638 -0.8357  3.4959
 3055SOL    HW210607   4.171   3.005  12.258  0.9523 -0.5348  1.8420
 3056SOL     OW10608   2.074   4.383   3.151 -0.6640  0.2685 -0.1614
 3056SOL    HW110609   2.093   4.292   3.131 -1.5329 -0.0508  0.4017
 3056SOL    HW210610   2.119   4.399   3.234 -0.2205  0.4610 -0.4360
 3057SOL     OW10611   4.963   1.251   5.854  0.2546  0.2954 -0.3747
 3057SOL    HW110612   5.055   1.224   5.851  0.1096 -0.3484  0.6418
 3057SOL    HW210613   4.953   1.292   5.940  0.1137  2.3885 -1.3066
 3058SOL     OW10614   4.476   5.294   1.051 -1.1529 -0.2451 -0.1067
 3058SOL    HW110615   4.474   5.350   1.129  0.3996 -0.0056 -0.2100
 3058SOL    HW210616   4.428   5.216   1.077  0.6885 -0.8615  1.6806
 3059SOL     OW10617   3.033   1.197   9.849 -0.1627  0.1220 -0.0674
 3059SOL    HW110618   2.991   1.224   9.931 -2.1969  0.0356 -1.0192
 3059SOL    HW210619   2.967   1.214   9.781  1.6084  0.6156 -1.7782
 3060SOL     OW10620   7.777   4.176   0.776 -0.6797  0.1264  0.1836
 3060SOL    HW110621   7.777   4.246   0.841  3.4602  1.3149 -0.8227
 3060SOL    HW210622   7.771   4.221   0.692  0.7354 -0.7924 -0.4419
 3061SOL     OW10623   3.193   3.183   9.611  0.7354  0.4948  0.5119
 3061SOL    HW110624   3.142   3.205   9.689  0.9300 -0.9056  1.0726
 3061SOL    HW210625   3.261   3.250   9.607 -0.3933  1.6731  0.4590
 3062SOL     OW10626   1.312   2.947   6.679 -0.2980  0.0582  0.1955
 3062SOL    HW110627   1.406   2.928   6.684 -0.4399 -0.5361  0.7490
 3062SOL    HW210628   1.298   3.014   6.746 -0.7162 -1.8140  2.1147
 3063SOL     OW10629   4.405   0.595   3.790 -0.1120  0.3345  0.1207
 3063SOL    HW110630   4.374   0.530   3.853  0.4593 -0.1404 -0.0806
 3063SOL    HW210631   4.501   0.586   3.792 -0.0375  1.0030 -0.0865
 3064SOL     OW10632   7.191   0.695   4.314 -0.3234 -0.0298 -0.0386
 3064SOL    HW110633   7.098   0.684   4.333 -0.2666 -0.4445  0.0107
 3064SOL    HW210634   7.194   0.767   4.251 -0.5393  1.1445  1.2481
 3065SOL     OW10635   5.779   1.565   7.413 -0.4876 -0.0385 -0.2825
 3065SOL    HW110636   5.846   1.570   7.481  0.4788 -1.7158 -1.0442
 3065SOL    HW210637   5.787   1.476   7.378 -1.8267  0.3551 -1.7034
 3066SOL     OW10638   0.088   0.944  10.792 -0.0202 -0.3201 -0.7867
 3066SOL    HW110639   0.038   1.023  10.771  1.5423  1.3183  1.3131
 3066SOL    HW210640   0.148   0.933  10.718  0.7301  1.3157 -0.4472
 3067SOL     OW10641   7.258   0.942   6.306 -0.0857  0.1362  0.0970
 3067SOL    HW110642   7.206   0.866   6.332  0.3682 -0.5926 -1.0683
 3067SOL    HW210643   7.305   0.967   6.386 -2.7481  1.3137  1.4143
 3068SOL     OW10644   5.809   1.014   0.363 -0.1130 -0.0031  0.0518
 3068SOL    HW110645   5.867   1.089   0.374  0.2312 -0.1662 -0.5645
 3068SOL    HW210646   5.781   1.020   0.272  0.3535 -0.9254 -0.1611
 3069SOL     OW10647   5.572   0.159  10.334 -0.3606  0.3866  0.1085
 3069SOL    HW110648   5.498   0.120  10.379 -1.0400  2.7312  1.1544
 3069SOL    HW210649   5.562   0.253  10.346  1.3033  0.9540 -2.0717
 3070SOL     OW10650   4.131   2.742   5.597  0.1925 -0.4187  0.0822
 3070SOL    HW110651   4.191   2.739   5.671  0.1292 -1.5771  0.1140
 3070SOL    HW210652   4.154   2.664   5.545  0.7343  0.7454 -1.5207
 3071SOL     OW10653   5.314   1.231   9.368 -0.0636 -0.4930  0.1474
 3071SOL    HW110654   5.377   1.279   9.421 -1.3762  0.9104  0.5253
 3071SOL    HW210655   5.335   1.139   9.381  1.7900 -0.0653  0.3593
 3072SOL     OW10656   7.334   6.406   2.997 -0.3520  0.4042  0.0056
 3072SOL    HW110657   7.413   6.407   2.944 -0.3525  0.7486  0.0110
 3072SOL    HW210658   7.353   6.343   3.067  0.5493  1.6600  0.9485
 3073SOL     OW10659   4.883   1.968   0.294 -0.3303  0.1928  0.2272
 3073SOL    HW110660   4.955   1.939   0.239  1.6814  2.5404  1.4112
 3073SOL    HW210661   4.889   1.913   0.372  0.6663  0.8304  0.6149
 3074SOL     OW10662   6.255   3.124  11.990  0.2111  0.3691 -0.1362
 3074SOL    HW110663   6.284   3.047  11.941  0.6042  1.5531 -1.8872
 3074SOL    HW210664   6.160   3.122  11.983  0.1561 -0.4842  0.7123
 3075SOL     OW10665   6.099   0.821   7.438 -0.8906 -0.8391  0.3628
 3075SOL    HW110666   6.049   0.739   7.429  0.1687 -1.7256  1.9790
 3075SOL    HW210667   6.182   0.794   7.479  0.0255  0.8809 -0.2583
 3076SOL     OW10668   6.738   1.218   6.985  0.7440  0.0737 -0.0840
 3076SOL    HW110669   6.715   1.294   7.038  2.1300  0.0568  0.5767
 3076SOL    HW210670   6.733   1.144   7.045  1.0978 -0.1159 -0.2860
 3077SOL     OW10671   5.621   2.034   5.460  0.0667  0.3970  0.2780
 3077SOL    HW110672   5.572   2.037   5.542 -0.1401  0.3888  0.1563
 3077SOL    HW210673   5.577   2.098   5.404 -2.3489 -2.3195 -1.2265
 3078SOL     OW10674   7.960   1.247   8.984 -0.2310 -1.3460 -0.4246
 3078SOL    HW110675   7.953   1.288   8.897 -0.6059  1.6244  0.8956
 3078SOL    HW210676   8.054   1.232   8.996 -0.0666 -0.7504 -0.9113
 3079SOL     OW10677   7.299   3.689   9.102  0.2580  0.3661 -0.0081
 3079SOL    HW110678   7.216   3.640   9.101  0.2804  0.3231 -0.8893
 3079SOL    HW210679   7.358   3.634   9.154 -0.1285  0.1665  0.2301
 3080SOL     OW10680   5.863   0.197   3.148  0.2466  0.2405 -0.2280
 3080SOL    HW110681   5.779   0.177   3.190  1.4358  0.1573  2.3122
 3080SOL    HW210682   5.917   0.120   3.166  0.6175 -0.1695 -2.7492
 3081SOL     OW10683   6.889   4.066  12.428  0.4547  0.0641 -0.0524
 3081SOL    HW110684   6.876   4.020  12.510  0.3545  0.9213  0.4204
 3081SOL    HW210685   6.835   4.145  12.434  2.9264  1.8652  0.4858
 3082SOL     OW10686   6.984   0.800   9.739  0.0952 -0.0021  0.1552
 3082SOL    HW110687   6.954   0.824   9.651 -0.4236 -1.2482 -0.0276
 3082SOL    HW210688   7.076   0.825   9.740  0.2154 -0.3402 -0.8985
 3083SOL     OW10689   3.659   0.949   0.546 -0.3370 -0.2590  0.9409
 3083SOL    HW110690   3.749   0.919   0.555 -0.5132 -0.1772  3.8980
 3083SOL    HW210691   3.629   0.912   0.463  1.8474 -1.7657  0.7638
 3084SOL     OW10692   3.388   1.666   7.052 -0.0669  0.1480 -0.0742
 3084SOL    HW110693   3.387   1.698   6.962  0.0863 -0.6961 -0.3890
 3084SOL    HW210694   3.478   1.680   7.082 -0.2651  0.9662  0.1545
 3085SOL     OW10695   2.692   5.808   5.294 -0.0982 -0.3736  0.6868
 3085SOL    HW110696   2.765   5.852   5.337 -0.0991  0.9811 -0.6392
 3085SOL    HW210697   2.708   5.819   5.201 -1.2147 -1.3837  0.3437
 3086SOL     OW10698   6.880   7.098   0.337  0.3316  0.1530 -0.0203
 3086SOL    HW110699   6.891   7.003   0.342  1.7708  0.3179  0.4694
 3086SOL    HW210700   6.942   7.125   0.270 -0.4210  0.7150 -0.5055
 3087SOL     OW10701   0.306   1.188   6.791 -0.4344 -0.4329 -0.1111
 3087SOL    HW110702   0.263   1.109   6.825 -0.2672 -0.3598  0.2796
 3087SOL    HW210703   0.350   1.159   6.711 -1.8686 -0.3370 -0.9730
 3088SOL     OW10704   2.856   4.407   5.201  0.2807 -0.2369 -0.2521
 3088SOL    HW110705   2.781   4.424   5.258 -0.1629 -0.5863 -0.7237
 3088SOL    HW210706   2.926   4.462   5.237 -0.2934  0.3583 -0.0188
 3089SOL     OW10707   3.967   1.305   1.892  0.2364  0.2352 -0.7905
 3089SOL    HW110708   3.970   1.229   1.950  0.5631 -0.0743 -1.2011
 3089SOL    HW210709   3.893   1.356   1.923  0.5724  0.2142  0.0740
 3090SOL     OW10710   3.756   6.632   2.372 -0.6198 -0.1587  0.7871
 3090SOL    HW110711   3.744   6.608   2.463 -0.1048 -0.3467  0.8090
 3090SOL    HW210712   3.827   6.696   2.373 -2.0586  1.5182  0.7500
 3091SOL     OW10713   7.564   2.657   2.131 -0.6229 -0.2907 -0.2879
 3091SOL    HW110714   7.540   2.578   2.178 -0.5477 -0.6510 -0.8532
 3091SOL    HW210715   7.605   2.713   2.198 -0.7808 -0.6731  0.1345
 3092SOL     OW10716   5.697   6.543   6.072 -0.3287  0.6927  0.1407
 3092SOL    HW110717   5.663   6.614   6.017 -0.5750  1.7111  1.5428
 3092SOL    HW210718   5.727   6.477   6.010 -0.1203  2.0065 -1.2277
 3093SOL     OW10719   0.974   4.298   1.449 -0.1730 -0.0246  0.1617
 3093SOL    HW110720   0.905   4.340   1.398 -0.7056  0.1206  0.9858
 3093SOL    HW210721   1.026   4.250   1.384 -0.7899  0.2127 -0.5209
 3094SOL     OW10722   6.932   2.361   4.411  0.6362  0.0357 -0.0354
 3094SOL    HW110723   6.899   2.317   4.333  1.7515 -0.7925 -0.0574
 3094SOL    HW210724   7.015   2.317   4.431  1.4272  1.6383  0.3851
 3095SOL     OW10725   4.858   2.328   7.498 -0.8653  0.0170  0.0666
 3095SOL    HW110726   4.918   2.345   7.570 -1.3365  0.6051  0.3210
 3095SOL    HW210727   4.781   2.382   7.516 -1.6223 -0.9627 -0.0809
 3096SOL     OW10728   2.814   6.928   8.873 -0.5574  0.0977 -0.2099
 3096SOL    HW110729   2.770   6.980   8.806  0.1817  0.8104 -0.1557
 3096SOL    HW210730   2.752   6.858   8.894 -2.1288  1.6846  0.6294
 3097SOL     OW10731   7.731   3.881   9.829 -0.0835 -0.8971 -0.1271
 3097SOL    HW110732   7.692   3.966   9.811 -1.1475 -1.0525  1.2582
 3097SOL    HW210733   7.820   3.902   9.858 -0.5071 -0.1846  0.7317
 3098SOL     OW10734   3.631   1.711   1.711 -0.2526  0.3944  0.1507
 3098SOL    HW110735   3.565   1.644   1.730 -1.4448  1.3512 -0.5255
 3098SOL    HW210736   3.715   1.666   1.724 -1.0249 -1.2029 -0.2141
 3099SOL     OW10737   2.549   4.947   0.453  0.5641 -0.0027 -0.2011
 3099SOL    HW110738   2.498   4.866   0.444  1.7908 -0.7711 -0.4722
 3099SOL    HW210739   2.498   5.012   0.405 -0.7813 -0.4393  0.5661
 3100SOL     OW10740   0.497   2.142   9.113  0.0577  0.3418  0.0285
 3100SOL    HW110741   0.558   2.161   9.184  0.3875  0.2988 -0.2353
 3100SOL    HW210742   0.554   2.131   9.036 -0.1454 -1.0877  0.0430
 3101SOL     OW10743   3.307   4.902   3.440 -0.6079 -0.0361 -0.0742
 3101SOL    HW110744   3.361   4.963   3.391 -0.1876 -0.8399 -0.6324
 3101SOL    HW210745   3.351   4.894   3.525 -1.6630  1.8181  0.7101
 3102SOL     OW10746   3.889   1.626   3.542  0.3223 -0.0701 -0.5194
 3102SOL    HW110747   3.946   1.694   3.580 -0.2533  0.8651 -1.2802
 3102SOL    HW210748   3.934   1.599   3.462  0.7852 -0.9525  0.0200
 3103SOL     OW10749   4.651   3.049   9.648  0.2164 -0.5424  0.4939
 3103SOL    HW110750   4.613   3.136   9.664 -0.8150 -0.8966  0.0457
 3103SOL    HW210751   4.733   3.049   9.699  0.9131  1.1631 -0.5383
 3104SOL     OW10752   4.801   1.415   2.613 -0.0087  0.1670 -0.0739
 3104SOL    HW110753   4.709   1.440   2.617 -0.3974 -1.1118 -0.4192
 3104SOL    HW210754   4.811   1.347   2.680  0.3451 -0.6487 -0.9178
 3105SOL     OW10755   5.333   0.433   6.138  0.3764 -0.3185  0.5481
 3105SOL    HW110756   5.247   0.450   6.176  0.1579 -1.5473  0.6596
 3105SOL    HW210757   5.381   0.515   6.149 -0.3744  0.0041  1.5909
 3106SOL     OW10758   5.154   2.994   9.829  0.4332 -0.0828 -0.5178
 3106SOL    HW110759   5.163   2.906   9.793  0.0210 -0.5308  0.4183
 3106SOL    HW210760   5.237   3.036   9.810  0.4833 -0.5415 -1.3396
 3107SOL     OW10761   1.354   4.479   8.105  0.0617  0.0685  0.0349
 3107SOL    HW110762   1.309   4.425   8.040  0.6480 -0.2388 -0.1239
 3107SOL    HW210763   1.292   4.487   8.177 -0.1493 -0.5529 -0.0748
 3108SOL     OW10764   6.235   6.266   8.757  0.2359  0.2603  0.1818
 3108SOL    HW110765   6.297   6.310   8.815  1.2717  0.1206 -0.8021
 3108SOL    HW210766   6.239   6.174   8.784  0.7604  0.1856 -0.1381
 3109SOL     OW10767   3.167   5.386   5.899 -0.0536 -0.1743 -0.2662
 3109SOL    HW110768   3.144   5.424   5.815 -0.8946 -0.7752 -0.3208
 3109SOL    HW210769   3.197   5.298   5.878 -0.3289 -0.3493  0.0660
 3110SOL     OW10770   5.224   5.340   1.411 -0.5387 -0.2465 -0.3718
 3110SOL    HW110771   5.240   5.435   1.407  0.4222 -0.4294 -0.8905
 3110SOL    HW210772   5.163   5.323   1.339 -2.6582  0.3358  1.1822
 3111SOL     OW10773   6.385   7.945  11.891 -0.2897  0.9500 -0.3153
 3111SOL    HW110774   6.429   7.865  11.918 -2.2061  0.0061  0.1684
 3111SOL    HW210775   6.321   7.917  11.826 -1.0750  2.0618 -0.0622
 3112SOL     OW10776   6.265   2.218   8.107 -0.0290  0.0357 -0.4991
 3112SOL    HW110777   6.284   2.169   8.186  0.7186  0.9657 -0.0771
 3112SOL    HW210778   6.287   2.158   8.035  1.7701  0.0398 -0.0022
 3113SOL     OW10779   2.967   7.952  12.118 -0.1372  0.2907 -0.4444
 3113SOL    HW110780   2.899   8.018  12.132 -0.0437  0.3120 -0.0610
 3113SOL    HW210781   2.919   7.872  12.097 -0.2775  0.3349 -0.2956
 3114SOL     OW10782   4.585   4.215   9.250  0.0724 -0.1786 -0.0508
 3114SOL    HW110783   4.567   4.125   9.277  3.4385 -1.7255 -2.2191
 3114SOL    HW210784   4.507   4.241   9.200 -0.7646 -2.1098  0.1602
 3115SOL     OW10785   5.689   1.460   2.587 -0.1685 -0.0869  0.3372
 3115SOL    HW110786   5.631   1.506   2.649 -0.5774 -2.0606  1.5133
 3115SOL    HW210787   5.712   1.527   2.523 -1.8438  1.3951  1.1585
 3116SOL     OW10788   0.476   1.928  12.308 -0.0090 -0.0995  0.7033
 3116SOL    HW110789   0.441   1.948  12.221 -0.8360  1.4008  1.3553
 3116SOL    HW210790   0.436   1.844  12.331 -2.3258  1.0254  0.9426
 3117SOL     OW10791   2.510   1.101   9.037 -0.1906 -1.3462 -0.0408
 3117SOL    HW110792   2.467   1.139   9.113  0.7511 -1.8860  0.7839
 3117SOL    HW210793   2.485   1.158   8.964 -0.4743 -0.3645  0.8080
 3118SOL     OW10794   7.215   2.998  12.287  0.3518 -0.1278  0.7417
 3118SOL    HW110795   7.275   3.045  12.346  0.9274 -2.0131  1.7437
 3118SOL    HW210796   7.229   3.039  12.202  0.6872  1.5995  1.5674
 3119SOL     OW10797   6.263   6.103   4.800  0.6609 -0.4055 -0.3135
 3119SOL    HW110798   6.285   6.083   4.891  1.8730  1.4982 -0.1286
 3119SOL    HW210799   6.172   6.132   4.803  0.9588  0.4898  0.4472
 3120SOL     OW10800   0.548   1.343   5.468 -0.2888 -0.0052 -0.1177
 3120SOL    HW110801   0.512   1.383   5.547 -1.3305 -2.0055  0.4808
 3120SOL    HW210802   0.642   1.364   5.471 -0.1217 -0.8380  2.2007
 3121SOL     OW10803   3.091   4.599   6.572 -0.1527  0.1314  0.3962
 3121SOL    HW110804   3.112   4.567   6.485 -0.3715  1.0978 -0.0186
 3121SOL    HW210805   3.087   4.520   6.626  1.6219 -0.3363 -0.1030
 3122SOL     OW10806   0.313   3.408   4.317  0.3690  0.3511 -0.3226
 3122SOL    HW110807   0.390   3.409   4.373 -0.4341 -2.6999  1.0753
 3122SOL    HW210808   0.300   3.315   4.296 -3.8152  0.4270  0.9495
 3123SOL     OW10809   1.198   6.896   4.920 -0.6880  0.8436  0.3515
 3123SOL    HW110810   1.198   6.804   4.894 -1.2314  0.8833  0.2027
 3123SOL    HW210811   1.219   6.944   4.840  3.5447  0.6938  1.1320
 3124SOL     OW10812   0.333   6.069   0.330 -0.6681 -0.2613 -0.1808
 3124SOL    HW110813   0.354   6.106   0.415 -0.1305 -0.9026 -0.0248
 3124SOL    HW210814   0.411   6.085   0.277 -1.4829  1.3074 -0.9761
 3125SOL     OW10815   3.938   2.164   8.618 -0.5721  0.2799 -0.1169
 3125SOL    HW110816   3.867   2.226   8.599  1.9013  3.1970 -0.6639
 3125SOL    HW210817   3.987   2.157   8.536  2.3390  2.0627  1.3020
 3126SOL     OW10818   3.172   6.004  11.690  0.0211  0.1959  0.6707
 3126SOL    HW110819   3.140   5.991  11.601  0.9733 -1.2845  0.5097
 3126SOL    HW210820   3.128   5.937  11.743 -1.1682  1.5815  1.5192
 3127SOL     OW10821   7.757   7.297   6.290 -0.1581 -0.2824  0.1944
 3127SOL    HW110822   7.813   7.238   6.239 -2.6968 -2.2170 -0.5761
 3127SOL    HW210823   7.712   7.240   6.351 -0.6114  1.3571  1.4674
 3128SOL     OW10824   7.403   2.057   3.173 -0.0758  0.1512 -0.0823
 3128SOL    HW110825   7.446   1.990   3.120  0.3702  0.2864  0.1045
 3128SOL    HW210826   7.381   2.013   3.255  0.9559  0.4419  0.3618
 3129SOL     OW10827   6.532   4.902   0.133  0.0217 -0.8912  0.4086
 3129SOL    HW110828   6.457   4.878   0.188 -0.3902  0.2437  0.3719
 3129SOL    HW210829   6.579   4.968   0.184 -0.6682  0.5896 -0.7901
 3130SOL     OW10830   2.680   0.195  10.238 -0.2642  0.6852 -0.0923
 3130SOL    HW110831   2.670   0.281  10.279  0.4069  0.4870  0.4843
 3130SOL    HW210832   2.748   0.151  10.288  0.9510  0.6195 -1.7023
 3131SOL     OW10833   6.035   1.935   0.947 -0.7334  0.1429 -0.5841
 3131SOL    HW110834   6.125   1.902   0.953 -0.2039  1.6194  0.3691
 3131SOL    HW210835   5.981   1.857   0.943  0.5121 -0.8312  0.4719
 3132SOL     OW10836   3.384   2.804   4.791 -0.2248 -0.0309 -0.2290
 3132SOL    HW110837   3.373   2.897   4.807 -1.0194  0.3748 -2.7062
 3132SOL    HW210838   3.307   2.779   4.741 -0.6578 -2.3438  1.4322
 3133SOL     OW10839   1.753   4.547  11.320 -0.5370  0.0176 -0.0638
 3133SOL    HW110840   1.731   4.454  11.331  1.2321 -0.6040 -1.2294
 3133SOL    HW210841   1.714   4.572  11.237  1.3641 -0.5644 -1.2033
 3134SOL     OW10842   1.969   7.408   4.487  0.1029 -0.2336  0.2032
 3134SOL    HW110843   1.939   7.396   4.397  1.0032 -1.3552  0.0238
 3134SOL    HW210844   1.916   7.480   4.521 -1.2053 -0.6966 -0.7797
 3135SOL     OW10845   3.012   1.005   5.468 -0.4140  0.6678 -0.0020
 3135SOL    HW110846   3.009   1.062   5.392  0.3855  1.5436  0.6052
 3135SOL    HW210847   2.920   0.982   5.484 -0.7540  1.8222 -0.2326
 3136SOL     OW10848   5.194   0.419   2.491  0.6506  0.1150 -0.3193
 3136SOL    HW110849   5.164   0.329   2.484 -1.4732  0.8077 -0.8087
 3136SOL    HW210850   5.253   0.431   2.417 -1.0343 -0.1824 -1.7601
 3137SOL     OW10851   2.104   1.527   5.838  0.1355 -0.5293  0.1969
 3137SOL    HW110852   2.114   1.437   5.808 -1.1060 -0.4624 -0.4669
 3137SOL    HW210853   2.116   1.580   5.759  2.8838  0.0768  0.8989
 3138SOL     OW10854   6.550   7.624   8.697  0.3225  0.4244 -0.1997
 3138SOL    HW110855   6.642   7.625   8.669  0.2527 -1.2537 -0.5856
 3138SOL    HW210856   6.545   7.550   8.758 -0.4309  1.5252  1.1219
 3139SOL     OW10857   0.978   7.219   3.446 -0.5970 -0.1552  0.2446
 3139SOL    HW110858   0.944   7.180   3.526 -4.2596 -0.4514 -1.2917
 3139SOL    HW210859   0.928   7.300   3.436  0.1546  0.1415 -1.4788
 3140SOL     OW10860   4.197   3.282   5.221 -0.4155  0.4773  0.0038
 3140SOL    HW110861   4.241   3.340   5.283  0.6829 -0.6236  0.3026
 3140SOL    HW210862   4.113   3.261   5.263  0.2437 -0.1232  1.0706
 3141SOL     OW10863   3.467   0.590   0.599  0.4690  0.7723 -0.3154
 3141SOL    HW110864   3.498   0.547   0.519  1.7963  1.4178 -0.1709
 3141SOL    HW210865   3.406   0.657   0.568  0.6264  0.7150 -0.7546
 3142SOL     OW10866   0.031   0.317   4.505 -0.4482 -0.2909 -0.0676
 3142SOL    HW110867  -0.035   0.321   4.573 -0.5255 -1.6796 -0.0228
 3142SOL    HW210868   0.050   0.408   4.483  0.1285  0.2347  2.3268
 3143SOL     OW10869   1.263   6.750   6.515  0.5229 -0.8517 -0.1962
 3143SOL    HW110870   1.222   6.737   6.429  0.2073 -1.9767  0.1162
 3143SOL    HW210871   1.333   6.685   6.517  0.3642 -0.9999  0.5030
 3144SOL     OW10872   1.899   6.051   2.812  0.6886 -0.3180  0.4975
 3144SOL    HW110873   1.972   6.110   2.832  0.3907 -0.3362  1.7031
 3144SOL    HW210874   1.882   6.065   2.719  2.7819 -0.9242 -0.0505
 3145SOL     OW10875   7.243   5.783   2.936 -0.5078  0.3318 -0.2279
 3145SOL    HW110876   7.247   5.870   2.976  2.8530 -0.3688  1.2568
 3145SOL    HW210877   7.156   5.750   2.960 -1.4210  2.7801  0.1579
 3146SOL     OW10878   3.074   2.847   6.680 -1.4360  0.2517  0.4098
 3146SOL    HW110879   3.095   2.939   6.665 -0.4479  0.2328  1.5035
 3146SOL    HW210880   3.021   2.847   6.759  0.0636 -0.2330  1.4526
 3147SOL     OW10881   0.150   1.151   0.356 -0.4287 -0.1605  0.0564
 3147SOL    HW110882   0.154   1.168   0.450 -1.7564 -1.7449  0.4436
 3147SOL    HW210883   0.218   1.086   0.340 -1.7452 -1.7115  0.4254
 3148SOL     OW10884   6.785   4.388   7.999  0.4687 -0.1323  0.6119
 3148SOL    HW110885   6.789   4.482   7.983 -1.3222 -0.5799 -3.7850
 3148SOL    HW210886   6.718   4.378   8.066 -0.2997  1.6712  0.1784
 3149SOL     OW10887   5.381   1.662  10.205 -0.0640 -0.4298  0.1326
 3149SOL    HW110888   5.469   1.677  10.171  0.9300  0.0674  2.6817
 3149SOL    HW210889   5.363   1.738  10.260 -2.2828 -0.3437 -0.6392
 3150SOL     OW10890   0.366   7.396   9.403  0.0001 -0.0100  0.1951
 3150SOL    HW110891   0.425   7.433   9.469 -0.3536  1.4448 -0.2708
 3150SOL    HW210892   0.327   7.472   9.360 -0.3030 -0.9282 -1.2286
 3151SOL     OW10893   6.131   6.203  11.809  0.4292  0.2582  0.0050
 3151SOL    HW110894   6.056   6.154  11.843  0.6204  1.1626  1.8433
 3151SOL    HW210895   6.094   6.259  11.741 -0.0733 -1.1798 -0.9673
 3152SOL     OW10896   3.443   6.047   5.153 -0.0209 -0.0160  0.1208
 3152SOL    HW110897   3.511   6.069   5.090 -0.7872  0.6041 -0.5184
 3152SOL    HW210898   3.374   6.006   5.100 -0.3006 -0.2906  0.6910
 3153SOL     OW10899   3.659   4.881   0.120  0.2862  0.0258  0.7913
 3153SOL    HW110900   3.738   4.868   0.172 -0.2420 -0.9117  1.3818
 3153SOL    HW210901   3.590   4.840   0.171 -0.5955  0.8573  0.2943
 3154SOL     OW10902   5.097   1.706   3.320  0.0469  0.0883  0.2995
 3154SOL    HW110903   5.152   1.728   3.395 -0.9428 -0.8012  1.3280
 3154SOL    HW210904   5.153   1.652   3.264  0.5781  0.1762  0.7422
 3155SOL     OW10905   2.004   7.219   1.166 -0.6418 -0.3816  0.6543
 3155SOL    HW110906   1.936   7.250   1.107 -1.2013  0.0081  1.4751
 3155SOL    HW210907   2.081   7.271   1.144 -1.3617  1.1005  1.5095
 3156SOL     OW10908   4.500   7.774   7.066 -0.5904 -0.2151 -0.2196
 3156SOL    HW110909   4.491   7.804   6.975 -1.6896 -0.5178 -0.2300
 3156SOL    HW210910   4.591   7.792   7.088 -0.5935  0.8936 -1.0098
 3157SOL     OW10911   1.979   0.378   7.398 -0.0407 -0.0378  0.0159
 3157SOL    HW110912   1.974   0.463   7.441  0.3560 -0.3061  0.6114
 3157SOL    HW210913   1.888   0.353   7.382 -0.1582  1.6047 -2.4346
 3158SOL     OW10914   4.824   2.418   1.060  0.0057 -0.3338 -0.2352
 3158SOL    HW110915   4.817   2.343   1.118  0.1853  0.7872  1.3140
 3158SOL    HW210916   4.757   2.404   0.993 -0.6585 -1.3549  0.6204
 3159SOL     OW10917   2.123   7.586   0.514 -0.0877  0.4888 -0.3518
 3159SOL    HW110918   2.081   7.601   0.599  2.3740  0.5282  0.9307
 3159SOL    HW210919   2.107   7.668   0.465 -0.1402  1.1167  0.6861
 3160SOL     OW10920   6.295   6.293   9.463 -0.1794 -0.0462  0.1948
 3160SOL    HW110921   6.321   6.385   9.468  1.2534 -0.4645  1.1892
 3160SOL    HW210922   6.256   6.275   9.548  0.1777 -0.5255  0.2613
 3161SOL     OW10923   7.031   1.605   5.102 -0.5693  0.7796 -0.0887
 3161SOL    HW110924   6.951   1.649   5.131  0.5588  1.8625  1.5596
 3161SOL    HW210925   7.061   1.557   5.180 -0.1216 -0.4083 -0.9718
 3162SOL     OW10926   6.124   7.204  12.455  0.2069 -0.1753  0.6747
 3162SOL    HW110927   6.077   7.283  12.427  1.7580  0.5250 -0.1485
 3162SOL    HW210928   6.216   7.232  12.459  0.6291 -1.5975  1.7276
 3163SOL     OW10929   0.082   6.684   8.271  0.0858  0.0791  0.1201
 3163SOL    HW110930   0.029   6.719   8.343  0.1685 -0.2070  0.3257
 3163SOL    HW210931   0.024   6.684   8.196  0.3989  1.6529 -0.1553
 3164SOL     OW10932   2.402   6.706   4.005 -0.7907 -0.6289 -0.2738
 3164SOL    HW110933   2.356   6.624   3.985 -0.9624 -0.9461  1.2808
 3164SOL    HW210934   2.347   6.748   4.071  0.8285 -0.7380  1.2112
 3165SOL     OW10935   3.038   7.719   7.622  0.1866  0.9718  0.3276
 3165SOL    HW110936   2.966   7.720   7.559 -1.7237 -0.0396  2.3197
 3165SOL    HW210937   3.092   7.644   7.596 -2.3724 -1.5334  1.5771
 3166SOL     OW10938   3.257   1.228   7.359  0.2249  0.2862 -0.5777
 3166SOL    HW110939   3.210   1.252   7.439  0.4493 -0.5461 -0.1881
 3166SOL    HW210940   3.217   1.282   7.291  0.1240  1.1077  0.1179
 3167SOL     OW10941   5.404   2.679   9.211 -0.3839 -0.1432  0.2067
 3167SOL    HW110942   5.393   2.721   9.126  0.5435 -0.1369  0.0799
 3167SOL    HW210943   5.352   2.599   9.206  0.4241 -0.6261 -0.7213
 3168SOL     OW10944   0.368   4.723   6.097  0.0247  0.4331 -0.2654
 3168SOL    HW110945   0.458   4.745   6.071  0.0436  0.6913  0.0178
 3168SOL    HW210946   0.331   4.680   6.020  0.0173  1.3837 -0.8028
 3169SOL     OW10947   5.438   0.069   3.485 -0.0379  0.3133 -0.5604
 3169SOL    HW110948   5.374   0.059   3.415  0.1425  0.7060 -0.7845
 3169SOL    HW210949   5.390   0.045   3.565 -0.2679 -0.0458 -0.8016
 3170SOL     OW10950   2.913   3.449  10.132 -0.2442  0.2700  0.0190
 3170SOL    HW110951   2.911   3.442  10.227  0.1146 -2.3145 -0.0937
 3170SOL    HW210952   3.000   3.419  10.108 -0.8772 -0.6511 -1.1996
 3171SOL     OW10953   1.010   2.922  11.700  0.2678  0.0683 -0.0650
 3171SOL    HW110954   1.030   2.997  11.643 -2.0214  0.7654 -0.0460
 3171SOL    HW210955   0.919   2.900  11.680  0.5197 -1.9616  0.8058
 3172SOL     OW10956   6.772   3.250  11.187  0.2114  0.4238 -0.0540
 3172SOL    HW110957   6.835   3.322  11.192 -0.9309  1.4271  0.4280
 3172SOL    HW210958   6.759   3.222  11.277 -1.2698  1.3757  0.0672
 3173SOL     OW10959   6.454   4.342   6.234 -0.7111 -0.1494  0.3658
 3173SOL    HW110960   6.367   4.314   6.208 -0.8170 -0.8432  1.4030
 3173SOL    HW210961   6.481   4.404   6.166 -2.6968  1.4245  0.9246
 3174SOL     OW10962   0.876   6.385   5.921 -0.1732  0.1789  0.2504
 3174SOL    HW110963   0.878   6.473   5.883  1.5139  0.7200  1.4642
 3174SOL    HW210964   0.787   6.354   5.905 -1.0011  2.3459  0.3357
 3175SOL     OW10965   7.630   6.281   3.056 -0.1864  0.4365  0.2357
 3175SOL    HW110966   7.717   6.322   3.054 -0.3005  0.6755 -1.0534
 3175SOL    HW210967   7.639   6.206   2.998 -1.0522  0.9338 -0.5660
 3176SOL     OW10968   2.500   5.305   3.357  0.2205 -0.1885  0.4926
 3176SOL    HW110969   2.410   5.339   3.352 -0.7612 -2.5117  0.7863
 3176SOL    HW210970   2.502   5.257   3.440  1.5913 -0.5629  0.2572
 3177SOL     OW10971   3.782   0.988   6.296  0.0228 -0.2503 -0.2495
 3177SOL    HW110972   3.787   1.066   6.351  0.0437 -0.6074  0.2641
 3177SOL    HW210973   3.740   0.922   6.352  0.4426 -0.7452 -0.5097
 3178SOL     OW10974   4.634   5.430   6.780  0.1020 -0.1881 -0.6692
 3178SOL    HW110975   4.621   5.406   6.872  0.5009  1.2389 -0.2031
 3178SOL    HW210976   4.545   5.436   6.744 -0.0480 -0.9765 -0.4519
 3179SOL     OW10977   7.368   4.613   3.928  0.3382 -0.4078 -0.3049
 3179SOL    HW110978   7.416   4.531   3.920 -0.0905 -0.8613  1.4309
 3179SOL    HW210979   7.278   4.590   3.902  0.3426 -0.3359 -0.3856
 3180SOL     OW10980   6.202   7.314   9.638  0.8609  0.4699  0.1774
 3180SOL    HW110981   6.197   7.408   9.623 -1.0939  0.5989  1.2138
 3180SOL    HW210982   6.254   7.306   9.718  0.3786  0.7448  0.5260
 3181SOL     OW10983   1.179   2.800   6.339 -0.0123 -0.2775 -0.4241
 3181SOL    HW110984   1.148   2.743   6.409  1.4833  0.0642  0.5707
 3181SOL    HW210985   1.267   2.769   6.320  0.8525  1.6494  0.1535
 3182SOL     OW10986   3.454   7.653   2.804 -0.1175  0.1532 -0.6529
 3182SOL    HW110987   3.521   7.695   2.857  1.4730 -0.8971 -1.7413
 3182SOL    HW210988   3.373   7.699   2.826  0.8496  1.0933  1.1073
 3183SOL     OW10989   2.782   6.479   3.027 -0.4348 -0.3681  0.4582
 3183SOL    HW110990   2.820   6.520   3.104  2.0978 -1.6582 -0.0050
 3183SOL    HW210991   2.826   6.394   3.021 -0.7385 -0.4072 -2.2767
 3184SOL     OW10992   1.983   4.421   0.966  0.3491  0.3425  0.1332
 3184SOL    HW110993   2.008   4.511   0.986  1.4277  0.4589 -1.5176
 3184SOL    HW210994   2.056   4.387   0.915 -0.3141 -1.2864  0.2031
 3185SOL     OW10995   4.975   3.621   2.052  0.3602  0.3425  0.3565
 3185SOL    HW110996   4.907   3.670   2.006 -0.7708  1.2400  2.8045
 3185SOL    HW210997   4.927   3.558   2.106  1.6030 -0.5006  0.5308
 3186SOL     OW10998   7.831   6.973   7.234 -0.0130  0.3159 -0.8145
 3186SOL    HW110999   7.873   6.918   7.168  0.3003 -0.5956  0.1187
 3186SOL    HW211000   7.768   6.915   7.277  2.9835 -0.6583  2.8500
 3187SOL     OW11001   5.688   2.386   2.488 -0.0694  0.1376  0.0325
 3187SOL    HW111002   5.676   2.473   2.526  1.3428  0.5835 -0.4787
 3187SOL    HW211003   5.602   2.345   2.495 -1.0155  1.9112 -0.5543
 3188SOL     OW11004   6.403   1.260  10.335 -0.3682 -0.0310  0.2370
 3188SOL    HW111005   6.373   1.316  10.265  0.5848  0.9658  0.6034
 3188SOL    HW211006   6.400   1.171  10.298 -1.3102  0.3126 -0.5402
 3189SOL     OW11007   4.685   7.420   2.554  0.0482  0.7413 -0.3514
 3189SOL    HW111008   4.689   7.462   2.640  0.8170  1.6286 -0.7917
 3189SOL    HW211009   4.777   7.399   2.534 -0.4501 -3.4334  0.8904
 3190SOL     OW11010   0.166   5.863   6.552  0.2908 -0.2826 -0.4650
 3190SOL    HW111011   0.103   5.816   6.497 -0.1505  0.2090 -0.3914
 3190SOL    HW211012   0.115   5.934   6.592  0.9853  0.3845 -0.7290
 3191SOL     OW11013   6.190   3.345   0.568 -0.0927 -0.0151 -0.1256
 3191SOL    HW111014   6.282   3.351   0.541 -0.1115 -1.9644 -0.7834
 3191SOL    HW211015   6.193   3.308   0.656 -0.2583 -0.4902 -0.3185
 3192SOL     OW11016   1.008   0.515  11.426  0.3748  0.8440  0.0282
 3192SOL    HW111017   1.024   0.537  11.518  1.4382 -1.1582  0.3688
 3192SOL    HW211018   1.011   0.599  11.381  0.1551  1.8394  1.7604
 3193SOL     OW11019   5.467   2.004   3.360 -0.2672  0.3525 -0.3159
 3193SOL    HW111020   5.420   2.057   3.295 -0.4332 -1.3110 -1.6444
 3193SOL    HW211021   5.524   1.948   3.307  1.3308  0.5299  1.1418
 3194SOL     OW11022   6.827   5.387   4.863  0.0734 -0.3359 -0.3210
 3194SOL    HW111023   6.829   5.437   4.782  2.9012 -0.1307 -0.2406
 3194SOL    HW211024   6.785   5.444   4.926 -0.4500  0.2600 -1.1897
 3195SOL     OW11025   4.579   4.701  12.043  0.2151 -0.7072 -0.4461
 3195SOL    HW111026   4.500   4.749  12.018  0.7855 -0.0036 -0.9775
 3195SOL    HW211027   4.558   4.609  12.029 -0.9929 -0.6545  0.8275
 3196SOL     OW11028   4.997   7.663   0.547  0.2379 -0.0995  0.5232
 3196SOL    HW111029   4.952   7.638   0.628 -0.7934 -2.2709 -0.6087
 3196SOL    HW211030   4.967   7.752   0.530  0.7233  0.5253  2.6530
 3197SOL     OW11031   5.242   1.437   2.269 -0.6777  1.1529 -0.0190
 3197SOL    HW111032   5.337   1.443   2.276 -0.8536  1.8350  3.9784
 3197SOL    HW211033   5.210   1.518   2.309 -3.0178  1.3474 -2.0222
 3198SOL     OW11034   6.884   3.401   7.833 -0.0782 -0.7140  0.2967
 3198SOL    HW111035   6.911   3.380   7.744  1.4852  2.1898 -0.0257
 3198SOL    HW211036   6.960   3.445   7.872 -0.8222 -1.5846  2.9985
 3199SOL     OW11037   3.738   7.435   6.125  0.0528 -0.3521  0.2605
 3199SOL    HW111038   3.710   7.381   6.051 -1.6627 -0.1874  0.7446
 3199SOL    HW211039   3.729   7.525   6.093  1.8678 -0.2936 -0.1823
 3200SOL     OW11040   2.515   1.516   3.759 -0.2419 -0.0162 -0.0952
 3200SOL    HW111041   2.596   1.561   3.734 -0.2959  0.4552  0.5353
 3200SOL    HW211042   2.445   1.578   3.736 -0.4622 -0.5918 -1.0203
 3201SOL     OW11043   0.799   0.006   9.638 -0.7015  0.3719 -0.5054
 3201SOL    HW111044   0.822   0.050   9.556 -0.4542 -1.1090 -1.2510
 3201SOL    HW211045   0.883  -0.014   9.679 -0.6735 -1.6431 -1.4142
 3202SOL     OW11046   4.659   5.019   1.269 -0.0662  0.1208  0.0336
 3202SOL    HW111047   4.643   5.112   1.290 -0.4982  0.2694 -0.9140
 3202SOL    HW211048   4.722   4.991   1.335  2.6518  1.9923 -1.6004
 3203SOL     OW11049   7.595   7.053   6.068 -0.0994 -0.0804 -0.0991
 3203SOL    HW111050   7.685   7.079   6.089 -0.0342  0.2447 -0.7603
 3203SOL    HW211051   7.599   7.024   5.977 -0.4321 -1.1976  0.2214
 3204SOL     OW11052   4.289   2.933   5.354 -0.1123 -0.1148  0.4068
 3204SOL    HW111053   4.230   2.876   5.404 -0.7830  0.0906 -0.1520
 3204SOL    HW211054   4.339   2.979   5.421 -0.0557 -0.8371  0.8767
 3205SOL     OW11055   2.047   2.615   1.572 -0.4734  0.0650  0.3478
 3205SOL    HW111056   2.020   2.699   1.607 -0.4138  0.5702 -0.7804
 3205SOL    HW211057   2.143   2.619   1.572 -0.4713  0.6984 -1.2817
 3206SOL     OW11058   4.578   3.339   2.384 -0.3902 -0.5517  0.0464
 3206SOL    HW111059   4.620   3.407   2.331  0.0234  0.7233  1.9056
 3206SOL    HW211060   4.639   3.325   2.457 -0.8577 -2.3587  0.1297
 3207SOL     OW11061   1.639   1.629   8.996  0.5066  0.2273  0.4609
 3207SOL    HW111062   1.636   1.700   9.061  0.7443  0.3820  0.3042
 3207SOL    HW211063   1.699   1.661   8.929 -1.3092  0.9466 -0.8971
 3208SOL     OW11064   7.362   4.270   8.801 -0.1821  0.6640 -0.0308
 3208SOL    HW111065   7.360   4.288   8.707 -0.6169  0.4263 -0.0704
 3208SOL    HW211066   7.424   4.198   8.811 -1.0127 -0.1137 -0.2853
 3209SOL     OW11067   6.048   3.367   4.486  0.1182  0.0002  0.2789
 3209SOL    HW111068   6.094   3.358   4.570  1.7489 -0.3627 -0.6077
 3209SOL    HW211069   6.015   3.457   4.487  0.9059  0.3018  0.9458
 3210SOL     OW11070   1.463   7.587   7.002 -0.2868  0.1672  0.2413
 3210SOL    HW111071   1.552   7.609   6.972 -0.9682  0.7097 -1.4964
 3210SOL    HW211072   1.456   7.493   6.987  0.4067 -0.1293  1.6015
 3211SOL     OW11073   0.305   6.554   7.978  0.2169 -0.0402  0.2294
 3211SOL    HW111074   0.387   6.538   7.931  0.0976  0.6422 -0.2326
 3211SOL    HW211075   0.289   6.648   7.966 -2.2707 -0.6481 -2.4070
 3212SOL     OW11076   1.979   6.830   8.407  0.5343 -0.2616  0.1751
 3212SOL    HW111077   2.065   6.827   8.449  1.2820  2.5206 -0.9857
 3212SOL    HW211078   1.995   6.803   8.317  0.2872  0.6268 -0.1429
 3213SOL     OW11079   6.704   2.109   0.012 -0.0503 -0.3038  0.1676
 3213SOL    HW111080   6.610   2.096   0.004 -0.5043  1.6569  1.6871
 3213SOL    HW211081   6.723   2.183  -0.046  0.0669  0.9368  1.7166
 3214SOL     OW11082   2.914   5.348   9.763 -0.7245  0.6158  1.0245
 3214SOL    HW111083   2.954   5.273   9.807 -0.6861  0.0792  0.0784
 3214SOL    HW211084   2.821   5.340   9.783 -0.6483  0.6579  1.4185
 3215SOL     OW11085   3.946   1.681   0.370  0.0863  0.1104  0.5724
 3215SOL    HW111086   4.006   1.609   0.391 -1.2051 -1.3786 -0.6379
 3215SOL    HW211087   3.886   1.645   0.305 -1.6881  1.7726  1.1809
 3216SOL     OW11088   3.614   6.923  11.870  0.2389  0.2654  0.0413
 3216SOL    HW111089   3.578   6.872  11.942 -0.9378 -0.3553 -0.9466
 3216SOL    HW211090   3.705   6.893  11.863  0.4478  0.5052  1.3820
 3217SOL     OW11091   0.755   2.754   2.285 -0.5295  0.4082  0.3484
 3217SOL    HW111092   0.737   2.828   2.228  0.3796 -0.3667 -1.0042
 3217SOL    HW211093   0.727   2.677   2.234  2.4834 -0.4990 -0.1201
 3218SOL     OW11094   6.309   0.963  12.467 -0.0651 -0.1478  0.6725
 3218SOL    HW111095   6.277   0.893  12.524 -0.8534 -0.6751 -0.4052
 3218SOL    HW211096   6.237   1.027  12.464 -1.5787 -1.7800 -2.5190
 3219SOL     OW11097   6.931   4.036   7.343  0.2894  0.4078 -0.0434
 3219SOL    HW111098   6.919   4.095   7.418  0.8075 -0.8224  1.0482
 3219SOL    HW211099   6.844   4.033   7.302 -1.3016 -2.2275  3.0870
 3220SOL     OW11100   5.909   5.173   9.730  0.1720 -0.4399 -0.1352
 3220SOL    HW111101   5.923   5.208   9.818 -1.0782  1.5353 -0.6384
 3220SOL    HW211102   5.910   5.078   9.740 -0.6180 -0.2538  2.1258
 3221SOL     OW11103   3.087   6.594  10.472 -0.3365 -0.0783 -0.2132
 3221SOL    HW111104   3.015   6.629  10.524 -0.7967  0.5940 -1.2754
 3221SOL    HW211105   3.083   6.642  10.390  1.7974  0.5373 -0.0303
 3222SOL     OW11106   1.962   7.416   2.594 -0.0430 -0.3463 -0.6980
 3222SOL    HW111107   1.880   7.382   2.558  0.4413 -1.0625 -1.1273
 3222SOL    HW211108   2.030   7.388   2.533  0.4558  0.8474 -0.7219
 3223SOL     OW11109   6.517   4.772   2.024 -0.3341 -0.0102 -0.4408
 3223SOL    HW111110   6.444   4.833   2.010 -0.3530  0.0024 -0.2914
 3223SOL    HW211111   6.478   4.685   2.014 -0.0677  0.0149 -1.8349
 3224SOL     OW11112   3.246   7.935  10.715 -0.1832  0.4962 -0.3196
 3224SOL    HW111113   3.192   7.864  10.678  2.1615 -0.9176 -1.2382
 3224SOL    HW211114   3.213   7.945  10.804 -3.7824  1.6786 -1.5852
 3225SOL     OW11115   3.550   5.602   7.146 -0.4368 -0.1236 -0.1984
 3225SOL    HW111116   3.481   5.639   7.201 -0.3884  1.1805 -0.9710
 3225SOL    HW211117   3.503   5.552   7.080 -0.5762 -0.2411 -0.0128
 3226SOL     OW11118   3.350   7.610  10.569 -0.2957 -0.5167  0.2353
 3226SOL    HW111119   3.257   7.609  10.546  0.2160 -0.3175 -2.1193
 3226SOL    HW211120   3.386   7.686  10.522  0.7637  0.5401  2.5937
 3227SOL     OW11121   0.136   1.176   9.815  0.0740  0.2684 -0.6176
 3227SOL    HW111122   0.213   1.232   9.823 -0.7981  1.4039  0.0332
 3227SOL    HW211123   0.126   1.164   9.720 -0.7835  2.7895 -0.9239
 3228SOL     OW11124   5.684   7.767   8.450 -0.1215  0.0904 -0.6107
 3228SOL    HW111125   5.764   7.746   8.402  2.8170  1.4393  3.1600
 3228SOL    HW211126   5.662   7.857   8.424 -0.6379 -0.3822 -1.8606
 3229SOL     OW11127   1.268   3.344  10.026  0.7940  0.5568  0.1336
 3229SOL    HW111128   1.325   3.413   9.991  1.3334  0.1583  0.2251
 3229SOL    HW211129   1.199   3.334   9.961  1.5896  0.0724 -0.6527
 3230SOL     OW11130   6.860   6.822   1.305  0.0795  0.4154 -0.2810
 3230SOL    HW111131   6.945   6.821   1.261  0.5499 -1.1554  0.5803
 3230SOL    HW211132   6.797   6.799   1.237  0.6615 -0.8466 -0.4252
 3231SOL     OW11133   2.772   6.345   6.537 -0.3672  0.1748 -0.5428
 3231SOL    HW111134   2.739   6.350   6.447 -0.5742 -0.8185 -0.5394
 3231SOL    HW211135   2.718   6.407   6.586 -1.1437 -0.2291 -0.8595
 3232SOL     OW11136   0.592   1.492   7.204 -0.1223  0.1369  0.4514
 3232SOL    HW111137   0.630   1.580   7.205 -0.3326  0.2461 -0.4044
 3232SOL    HW211138   0.518   1.498   7.266 -0.4123  0.6965  0.0657
 3233SOL     OW11139   3.226   1.246   1.700  0.0192  0.4715 -0.5082
 3233SOL    HW111140   3.205   1.229   1.792  0.9294 -2.7006 -0.7694
 3233SOL    HW211141   3.218   1.161   1.657 -0.5976  1.8793 -3.4654
 3234SOL     OW11142   6.958   1.908  11.709 -0.1197 -0.3263 -0.4489
 3234SOL    HW111143   7.027   1.866  11.761  0.1215  0.5358 -0.0533
 3234SOL    HW211144   6.983   1.890  11.618 -0.3597 -1.5508 -0.2821
 3235SOL     OW11145   1.052   0.509   4.452 -0.2518 -0.1128 -0.3955
 3235SOL    HW111146   1.130   0.563   4.468  1.5629 -2.1202 -1.7608
 3235SOL    HW211147   1.032   0.522   4.360  0.0991 -1.5233 -0.7034
 3236SOL     OW11148   5.672   3.878   5.818  0.4497  0.1528  0.0355
 3236SOL    HW111149   5.631   3.804   5.864  0.2994  0.8759  1.1153
 3236SOL    HW211150   5.741   3.907   5.878  2.1781 -0.6460 -1.4818
 3237SOL     OW11151   2.429   3.831   2.972 -0.5411 -0.2619 -0.0328
 3237SOL    HW111152   2.340   3.798   2.979 -0.6760  0.3106  1.0641
 3237SOL    HW211153   2.479   3.780   3.036 -0.5853  1.0428  1.0744
 3238SOL     OW11154   5.613   0.844   1.305 -0.1591 -0.1154 -0.2613
 3238SOL    HW111155   5.676   0.893   1.251  0.5684 -2.1791 -1.4153
 3238SOL    HW211156   5.555   0.802   1.241  0.0851 -1.8164  0.5868
 3239SOL     OW11157   7.400   3.369   6.678  0.3136  0.9064 -0.4356
 3239SOL    HW111158   7.373   3.297   6.620  0.8832 -0.5161  0.9966
 3239SOL    HW211159   7.365   3.448   6.636  0.6440 -0.0528 -2.6654
 3240SOL     OW11160   7.246   0.072  10.227 -0.3264  0.5036 -0.6081
 3240SOL    HW111161   7.322   0.117  10.190 -0.9758  0.9816 -1.4051
 3240SOL    HW211162   7.246  -0.014  10.185  0.1882  0.2235 -0.0466
 3241SOL     OW11163   0.484   1.482  11.484 -0.0296  0.1387  0.5402
 3241SOL    HW111164   0.504   1.393  11.455  1.5916  0.6521  0.0043
 3241SOL    HW211165   0.390   1.481  11.501 -0.3432 -1.2182 -1.0850
 3242SOL     OW11166   7.254   4.642   6.535 -0.1803  0.3871  0.2704
 3242SOL    HW111167   7.319   4.623   6.467  1.4884  0.2017  1.8368
 3242SOL    HW211168   7.298   4.620   6.617 -2.7809 -1.2150  1.3430
 3243SOL     OW11169   4.847   7.013   8.946  0.0818 -0.2425  0.6279
 3243SOL    HW111170   4.854   7.026   9.041 -0.1718  0.0700  0.6064
 3243SOL    HW211171   4.784   6.942   8.936  1.0177 -1.1138  0.7280
 3244SOL     OW11172   4.959   0.812   9.486  0.2966 -0.3853  0.0906
 3244SOL    HW111173   4.906   0.758   9.427  0.7448  0.6249 -1.2905
 3244SOL    HW211174   5.036   0.758   9.505 -0.3226 -1.1202  0.6169
 3245SOL     OW11175   3.818   1.061  10.812 -0.2892 -0.3203 -0.0066
 3245SOL    HW111176   3.847   1.147  10.780  0.3913 -0.8024 -0.7260
 3245SOL    HW211177   3.799   1.012  10.732 -1.0265 -0.7239  0.4120
 3246SOL     OW11178   5.233   3.160   4.446 -0.1168 -0.9825  0.7884
 3246SOL    HW111179   5.210   3.178   4.537  0.1337 -1.6492  0.9923
 3246SOL    HW211180   5.168   3.097   4.416 -0.9439  0.1591  0.1044
 3247SOL     OW11181   2.664   0.141   9.708 -0.5332 -0.1974  0.2765
 3247SOL    HW111182   2.644   0.136   9.801 -0.5633 -1.7646  0.2097
 3247SOL    HW211183   2.757   0.162   9.704 -0.4091 -0.6655  0.6729
 3248SOL     OW11184   1.758   2.816   2.568  0.1597 -0.4234 -0.5303
 3248SOL    HW111185   1.702   2.766   2.508 -0.8550  1.1714 -0.9761
 3248SOL    HW211186   1.697   2.872   2.616  1.0625 -0.9849  1.3654
 3249SOL     OW11187   4.217   7.828   0.154  0.3701  0.2519 -0.2073
 3249SOL    HW111188   4.259   7.819   0.068  0.4741 -2.3732  0.0438
 3249SOL    HW211189   4.258   7.905   0.193  3.1164 -0.6838 -1.0337
 3250SOL     OW11190   2.153   7.453  11.415  0.3963 -0.0640  0.5567
 3250SOL    HW111191   2.223   7.517  11.422  0.0003  0.7598 -1.8989
 3250SOL    HW211192   2.076   7.504  11.390 -0.6604 -1.1693  1.3991
 3251SOL     OW11193   5.642   1.333  10.519 -0.1921  0.1626  0.5299
 3251SOL    HW111194   5.706   1.269  10.553 -0.8642 -0.7461  0.1192
 3251SOL    HW211195   5.622   1.388  10.595 -0.4334 -0.8193  1.2092
 3252SOL     OW11196   4.955   0.502  11.490  0.5930 -0.1655  0.1286
 3252SOL    HW111197   4.961   0.497  11.586  0.7258  0.4098  0.1493
 3252SOL    HW211198   5.011   0.575  11.466  0.2626 -0.0707 -0.3608
 3253SOL     OW11199   5.846   7.441   1.848 -0.1252  0.2098  0.1694
 3253SOL    HW111200   5.890   7.355   1.846  1.1726  0.8329  0.6727
 3253SOL    HW211201   5.877   7.485   1.770  2.4286  1.6874  1.8722
 3254SOL     OW11202   5.403   6.705   4.396 -0.9340  0.0139  0.2605
 3254SOL    HW111203   5.479   6.682   4.342 -2.3021  0.7545 -2.1578
 3254SOL    HW211204   5.385   6.626   4.447 -0.9455 -1.6854 -2.1879
 3255SOL     OW11205   7.224   4.458   2.078  0.2171 -0.2710  0.8568
 3255SOL    HW111206   7.149   4.429   2.026 -0.1880  0.7258  0.8766
 3255SOL    HW211207   7.187   4.479   2.164  0.4746  0.4880  0.7839
 3256SOL     OW11208   7.132   0.077   8.665  0.6747  0.1758  0.0087
 3256SOL    HW111209   7.157   0.101   8.755  1.7418  0.0503 -0.2359
 3256SOL    HW211210   7.206   0.025   8.633  0.7820  1.0772 -1.2874
 3257SOL     OW11211   6.380   0.792   8.465 -0.0038 -1.1051  0.7939
 3257SOL    HW111212   6.361   0.839   8.385 -1.3696 -0.0920  1.6711
 3257SOL    HW211213   6.296   0.788   8.511  0.6571 -2.0376  1.9740
 3258SOL     OW11214   6.303   7.595   6.530 -0.1863  0.4079 -0.3783
 3258SOL    HW111215   6.314   7.500   6.522 -2.2733  0.2051 -1.5852
 3258SOL    HW211216   6.382   7.624   6.575  1.1248 -1.7292 -1.1076
 3259SOL     OW11217   2.004   5.879  11.864  0.0653  0.5220  0.1156
 3259SOL    HW111218   2.099   5.873  11.872  0.1058  1.3617  0.3183
 3259SOL    HW211219   1.971   5.822  11.934  0.4011 -0.6051 -0.6141
 3260SOL     OW11220   4.292   0.784   1.152 -0.7353  0.1356  0.0675
 3260SOL    HW111221   4.306   0.826   1.236  0.6287 -0.6831  0.2729
 3260SOL    HW211222   4.327   0.846   1.088 -0.3334  0.0791  0.2300
 3261SOL     OW11223   0.843   7.378   7.238  0.0159  0.0967 -0.0266
 3261SOL    HW111224   0.892   7.301   7.269  0.2692 -0.0845 -0.8545
 3261SOL    HW211225   0.888   7.452   7.278  0.2121 -0.1445  0.2043
 3262SOL     OW11226   2.119   3.220   7.396 -0.2009  0.2555  0.2907
 3262SOL    HW111227   2.067   3.297   7.421  1.0000  1.4900 -0.8713
 3262SOL    HW211228   2.163   3.245   7.315  1.1526 -1.2417  0.4983
 3263SOL     OW11229   1.137   5.906   3.962 -0.1283 -0.2999  0.2719
 3263SOL    HW111230   1.113   5.969   3.894 -1.2500 -1.5478 -0.5234
 3263SOL    HW211231   1.123   5.820   3.922 -1.8395 -1.0921  2.3811
 3264SOL     OW11232   0.651   5.244   8.840 -0.3778 -0.2948  0.3026
 3264SOL    HW111233   0.557   5.232   8.853 -0.3500 -1.1673 -0.2192
 3264SOL    HW211234   0.674   5.181   8.771  0.7218 -0.6227  0.9492
 3265SOL     OW11235   3.725   5.495   5.726 -0.6264  0.4145 -0.2425
 3265SOL    HW111236   3.711   5.551   5.650 -0.5242  1.2407  0.3283
 3265SOL    HW211237   3.638   5.485   5.764 -0.6843 -0.0354 -0.4888
 3266SOL     OW11238   4.118   7.824   9.606 -0.2580  0.2905  0.0543
 3266SOL    HW111239   4.090   7.733   9.614  2.5787 -0.8654 -1.9377
 3266SOL    HW211240   4.036   7.874   9.614 -1.8167 -2.2713  2.1040
 3267SOL     OW11241   6.975   6.339   4.842 -0.2749 -0.1139  0.2371
 3267SOL    HW111242   7.023   6.321   4.762 -2.4396 -0.7995 -0.9742
 3267SOL    HW211243   6.929   6.257   4.862 -0.7414  0.4235  1.4781
 3268SOL     OW11244   3.540   2.592   8.254  0.1737 -0.6533  0.1642
 3268SOL    HW111245   3.627   2.556   8.240  0.4655 -0.1341  0.5866
 3268SOL    HW211246   3.542   2.678   8.211 -0.5536 -1.1678 -0.9488
 3269SOL     OW11247   5.810   1.901   2.324 -0.6772  0.5287  0.1637
 3269SOL    HW111248   5.887   1.926   2.272 -0.6953 -0.0448 -0.1391
 3269SOL    HW211249   5.810   1.963   2.397  0.9358 -0.3933  0.9871
 3270SOL     OW11250   1.606   3.565   9.336  0.1280 -0.0203  0.7722
 3270SOL    HW111251   1.619   3.534   9.247 -0.4950  0.5259  0.4867
 3270SOL    HW211252   1.669   3.515   9.388 -0.7872 -1.6978  0.3391
 3271SOL     OW11253   3.094   2.639   8.050  0.5251 -0.3880 -0.3306
 3271SOL    HW111254   3.067   2.627   8.141 -0.7825  0.0845 -0.6390
 3271SOL    HW211255   3.157   2.711   8.053 -0.6722  0.6683  0.0218
 3272SOL     OW11256   3.504   0.102   2.137 -0.2094 -0.6037 -0.2926
 3272SOL    HW111257   3.415   0.129   2.156 -0.5096 -0.5321 -1.7304
 3272SOL    HW211258   3.537   0.068   2.221 -1.3530 -0.0455  0.4047
 3273SOL     OW11259   5.872   7.324   7.784 -0.2974  0.1684  0.3143
 3273SOL    HW111260   5.879   7.392   7.717  1.8280  1.3189  1.6136
 3273SOL    HW211261   5.808   7.262   7.748 -0.0241  1.2659 -2.2886
 3274SOL     OW11262   5.413   6.656   5.809  0.4654 -0.0328 -0.0030
 3274SOL    HW111263   5.373   6.582   5.853  1.3369 -0.2223  0.5043
 3274SOL    HW211264   5.477   6.689   5.872  0.7215  0.5873 -0.5764
 3275SOL     OW11265   5.764   4.969   9.085  0.1259 -0.3084  0.4011
 3275SOL    HW111266   5.703   4.896   9.098  1.2390 -1.3752 -0.1052
 3275SOL    HW211267   5.838   4.948   9.143 -0.0798  1.1008  1.2118
 3276SOL     OW11268   1.781   3.439  11.232  0.3582  0.1374 -0.5129
 3276SOL    HW111269   1.835   3.367  11.264 -1.2813 -1.4306 -1.0840
 3276SOL    HW211270   1.692   3.418  11.262 -0.1460  2.0199 -0.5704
 3277SOL     OW11271   3.905   2.328   4.971  0.7906 -0.0565  0.0420
 3277SOL    HW111272   3.905   2.406   4.916  1.3772 -0.0271  0.0689
 3277SOL    HW211273   3.840   2.345   5.039 -1.2749 -0.8311 -1.6351
 3278SOL     OW11274   1.496   2.312   6.840  0.3013  0.0580 -0.2201
 3278SOL    HW111275   1.513   2.233   6.788  1.0059  0.7187 -1.0195
 3278SOL    HW211276   1.400   2.319   6.841  0.2216 -0.9268  0.0568
 3279SOL     OW11277   1.986   1.653  10.247  0.6348  0.3554 -0.4026
 3279SOL    HW111278   2.060   1.683  10.300  1.3449 -0.5725 -0.8360
 3279SOL    HW211279   1.988   1.558  10.256 -1.5576  0.3673  0.9573
 3280SOL     OW11280   5.132   7.881   2.741  0.2951  0.0211 -0.2694
 3280SOL    HW111281   5.127   7.838   2.656  1.6108 -0.2434 -0.2458
 3280SOL    HW211282   5.134   7.974   2.721 -1.8961  0.0979 -0.3595
 3281SOL     OW11283   7.342   4.568   0.065  0.3652  0.6811  0.3140
 3281SOL    HW111284   7.258   4.543   0.104  0.7405 -0.7615  0.2526
 3281SOL    HW211285   7.387   4.616   0.134  0.8701 -1.5286  1.6241
 3282SOL     OW11286   2.636   2.018   0.956 -0.5440 -0.1363 -0.0978
 3282SOL    HW111287   2.666   2.105   0.931  0.5660 -0.6771 -0.7242
 3282SOL    HW211288   2.716   1.970   0.978 -1.1699 -0.8777  0.6525
 3283SOL     OW11289   5.563   6.897   4.506 -0.2133  0.0025 -0.0987
 3283SOL    HW111290   5.490   6.837   4.498 -1.6237  1.6742 -0.5392
 3283SOL    HW211291   5.617   6.879   4.429 -0.9905 -0.2385 -0.6044
 3284SOL     OW11292   1.617   2.289  11.080  0.3746 -0.0910  0.2352
 3284SOL    HW111293   1.679   2.223  11.111  0.1823 -0.7041 -0.6519
 3284SOL    HW211294   1.661   2.331  11.006 -0.9056 -1.7473 -1.5709
 3285SOL     OW11295   3.344   3.192   9.258 -0.0422 -0.6886  0.1334
 3285SOL    HW111296   3.296   3.264   9.216  2.2508  1.7742  1.4251
 3285SOL    HW211297   3.286   3.162   9.328 -0.6178  0.6635  0.2675
 3286SOL     OW11298   3.495   5.622   3.866 -0.5091  0.0561 -0.1141
 3286SOL    HW111299   3.585   5.605   3.892 -0.6446  0.4136  0.6053
 3286SOL    HW211300   3.444   5.606   3.945 -1.0696 -0.0583 -0.4917
 3287SOL     OW11301   4.770   0.075   6.105 -0.1474  0.2606  0.0418
 3287SOL    HW111302   4.756   0.152   6.049  0.2915  0.5935  0.3886
 3287SOL    HW211303   4.704   0.012   6.074 -0.2273  0.6112 -0.5327
 3288SOL     OW11304   1.171   7.984   2.231 -0.1361  0.0891 -0.6143
 3288SOL    HW111305   1.207   8.023   2.151 -1.5476  1.3706 -0.6586
 3288SOL    HW211306   1.228   7.909   2.248  1.2380  0.7982 -1.8496
 3289SOL     OW11307   4.894   5.765   6.025 -0.0170 -0.2702 -0.3504
 3289SOL    HW111308   4.950   5.688   6.035 -0.7368 -0.7615  0.0195
 3289SOL    HW211309   4.876   5.769   5.931  1.1247  0.2512 -0.5508
 3290SOL     OW11310   2.791   7.027   4.178 -0.2109 -0.0990 -0.3232
 3290SOL    HW111311   2.730   7.006   4.106  0.2219 -0.1575 -0.6780
 3290SOL    HW211312   2.776   6.958   4.242  0.4371 -0.9071 -1.0088
 3291SOL     OW11313   5.866   1.262   3.533 -0.3047 -0.0813  0.0299
 3291SOL    HW111314   5.957   1.233   3.528 -0.4104 -0.2539 -1.4813
 3291SOL    HW211315   5.834   1.226   3.615  0.4877 -1.5587 -0.2606
 3292SOL     OW11316   1.965   4.444   5.866 -0.6856  0.0605 -0.4929
 3292SOL    HW111317   2.030   4.444   5.795 -0.2584 -0.3922 -0.1077
 3292SOL    HW211318   1.881   4.435   5.821 -0.5842  1.7613 -1.0716
 3293SOL     OW11319   2.186   0.494   0.915  0.0809  0.8488  0.0670
 3293SOL    HW111320   2.161   0.433   0.984 -1.6945  0.3180 -0.9571
 3293SOL    HW211321   2.150   0.578   0.944 -1.3666  0.4691 -0.5119
 3294SOL     OW11322   0.012   6.686  11.534 -0.2734  0.1198 -0.0508
 3294SOL    HW111323  -0.015   6.753  11.597  0.0524 -0.7006  0.9884
 3294SOL    HW211324  -0.068   6.635  11.518  0.0783 -0.8973  1.2628
 3295SOL     OW11325   6.596   7.360   6.274  0.4716 -0.2364 -0.6477
 3295SOL    HW111326   6.621   7.365   6.366 -0.8143 -0.2951 -0.2837
 3295SOL    HW211327   6.633   7.440   6.235  0.1655  0.3016  0.1418
 3296SOL     OW11328   4.685   1.081   8.873  0.2477 -0.1150 -0.0667
 3296SOL    HW111329   4.656   1.099   8.963  0.3192  0.4648 -0.1539
 3296SOL    HW211330   4.741   1.003   8.881 -0.6301 -0.7243  0.2205
 3297SOL     OW11331   4.026   6.523   7.039  0.1765  0.2040  0.2029
 3297SOL    HW111332   3.935   6.519   7.069  0.8210 -0.9285  2.2110
 3297SOL    HW211333   4.064   6.597   7.086  0.9196 -0.9212  1.4465
 3298SOL     OW11334   7.120   1.624  11.517  0.0819  0.3152 -0.1781
 3298SOL    HW111335   7.147   1.661  11.601  1.4193 -0.5866 -0.1943
 3298SOL    HW211336   7.197   1.632  11.461 -0.0749 -1.1174 -0.6398
 3299SOL     OW11337   6.917   7.378   7.972  0.0068  0.0370 -0.1881
 3299SOL    HW111338   6.920   7.306   7.909  0.1906 -1.7667  1.7883
 3299SOL    HW211339   6.980   7.442   7.938  2.8686 -2.4815 -0.0750
 3300SOL     OW11340   5.973   2.015   3.492 -0.4705 -0.4206  0.3507
 3300SOL    HW111341   5.910   1.992   3.559 -0.0158  1.2365  1.4098
 3300SOL    HW211342   5.922   2.064   3.427 -0.7605 -1.3631 -0.1463
 3301SOL     OW11343   7.829   2.920   5.374  0.3060 -0.0833  0.3893
 3301SOL    HW111344   7.875   2.963   5.447  0.8882 -0.2144  0.1124
 3301SOL    HW211345   7.771   2.988   5.339 -0.5928 -0.2665  1.4816
 3302SOL     OW11346   0.597   1.972   1.893  0.0260  0.0195 -0.0795
 3302SOL    HW111347   0.585   2.023   1.973 -1.1987 -0.4754  0.0708
 3302SOL    HW211348   0.608   1.882   1.923 -0.5768 -0.1913 -0.4579
 3303SOL     OW11349   6.681   4.065   1.533 -0.3454  0.1012 -0.4721
 3303SOL    HW111350   6.700   3.980   1.493 -0.4905 -0.9641  1.6033
 3303SOL    HW211351   6.767   4.098   1.561 -0.5637 -0.7216  1.2594
 3304SOL     OW11352   7.272   3.453  11.064  0.0233 -0.3473  0.5294
 3304SOL    HW111353   7.222   3.390  11.012 -0.7554  0.5045  0.2250
 3304SOL    HW211354   7.357   3.410  11.078 -0.0481 -0.9532 -0.7101
 3305SOL     OW11355   7.134   6.200   8.804  0.7356 -0.3024  0.2689
 3305SOL    HW111356   7.115   6.201   8.898  0.0251  2.7208  0.2161
 3305SOL    HW211357   7.226   6.175   8.798  0.7573 -0.6783  1.7508
 3306SOL     OW11358   5.793   6.344   9.105 -0.7626  0.3200  0.5485
 3306SOL    HW111359   5.733   6.288   9.156 -1.7298 -0.7474 -1.6380
 3306SOL    HW211360   5.743   6.368   9.027  1.6111 -0.6218 -1.4053
 3307SOL     OW11361   0.352   2.781   3.948 -0.0229 -0.4749  0.6607
 3307SOL    HW111362   0.406   2.841   4.000 -0.3932  0.5561 -0.1110
 3307SOL    HW211363   0.345   2.823   3.862  0.4876 -2.0869 -0.2152
 3308SOL     OW11364   5.918   4.923   1.122  0.2880  0.3840 -0.0786
 3308SOL    HW111365   5.827   4.927   1.152  0.2005  2.5763 -0.4684
 3308SOL    HW211366   5.951   5.012   1.135  2.5498 -0.4768  0.5027
 3309SOL     OW11367   1.588   3.974   7.815 -0.6295 -0.0647  0.6977
 3309SOL    HW111368   1.574   4.043   7.751  0.9255 -0.4283 -0.0706
 3309SOL    HW211369   1.604   3.895   7.763  0.7355 -0.3531  1.5063
 3310SOL     OW11370   2.006   1.564   7.001  0.1831 -0.1462 -0.2825
 3310SOL    HW111371   2.047   1.584   7.085  0.4499 -0.3572 -0.3639
 3310SOL    HW211372   1.929   1.512   7.024  0.1271 -0.0094 -0.1530
 3311SOL     OW11373   1.048   6.219  12.047  0.4990  0.5623  0.2345
 3311SOL    HW111374   0.999   6.277  11.989 -1.0346  0.6132  1.5082
 3311SOL    HW211375   0.996   6.216  12.127  1.1822 -1.5909  0.6576
 3312SOL     OW11376   4.799   5.539   9.460 -0.1876  0.0559  0.8193
 3312SOL    HW111377   4.769   5.605   9.397 -1.7133  0.4229  1.8713
 3312SOL    HW211378   4.814   5.589   9.540 -0.1262 -0.6892  1.2783
 3313SOL     OW11379   7.129   1.783   6.849 -0.0894  0.1926  0.0964
 3313SOL    HW111380   7.040   1.814   6.829  0.6401  0.1516 -4.2377
 3313SOL    HW211381   7.129   1.691   6.822  0.9017 -0.2468  1.5153
 3314SOL     OW11382   1.707   1.989   6.876  0.2760 -0.2944 -0.1472
 3314SOL    HW111383   1.700   2.028   6.963  1.1284 -0.1278 -0.1514
 3314SOL    HW211384   1.758   1.909   6.889  0.9516  0.0599 -0.5925
 3315SOL     OW11385   0.986   3.977   5.693 -0.8953  0.5391 -0.1095
 3315SOL    HW111386   0.965   3.940   5.779 -0.5677 -1.0727 -0.6749
 3315SOL    HW211387   0.902   4.004   5.656 -1.6154 -2.3428 -0.8174
 3316SOL     OW11388   4.746   0.842   7.005 -0.1337  0.0686 -0.3959
 3316SOL    HW111389   4.685   0.904   7.044  1.1115  1.6491 -0.8209
 3316SOL    HW211390   4.792   0.803   7.080 -1.1686 -0.6245 -0.1094
 3317SOL     OW11391   1.736   0.345   8.831 -0.4536  0.4685  0.1277
 3317SOL    HW111392   1.818   0.301   8.851 -0.7109  0.1514  0.4856
 3317SOL    HW211393   1.718   0.320   8.740 -0.4749  0.0204  0.2494
 3318SOL     OW11394   5.273   6.155   8.732 -0.0965  0.1670 -0.2290
 3318SOL    HW111395   5.266   6.094   8.659 -1.9895  0.2117 -0.1282
 3318SOL    HW211396   5.345   6.213   8.708  1.7168 -1.9899 -0.3750
 3319SOL     OW11397   2.033   5.321   7.182  0.4709 -0.7012 -0.0794
 3319SOL    HW111398   2.010   5.393   7.123 -2.5380  0.4610  2.2549
 3319SOL    HW211399   2.078   5.362   7.255 -0.9937 -1.1396  1.1313
 3320SOL     OW11400   2.876   3.352  11.916 -0.8465  0.2934  0.0355
 3320SOL    HW111401   2.851   3.444  11.903 -0.9781  0.0696 -1.4583
 3320SOL    HW211402   2.971   3.352  11.909 -0.9229  0.1615 -1.1089
 3321SOL     OW11403   3.163   7.240  11.237  0.0918  0.0790  0.0900
 3321SOL    HW111404   3.143   7.334  11.232  0.2073  0.0912 -0.1687
 3321SOL    HW211405   3.087   7.197  11.200  0.7561  0.1495 -1.4266
 3322SOL     OW11406   0.164   5.088   1.886 -0.9412  0.3569 -0.1503
 3322SOL    HW111407   0.208   5.085   1.801 -1.2715  0.5193 -0.3319
 3322SOL    HW211408   0.230   5.122   1.946  0.5318 -3.2637  0.4814
 3323SOL     OW11409   6.075   4.503   0.430  0.1941 -0.2831  0.4716
 3323SOL    HW111410   6.031   4.430   0.473 -0.4261  0.8676  1.8931
 3323SOL    HW211411   6.003   4.556   0.394  0.5447  0.4254  0.7999
 3324SOL     OW11412   5.679   6.440   9.403  0.3496  0.0786 -0.1309
 3324SOL    HW111413   5.665   6.497   9.328  1.1041  1.5162  0.7864
 3324SOL    HW211414   5.774   6.426   9.406  0.3419  0.1535  0.6347
 3325SOL     OW11415   4.206   7.035  11.407  0.8286  0.6074 -0.3766
 3325SOL    HW111416   4.165   6.968  11.461  0.9049  1.9860  1.4739
 3325SOL    HW211417   4.251   6.986  11.338  0.2051 -1.1788  0.4323
 3326SOL     OW11418   4.226   0.024   1.414  0.0585  0.5868  0.1248
 3326SOL    HW111419   4.218   0.026   1.509  0.8533 -1.3854  0.2739
 3326SOL    HW211420   4.319   0.012   1.398 -0.0115  1.3282 -0.9311
 3327SOL     OW11421   3.836   6.318   3.548 -0.1873  0.1541  0.3030
 3327SOL    HW111422   3.792   6.249   3.498 -1.5784 -0.3232  2.0667
 3327SOL    HW211423   3.801   6.308   3.637  0.0605  2.7251  0.7487
 3328SOL     OW11424   3.727   4.003   2.436  0.5711 -0.4602 -0.1245
 3328SOL    HW111425   3.765   3.970   2.517  2.4249 -0.0345 -0.7750
 3328SOL    HW211426   3.649   4.051   2.464  1.9945  0.9989  1.6120
 3329SOL     OW11427   7.430   2.975  11.725 -0.2642  0.3472  0.0344
 3329SOL    HW111428   7.473   2.922  11.658  2.2710  2.4158 -0.1276
 3329SOL    HW211429   7.369   3.031  11.676  0.2315  0.5797 -0.3227
 3330SOL     OW11430   0.646   3.299   9.346  0.0520 -0.1285 -0.2126
 3330SOL    HW111431   0.679   3.239   9.280 -0.4644  0.0992 -0.6898
 3330SOL    HW211432   0.563   3.331   9.310  0.3400  0.9051  0.0016
 3331SOL     OW11433   1.164   0.376   8.393 -0.3959  0.2290  0.8477
 3331SOL    HW111434   1.158   0.347   8.302 -0.6961 -0.2035  1.0005
 3331SOL    HW211435   1.091   0.331   8.437 -0.0791  0.2086  1.3590
 3332SOL     OW11436   5.604   0.037   8.337 -0.6152  0.1271 -0.2254
 3332SOL    HW111437   5.690   0.078   8.346 -0.8118  0.6591 -0.7248
 3332SOL    HW211438   5.576   0.060   8.249 -2.0369  1.4523  0.5380
 3333SOL     OW11439   6.692   1.332   8.141  0.3603  0.1986  0.2886
 3333SOL    HW111440   6.732   1.342   8.055  0.1951  0.6425  0.2596
 3333SOL    HW211441   6.647   1.248   8.138 -1.4623  1.1515 -0.8024
 3334SOL     OW11442   5.709   6.789  10.486 -0.0468 -0.5286  0.1831
 3334SOL    HW111443   5.666   6.750  10.562 -0.1403 -0.6739  0.0581
 3334SOL    HW211444   5.637   6.822  10.432  0.0675  0.5808  0.6879
 3335SOL     OW11445   7.812   1.370   5.770 -0.1185  0.2655  0.2515
 3335SOL    HW111446   7.873   1.367   5.844  0.1519 -1.2361 -0.0084
 3335SOL    HW211447   7.867   1.357   5.693 -0.8138 -1.8015  0.0611
 3336SOL     OW11448   4.114   3.725  11.735 -0.3424  0.0180 -0.2718
 3336SOL    HW111449   4.155   3.690  11.657 -1.3970 -0.9349 -0.4159
 3336SOL    HW211450   4.091   3.815  11.712 -1.4200 -0.5182 -1.3650
 3337SOL     OW11451   7.355   0.495  10.726 -0.3561  0.3866 -0.0179
 3337SOL    HW111452   7.369   0.480  10.633  0.2233  0.0586  0.1241
 3337SOL    HW211453   7.269   0.537  10.730 -0.7376 -0.3083 -0.6355
 3338SOL     OW11454   1.529   1.338  12.384  0.0390  0.5430 -0.1098
 3338SOL    HW111455   1.486   1.328  12.469  0.2276  0.5883 -0.0103
 3338SOL    HW211456   1.564   1.252  12.364 -0.0048  0.5325 -0.1423
 3339SOL     OW11457   0.576   6.279   6.005  0.4683  0.7085 -0.4053
 3339SOL    HW111458   0.522   6.248   6.079  2.8113 -1.5832  0.5076
 3339SOL    HW211459   0.553   6.220   5.933 -0.6100  1.8811 -1.0478
 3340SOL     OW11460   0.061   0.675  12.099  0.3424 -0.2021  0.4087
 3340SOL    HW111461  -0.004   0.611  12.070  2.3175 -1.5063 -1.4625
 3340SOL    HW211462   0.110   0.629  12.167  1.5309 -0.5915 -0.6798
 3341SOL     OW11463   3.078   3.595  12.458 -0.3206 -0.6732 -0.4084
 3341SOL    HW111464   3.170   3.599  12.433 -0.2526 -1.7382 -0.3548
 3341SOL    HW211465   3.035   3.660  12.402  0.5514  0.3469  0.0527
 3342SOL     OW11466   3.784   1.349   8.403 -0.9714  0.1117  0.0753
 3342SOL    HW111467   3.784   1.310   8.316 -0.9417 -1.8161  0.8817
 3342SOL    HW211468   3.834   1.430   8.393 -0.9973 -0.0538 -1.6925
 3343SOL     OW11469   7.866   4.520   7.650 -0.1520 -0.6291 -0.5959
 3343SOL    HW111470   7.789   4.576   7.639  0.8686  0.7754 -1.0098
 3343SOL    HW211471   7.837   4.449   7.707 -0.9464  1.5890  2.0266
 3344SOL     OW11472   2.171   7.002   1.221  0.1449  0.1151 -0.0893
 3344SOL    HW111473   2.149   6.921   1.267  0.8109  0.1185  0.2382
 3344SOL    HW211474   2.087   7.048   1.212 -0.1347 -0.3145  0.2944
 3345SOL     OW11475   0.512   1.260   3.267  0.4476  0.6603 -0.0413
 3345SOL    HW111476   0.486   1.197   3.335 -1.5332  0.4550 -0.9113
 3345SOL    HW211477   0.463   1.233   3.189  1.2002  2.0192 -1.0310
 3346SOL     OW11478   6.330   5.068   0.482  0.2952  0.3377 -0.1020
 3346SOL    HW111479   6.257   5.127   0.466 -0.3311 -0.0144  1.2812
 3346SOL    HW211480   6.330   5.008   0.407 -1.0441  0.1520  0.0236
 3347SOL     OW11481   1.984   5.048   8.942 -0.0177 -0.2727 -0.6170
 3347SOL    HW111482   2.071   5.083   8.961  0.8252 -1.3409 -2.1928
 3347SOL    HW211483   1.945   5.112   8.882  0.6249 -0.8775 -1.7162
 3348SOL     OW11484   7.782   2.623  10.351 -0.1077 -0.9982 -0.2913
 3348SOL    HW111485   7.800   2.554  10.415 -0.0529 -0.7620 -0.0487
 3348SOL    HW211486   7.862   2.628  10.298  0.5523  0.0145  0.7538
 3349SOL     OW11487   6.843   0.433   6.761  0.1082 -0.1440 -0.3868
 3349SOL    HW111488   6.891   0.464   6.838  0.8580 -1.0090 -0.4794
 3349SOL    HW211489   6.771   0.494   6.751  2.6997  2.9414 -1.9056
 3350SOL     OW11490   6.979   2.505   0.057  0.4797  0.1227 -0.4875
 3350SOL    HW111491   7.071   2.528   0.070  0.6420 -1.0302  0.6687
 3350SOL    HW211492   6.977   2.409   0.062 -1.0808  0.1824  2.1181
 3351SOL     OW11493   6.660   3.698  11.374 -0.9853  0.8306 -0.2144
 3351SOL    HW111494   6.593   3.633  11.398 -0.8180  0.6280 -0.3005
 3351SOL    HW211495   6.739   3.668  11.418 -0.0051 -0.9587 -2.9695
 3352SOL     OW11496   2.754   2.016   2.941 -0.2716  0.0786  0.1756
 3352SOL    HW111497   2.771   1.991   2.850 -1.6296  1.4300 -0.5084
 3352SOL    HW211498   2.676   2.073   2.936 -0.2269  0.3937  2.1534
 3353SOL     OW11499   7.107   5.944   6.723 -0.0791  0.5982  0.1826
 3353SOL    HW111500   7.171   5.936   6.793 -0.6160  0.7395  0.6994
 3353SOL    HW211501   7.119   6.033   6.690 -0.1357  0.6884  0.4040
 3354SOL     OW11502   4.951   0.541   7.058 -0.2322  0.2658 -0.2960
 3354SOL    HW111503   4.982   0.622   7.097 -0.2414  1.7937 -3.1927
 3354SOL    HW211504   4.860   0.533   7.087  0.3291  0.2208  1.5455
 3355SOL     OW11505   5.708   0.615  11.774  0.2893 -0.1508 -0.3569
 3355SOL    HW111506   5.672   0.632  11.862  1.4645 -0.4750  0.2061
 3355SOL    HW211507   5.790   0.664  11.773 -0.1810  0.6500 -1.6499
 3356SOL     OW11508   4.450   5.767  10.533  0.4108 -0.4455 -0.3774
 3356SOL    HW111509   4.398   5.781  10.612  1.6390  1.0409  0.2099
 3356SOL    HW211510   4.386   5.745  10.465 -0.6763 -1.6152  0.9641
 3357SOL     OW11511   1.526   6.456   7.515 -0.1624 -0.5023 -0.3109
 3357SOL    HW111512   1.534   6.370   7.474 -0.8375 -1.1098  0.7837
 3357SOL    HW211513   1.560   6.517   7.449 -0.2606 -1.5323 -1.3537
 3358SOL     OW11514   2.125   2.997   2.965 -0.1738  0.1538 -0.7889
 3358SOL    HW111515   2.128   2.989   3.061 -1.7020 -1.0712 -0.8245
 3358SOL    HW211516   2.182   3.072   2.947  1.0761 -0.2914  0.9743
 3359SOL     OW11517   5.860   7.948   9.616  0.7042 -0.2520 -0.1295
 3359SOL    HW111518   5.809   7.867   9.613  1.2004 -0.5936  0.4525
 3359SOL    HW211519   5.803   8.012   9.658  0.2848 -0.2775 -0.6549
 3360SOL     OW11520   7.126   2.391  11.027 -0.4027 -0.3976  0.4804
 3360SOL    HW111521   7.037   2.423  11.041 -0.3572  0.0627 -0.2726
 3360SOL    HW211522   7.138   2.325  11.095 -1.8846 -1.6260 -0.3976
 3361SOL     OW11523   5.961   4.388   8.828 -0.1719 -0.1153 -0.4305
 3361SOL    HW111524   5.940   4.416   8.917 -1.0136 -1.8753 -0.0274
 3361SOL    HW211525   5.952   4.468   8.775  2.6751  1.5604  1.3099
 3362SOL     OW11526   6.961   7.456   1.265 -0.5265  0.2245 -0.7456
 3362SOL    HW111527   6.988   7.544   1.290 -0.3296  0.1717 -0.7681
 3362SOL    HW211528   7.043   7.406   1.260 -0.7896 -0.6024  1.6710
 3363SOL     OW11529   0.904   0.188   7.749  0.1702 -0.6374  0.5777
 3363SOL    HW111530   0.908   0.157   7.658  2.1930  0.7980  0.1086
 3363SOL    HW211531   0.948   0.121   7.800 -2.3127 -2.2091  0.8136
 3364SOL     OW11532   5.282   0.550   8.441  0.5146  0.4225 -0.3189
 3364SOL    HW111533   5.271   0.637   8.402  1.8262  0.1155 -1.4524
 3364SOL    HW211534   5.214   0.496   8.402 -0.9241  1.1270  1.1047
 3365SOL     OW11535   7.649   5.133   2.961 -0.1002 -0.3205  0.4331
 3365SOL    HW111536   7.672   5.224   2.940  1.5172 -0.8805 -0.4283
 3365SOL    HW211537   7.564   5.120   2.920 -0.4289  0.8520  0.7086
 3366SOL     OW11538   2.919   3.277   1.393 -0.4546  0.5689 -0.0616
 3366SOL    HW111539   2.985   3.280   1.462 -1.1224 -1.5692  0.7653
 3366SOL    HW211540   2.900   3.369   1.373  2.0945  1.2351  0.2779
 3367SOL     OW11541   7.107   0.836   3.467  0.1694  0.1281  0.0709
 3367SOL    HW111542   7.048   0.893   3.517 -1.1600 -1.2846  0.1891
 3367SOL    HW211543   7.107   0.753   3.515  1.5537 -0.1871 -0.4396
 3368SOL     OW11544   7.651   0.691   1.964 -0.0279  0.2658 -0.5825
 3368SOL    HW111545   7.648   0.746   1.886 -2.6150  3.5605  1.5854
 3368SOL    HW211546   7.697   0.744   2.029 -1.6267 -0.5341  1.2919
 3369SOL     OW11547   0.175   4.579   9.487  0.1833 -0.0583 -0.2772
 3369SOL    HW111548   0.232   4.566   9.563 -0.9859  1.8649  1.0316
 3369SOL    HW211549   0.126   4.497   9.480  0.2611 -0.2533  1.1129
 3370SOL     OW11550   2.766   4.172  10.973  0.0523  0.3790 -0.2630
 3370SOL    HW111551   2.674   4.172  10.999 -0.3002 -1.5827 -1.2823
 3370SOL    HW211552   2.769   4.228  10.895 -0.9783 -1.9181 -2.0943
 3371SOL     OW11553   0.917   6.659   1.086 -0.1345 -0.3512 -0.5767
 3371SOL    HW111554   0.917   6.691   1.176 -1.1481  0.4748 -0.8557
 3371SOL    HW211555   0.966   6.576   1.090  1.5008  0.6190  0.3695
 3372SOL     OW11556   1.608   4.219   8.067  0.2736  0.3838  0.4348
 3372SOL    HW111557   1.591   4.228   7.973 -1.7344  0.4705  0.7471
 3372SOL    HW211558   1.683   4.160   8.073  2.0865  2.3482 -1.2506
 3373SOL     OW11559   6.936   4.342   4.621 -0.1118  0.5436 -0.6569
 3373SOL    HW111560   6.868   4.325   4.687  0.6930 -0.8033 -0.1404
 3373SOL    HW211561   6.905   4.420   4.574 -2.5890 -0.6593 -1.1869
 3374SOL     OW11562   4.005   5.977  10.899 -0.5669 -0.0019 -0.0325
 3374SOL    HW111563   4.079   5.997  10.842 -0.2777  0.5266  0.5066
 3374SOL    HW211564   4.011   5.883  10.915  1.5386  0.3893  2.0474
 3375SOL     OW11565   0.992   0.226  12.203 -0.1613 -0.0336 -0.3551
 3375SOL    HW111566   0.930   0.193  12.138  1.2071 -3.2866 -0.1902
 3375SOL    HW211567   1.043   0.291  12.155 -1.1584 -0.1304 -1.6268
 3376SOL     OW11568   5.166   3.676  11.739 -0.0150  0.4591 -0.1242
 3376SOL    HW111569   5.123   3.694  11.823  2.1398  0.5068  1.0295
 3376SOL    HW211570   5.256   3.653  11.762  0.0791 -1.7994 -2.2573
 3377SOL     OW11571   3.592   6.337   4.244  0.2254  0.1285  0.6048
 3377SOL    HW111572   3.631   6.250   4.248 -1.7764 -1.0530 -2.2891
 3377SOL    HW211573   3.511   6.329   4.295  0.4137  0.5649  0.9840
 3378SOL     OW11574   6.493   7.785   7.868 -0.7366 -0.7431  0.7302
 3378SOL    HW111575   6.492   7.695   7.837  2.7556 -0.1508 -1.6486
 3378SOL    HW211576   6.406   7.819   7.846 -0.8391 -2.4779 -2.0316
 3379SOL     OW11577   7.780   5.869   2.092 -0.3880 -0.4404 -0.5504
 3379SOL    HW111578   7.868   5.890   2.124 -0.8044  2.7301 -1.0568
 3379SOL    HW211579   7.722   5.925   2.143 -2.0656 -1.9955 -0.6717
 3380SOL     OW11580   3.464   6.884   5.732  0.3307 -0.6428 -0.0181
 3380SOL    HW111581   3.551   6.910   5.762  0.4240 -1.0820  0.0897
 3380SOL    HW211582   3.479   6.823   5.660  0.1160 -0.8292  0.0907
 3381SOL     OW11583   0.074   1.225   2.511 -0.0829 -0.2150 -0.7040
 3381SOL    HW111584   0.162   1.218   2.475 -0.0625  0.8773 -0.9182
 3381SOL    HW211585   0.080   1.298   2.573 -1.0427  0.4764 -1.3905
 3382SOL     OW11586   0.536   1.732  10.694  0.2761  0.2711  0.0056
 3382SOL    HW111587   0.519   1.640  10.672  0.3678  0.7289 -2.0968
 3382SOL    HW211588   0.454   1.777  10.675  0.8177  0.9205 -0.8603
 3383SOL     OW11589   1.292   7.510  11.966 -0.1205  0.1365  0.0923
 3383SOL    HW111590   1.215   7.501  12.022 -0.7118  0.6624 -0.6096
 3383SOL    HW211591   1.279   7.446  11.896 -0.7490  1.2844 -0.9056
 3384SOL     OW11592   4.971   3.662  11.950 -0.5418  0.5522 -0.0146
 3384SOL    HW111593   5.013   3.674  12.036 -0.1893  0.1527 -0.1268
 3384SOL    HW211594   4.971   3.567  11.937  0.1364  0.6491 -0.8159
 3385SOL     OW11595   6.847   2.688   0.913 -0.4387  0.4971  0.0880
 3385SOL    HW111596   6.881   2.604   0.881  5.7238  1.6978  2.0366
 3385SOL    HW211597   6.863   2.749   0.841 -0.4357  0.7345  0.2887
 3386SOL     OW11598   7.460   3.465   8.819  0.2371  0.2322  0.4874
 3386SOL    HW111599   7.384   3.467   8.762  1.5753  0.5293 -1.3551
 3386SOL    HW211600   7.516   3.396   8.783  0.4701 -0.6082  2.3468
 3387SOL     OW11601   4.780   3.884   2.818 -0.0293  0.0205 -0.0896
 3387SOL    HW111602   4.719   3.812   2.833 -0.3945  0.6369  1.6680
 3387SOL    HW211603   4.783   3.931   2.902  0.5160  1.7988 -1.0426
 3388SOL     OW11604   1.669   2.055   4.847  0.2710 -0.7902 -0.0399
 3388SOL    HW111605   1.619   1.974   4.861  0.7023 -1.6160 -2.6385
 3388SOL    HW211606   1.761   2.026   4.845  0.5374  0.0018  0.3865
 3389SOL     OW11607   6.797   7.307  12.239 -0.5622  0.9391  0.2911
 3389SOL    HW111608   6.886   7.315  12.204 -0.7274  0.8071 -0.1620
 3389SOL    HW211609   6.754   7.246  12.180 -0.7037  0.3394  1.0093
 3390SOL     OW11610   6.386   2.215   2.447 -0.0375  0.6929 -0.5399
 3390SOL    HW111611   6.387   2.257   2.361 -1.8077  2.0026 -0.0069
 3390SOL    HW211612   6.292   2.204   2.467  0.3381 -0.1321  0.9463
 3391SOL     OW11613   3.504   1.807   4.143 -0.5213  0.2798  0.0935
 3391SOL    HW111614   3.535   1.894   4.115 -0.0945 -0.7754 -3.0883
 3391SOL    HW211615   3.412   1.805   4.119  0.0954 -1.0186 -2.5482
 3392SOL     OW11616   4.340   7.883  11.691  0.0986 -0.7483  0.7032
 3392SOL    HW111617   4.292   7.815  11.643  0.0195  0.7056 -1.3683
 3392SOL    HW211618   4.431   7.870  11.666  0.2058 -0.6538  1.0419
 3393SOL     OW11619   2.778   7.617   2.216  0.4955 -0.6810 -0.3995
 3393SOL    HW111620   2.867   7.650   2.210  0.4667 -0.7633 -1.4859
 3393SOL    HW211621   2.764   7.603   2.310  1.3790 -0.0270 -0.1564
 3394SOL     OW11622   7.393   3.592  11.576 -0.1895 -0.4484 -0.3611
 3394SOL    HW111623   7.434   3.510  11.548 -0.6956 -1.1415  0.8525
 3394SOL    HW211624   7.447   3.660  11.536  0.5359 -1.3628 -0.9915
 3395SOL     OW11625   6.951   4.534  10.362  0.2521 -0.5601 -0.1612
 3395SOL    HW111626   6.859   4.538  10.387  0.4204  1.2219  0.2686
 3395SOL    HW211627   6.998   4.526  10.445  0.4663 -3.0714 -0.4453
 3396SOL     OW11628   0.833   2.118   8.465  0.0201  0.1376 -0.5517
 3396SOL    HW111629   0.897   2.091   8.400  1.4770  0.4522  0.6860
 3396SOL    HW211630   0.874   2.193   8.509 -1.3006  0.4892  0.1356
 3397SOL     OW11631   7.829   1.296   8.742 -0.3547 -0.3198 -0.0792
 3397SOL    HW111632   7.796   1.322   8.657 -2.8041 -2.9320 -0.0714
 3397SOL    HW211633   7.858   1.206   8.730 -0.6118 -0.6966  1.7904
 3398SOL     OW11634   5.110   4.289   5.892 -0.0632 -0.0905  0.2305
 3398SOL    HW111635   5.106   4.207   5.941  1.2760 -0.1499  0.2940
 3398SOL    HW211636   5.160   4.268   5.813  2.8452  1.1953  1.5472
 3399SOL     OW11637   7.935   5.404   7.191 -0.5281 -0.3172  0.4408
 3399SOL    HW111638   8.005   5.340   7.207 -0.2511 -0.0309  0.3998
 3399SOL    HW211639   7.978   5.489   7.203 -0.6323 -0.1138 -0.5041
 3400SOL     OW11640   7.324   1.360   7.808 -0.3850 -0.5212 -0.1259
 3400SOL    HW111641   7.369   1.275   7.813  0.4831 -0.0320  0.7694
 3400SOL    HW211642   7.364   1.412   7.878 -1.9767  0.1253  0.3470
 3401SOL     OW11643   7.326   4.336   6.422 -0.5270  0.0633 -0.3370
 3401SOL    HW111644   7.380   4.360   6.348 -1.1423  1.6846 -0.3041
 3401SOL    HW211645   7.383   4.346   6.498 -0.6578  1.0660 -0.3636
 3402SOL     OW11646   3.245   2.684   2.332  0.6339 -0.4289  0.2834
 3402SOL    HW111647   3.331   2.706   2.297  0.4062  1.4845  0.8169
 3402SOL    HW211648   3.254   2.698   2.427 -0.0916 -0.8578  0.4247
 3403SOL     OW11649   3.454   6.917   3.507 -0.3257  0.2473 -0.2965
 3403SOL    HW111650   3.359   6.912   3.509 -0.3906  0.8686 -1.1362
 3403SOL    HW211651   3.474   7.009   3.523  0.0574  0.3963 -1.5096
 3404SOL     OW11652   1.610   3.924   0.742  0.5099  0.4954 -0.7740
 3404SOL    HW111653   1.567   3.873   0.673  0.5271 -0.2520 -0.2432
 3404SOL    HW211654   1.588   4.015   0.722 -1.5871  0.1402 -0.3767
 3405SOL     OW11655   6.468   2.310   3.937 -0.6582 -0.3817 -0.2597
 3405SOL    HW111656   6.381   2.338   3.911 -0.3579  0.9292  0.0397
 3405SOL    HW211657   6.473   2.218   3.911 -1.5547 -0.0536 -1.7168
 3406SOL     OW11658   7.663   2.121  11.462 -0.3350  0.1166 -0.4021
 3406SOL    HW111659   7.715   2.133  11.382 -0.6542  4.2289 -0.2005
 3406SOL    HW211660   7.573   2.124  11.432 -0.4614 -0.6039 -0.0985
 3407SOL     OW11661   6.643   6.187   5.090  0.2415 -0.1173  0.0299
 3407SOL    HW111662   6.723   6.134   5.090  0.0571 -0.5219 -2.4324
 3407SOL    HW211663   6.649   6.240   5.011 -0.4654  2.2635  1.4562
 3408SOL     OW11664   3.503   4.340   6.198 -0.2152 -0.2877 -0.4189
 3408SOL    HW111665   3.495   4.258   6.148  0.9893  0.5543 -2.0964
 3408SOL    HW211666   3.583   4.381   6.163 -0.9398  1.7296  0.1882
 3409SOL     OW11667   5.052   1.890   9.859  0.0664 -0.2143 -0.0517
 3409SOL    HW111668   4.974   1.935   9.893 -0.8900 -1.0337 -1.1091
 3409SOL    HW211669   5.080   1.834   9.931 -0.5344 -0.1713  0.2232
 3410SOL     OW11670   5.163   5.755   8.637 -0.4024 -0.2558  0.2001
 3410SOL    HW111671   5.120   5.745   8.722 -0.2821 -1.6947  0.1204
 3410SOL    HW211672   5.189   5.666   8.613 -0.5993  0.0929 -1.4369
 3411SOL     OW11673   5.739   6.935   7.909 -0.6887  0.0823 -0.0684
 3411SOL    HW111674   5.792   7.003   7.949  0.8388 -1.2951  0.3707
 3411SOL    HW211675   5.720   6.874   7.980 -0.0564 -1.1182 -0.8802
 3412SOL     OW11676   6.047   5.350   6.497 -0.3074 -0.0038 -0.4657
 3412SOL    HW111677   6.120   5.396   6.456  0.4753 -0.2261  0.6292
 3412SOL    HW211678   6.064   5.357   6.591  0.0914 -2.8269 -0.2286
 3413SOL     OW11679   2.778   1.687   3.758  0.1303 -0.8256  0.1433
 3413SOL    HW111680   2.824   1.765   3.725  0.3549 -1.1179 -0.2485
 3413SOL    HW211681   2.776   1.628   3.683 -0.7968 -0.8615  0.1862
 3414SOL     OW11682   3.409   3.277  10.938 -0.0489  0.2101  0.0521
 3414SOL    HW111683   3.415   3.219  10.862 -2.1813 -0.7903  0.5681
 3414SOL    HW211684   3.463   3.352  10.915 -0.9621  0.1548 -2.6528
 3415SOL     OW11685   2.044   3.687   3.614  0.1060  0.0491  0.4726
 3415SOL    HW111686   1.960   3.733   3.611  0.9951  1.6842 -0.9070
 3415SOL    HW211687   2.109   3.756   3.628  1.3789 -0.9526 -0.2367
 3416SOL     OW11688   1.347   6.434   0.084 -0.2435  0.4328  0.5294
 3416SOL    HW111689   1.290   6.510   0.079  2.2731  2.4459  0.0015
 3416SOL    HW211690   1.404   6.452   0.159 -0.0118 -1.2782  0.8095
 3417SOL     OW11691   4.623   1.652  11.422  0.3246  0.1907  0.8411
 3417SOL    HW111692   4.536   1.687  11.407  0.0750 -0.6261  0.3299
 3417SOL    HW211693   4.650   1.688  11.507 -0.4398  0.5741  0.9211
 3418SOL     OW11694   5.779   0.949   9.683 -0.3104 -0.3622  0.4448
 3418SOL    HW111695   5.774   1.044   9.687  1.1400 -0.2366 -0.2173
 3418SOL    HW211696   5.813   0.924   9.769 -0.1647 -0.2382  0.4241
 3419SOL     OW11697   3.026   1.659   9.833  0.0615 -0.3011 -0.6000
 3419SOL    HW111698   2.982   1.743   9.827 -1.0764 -0.8308  0.0566
 3419SOL    HW211699   3.006   1.616   9.750 -2.4006 -1.3240  0.4243
 3420SOL     OW11700   2.557   7.316   9.054  0.2652 -0.2489 -0.3409
 3420SOL    HW111701   2.625   7.324   8.987 -1.6914 -0.5850 -2.4774
 3420SOL    HW211702   2.503   7.394   9.044  0.6606  0.3542  1.7862
 3421SOL     OW11703   5.468   2.030   1.143  0.0041 -0.1775  0.2710
 3421SOL    HW111704   5.432   2.017   1.055  0.0308 -0.0110  0.2352
 3421SOL    HW211705   5.530   2.102   1.133  0.8425 -0.8939  0.1935
 3422SOL     OW11706   3.596   5.188   6.885  0.4582  0.1498 -0.2696
 3422SOL    HW111707   3.561   5.105   6.853  0.5583 -0.7496  1.8168
 3422SOL    HW211708   3.678   5.165   6.928  0.5997  1.3730  0.1723
 3423SOL     OW11709   0.559   3.021  12.309 -0.1325 -0.0401 -0.4491
 3423SOL    HW111710   0.633   2.969  12.275 -0.3473 -0.3594 -0.4389
 3423SOL    HW211711   0.600   3.085  12.366  0.1568 -0.0893 -0.5945
 3424SOL     OW11712   3.106   7.328   3.155 -0.2702  0.6174  0.2319
 3424SOL    HW111713   3.157   7.295   3.228 -1.4491  0.5143  1.0320
 3424SOL    HW211714   3.052   7.254   3.128  2.7002 -0.5975 -3.2330
 3425SOL     OW11715   0.378   2.091   4.137  0.4847  0.2725 -0.0183
 3425SOL    HW111716   0.324   2.108   4.214  0.1077 -0.1931 -0.1733
 3425SOL    HW211717   0.347   2.154   4.072 -0.2408 -0.3220 -0.2733
 3426SOL     OW11718   0.474   1.089   1.777 -0.3295  0.1378 -0.5099
 3426SOL    HW111719   0.472   1.002   1.739 -1.6201 -0.0014 -0.1702
 3426SOL    HW211720   0.399   1.091   1.837  0.4338  1.0433  0.4612
 3427SOL     OW11721   4.598   0.851   3.875  0.0646 -0.5297 -0.5691
 3427SOL    HW111722   4.520   0.870   3.926 -0.0748 -1.4075 -0.4372
 3427SOL    HW211723   4.568   0.851   3.784  0.1233  0.1423 -0.5868
 3428SOL     OW11724   6.131   2.689   8.668  0.1878 -0.4467  0.1685
 3428SOL    HW111725   6.167   2.628   8.603  0.5974 -0.0201 -0.0094
 3428SOL    HW211726   6.039   2.663   8.677  0.0966 -0.4430 -0.6735
 3429SOL     OW11727   1.897   4.512   9.637 -0.4610 -0.5490  0.0371
 3429SOL    HW111728   1.866   4.514   9.547 -1.3811  2.4737  0.3023
 3429SOL    HW211729   1.821   4.540   9.689 -0.0341 -2.4500  1.8376
 3430SOL     OW11730   2.025   7.289   9.224 -0.9571 -0.0257 -0.4657
 3430SOL    HW111731   2.097   7.226   9.230  1.9078  2.9504 -1.0878
 3430SOL    HW211732   2.020   7.328   9.311 -1.1216  0.5203 -0.7182
 3431SOL     OW11733   1.382   4.003   3.253 -0.1591  0.0755  0.0546
 3431SOL    HW111734   1.309   3.949   3.222  0.0584 -0.4216  0.4071
 3431SOL    HW211735   1.385   4.076   3.190 -0.2453 -0.4885 -0.6203
 3432SOL     OW11736   6.612   1.332   9.353 -0.0269 -0.0949  0.3474
 3432SOL    HW111737   6.522   1.363   9.349 -0.2671 -0.8454 -0.6996
 3432SOL    HW211738   6.620   1.291   9.439 -0.4087  0.7755  0.8012
 3433SOL     OW11739   1.502   1.946   1.617 -0.0092  0.0045  0.0153
 3433SOL    HW111740   1.571   1.900   1.665 -0.0655  0.5223  0.6070
 3433SOL    HW211741   1.430   1.883   1.611  1.2003 -1.2530 -2.3353
 3434SOL     OW11742   7.063   0.631   2.346  0.0103 -0.2237 -0.7032
 3434SOL    HW111743   7.069   0.548   2.394  1.0897 -0.1056 -0.6082
 3434SOL    HW211744   6.985   0.622   2.292  0.2529 -1.4142 -0.8844
 3435SOL     OW11745   6.274   4.071  10.143  0.0612  0.1312 -0.2647
 3435SOL    HW111746   6.367   4.070  10.165  0.1346 -1.4378 -0.5461
 3435SOL    HW211747   6.259   3.988  10.097 -0.7940  1.7029 -3.0924
 3436SOL     OW11748   6.333   0.675   8.111  0.4609 -0.3377 -0.2443
 3436SOL    HW111749   6.328   0.628   8.027  2.3696 -0.9284 -0.0888
 3436SOL    HW211750   6.299   0.612   8.175 -1.0243  0.1236 -0.5514
 3437SOL     OW11751   5.579   6.371   1.629  0.0787  0.0983  0.0742
 3437SOL    HW111752   5.528   6.310   1.576  0.6870 -0.1133 -0.2822
 3437SOL    HW211753   5.542   6.457   1.611 -0.2631 -0.0754 -0.0452
 3438SOL     OW11754   6.774   1.793  10.904  0.4933  0.2248 -0.7550
 3438SOL    HW111755   6.794   1.857  10.972 -0.2595  0.4747 -0.7550
 3438SOL    HW211756   6.791   1.839  10.822  0.2590  0.3278 -0.7491
 3439SOL     OW11757   0.843   5.528   4.895  0.0486  0.1099  0.8408
 3439SOL    HW111758   0.895   5.460   4.937  4.2491  2.6221  0.2689
 3439SOL    HW211759   0.816   5.489   4.811  1.1420 -1.2618  1.0880
 3440SOL     OW11760   7.582   4.978   6.052 -0.4716 -0.3042  0.1569
 3440SOL    HW111761   7.609   4.948   5.966 -0.0776 -1.5992  0.7185
 3440SOL    HW211762   7.499   4.934   6.068 -0.5646 -0.0333  0.4317
 3441SOL     OW11763   1.839   5.827   5.743 -0.2378  0.0794 -0.2523
 3441SOL    HW111764   1.851   5.751   5.687  0.9079 -0.2664  0.4147
 3441SOL    HW211765   1.928   5.851   5.770 -0.5326  1.9009 -0.7625
 3442SOL     OW11766   7.934   7.468   6.402  0.4406 -0.4953 -0.0390
 3442SOL    HW111767   7.880   7.406   6.352  1.3272 -0.9557 -0.4449
 3442SOL    HW211768   7.909   7.453   6.493  1.1533 -1.9905 -0.0561
 3443SOL     OW11769   4.004   5.990   3.590  0.2257  0.1137 -0.0636
 3443SOL    HW111770   4.065   5.970   3.661  1.4968 -0.1237 -1.1792
 3443SOL    HW211771   3.919   5.959   3.621  0.7656 -0.0594  1.3010
 3444SOL     OW11772   0.052   0.193  10.499 -0.3943 -0.4578  0.1312
 3444SOL    HW111773   0.094   0.108  10.489 -1.0376 -0.5864 -2.1109
 3444SOL    HW211774  -0.037   0.180  10.465 -1.0215  0.7331  1.2161
 3445SOL     OW11775   0.560   0.739   2.940  0.1195  0.0562  0.1394
 3445SOL    HW111776   0.487   0.683   2.915 -0.7771  1.2949 -0.1535
 3445SOL    HW211777   0.625   0.680   2.975 -0.3993 -1.2649 -1.0203
 3446SOL     OW11778   1.189   0.965   9.030 -0.0705  0.2413 -0.2158
 3446SOL    HW111779   1.237   0.891   9.069  0.0930 -0.0129 -0.8865
 3446SOL    HW211780   1.101   0.958   9.068 -0.1630 -0.5199 -0.5370
 3447SOL     OW11781   1.822   3.147   5.643 -0.5723 -0.5634 -0.4420
 3447SOL    HW111782   1.825   3.242   5.652  2.1014 -0.5257 -0.7605
 3447SOL    HW211783   1.769   3.117   5.717 -1.7386  1.1488 -0.5183
 3448SOL     OW11784   2.787   3.362   3.460  0.6406 -0.0520  0.4514
 3448SOL    HW111785   2.787   3.371   3.555 -0.2651 -2.1049  0.6997
 3448SOL    HW211786   2.783   3.268   3.445 -3.7658  0.1888 -1.5076
 3449SOL     OW11787   1.439   5.994   0.135 -0.4390  0.6803 -0.2902
 3449SOL    HW111788   1.474   6.065   0.189  0.3290  0.3642 -0.3466
 3449SOL    HW211789   1.347   6.015   0.123  0.2690  3.0368 -2.4159
 3450SOL     OW11790   2.255   1.188   1.064 -0.0550  0.2276 -0.1991
 3450SOL    HW111791   2.301   1.270   1.082  2.5663 -1.0816 -0.3921
 3450SOL    HW211792   2.241   1.189   0.970  0.6313  0.1607 -0.3084
 3451SOL     OW11793   1.026   2.590   3.974  0.4066 -0.5221 -0.4367
 3451SOL    HW111794   1.095   2.622   4.031  0.1712 -0.2874 -0.2774
 3451SOL    HW211795   1.055   2.611   3.886  0.2839  0.0915 -0.3388
 3452SOL     OW11796   6.119   6.357   1.043 -0.1659  0.0846 -0.2706
 3452SOL    HW111797   6.047   6.364   0.980  0.5453  1.2397 -0.9830
 3452SOL    HW211798   6.117   6.439   1.092  0.1596 -0.2197  0.2690
 3453SOL     OW11799   2.616   6.249   1.498  0.3903 -0.2258 -0.4659
 3453SOL    HW111800   2.623   6.331   1.449 -0.1097 -0.2275 -0.5400
 3453SOL    HW211801   2.624   6.181   1.431 -1.7580 -0.2284 -0.7699
 3454SOL     OW11802   4.430   2.841  11.560  0.1160 -0.5920  0.2485
 3454SOL    HW111803   4.512   2.794  11.546 -0.2390 -1.0583 -0.3146
 3454SOL    HW211804   4.440   2.883  11.646  0.5012 -1.5540  0.6778
 3455SOL     OW11805   0.537   7.818   6.088 -0.6483  0.1314 -0.0092
 3455SOL    HW111806   0.481   7.743   6.110 -0.9610  0.5790  0.7966
 3455SOL    HW211807   0.476   7.892   6.083 -0.1802  0.5557  0.4930
 3456SOL     OW11808   7.636   6.552   7.842  0.3131 -0.5067 -0.7652
 3456SOL    HW111809   7.604   6.642   7.847 -0.0731 -0.6122 -1.2273
 3456SOL    HW211810   7.556   6.499   7.835  0.5522 -0.8576 -0.8506
 3457SOL     OW11811   6.655   0.297   1.318 -0.4654  0.0898 -0.2559
 3457SOL    HW111812   6.727   0.321   1.260 -0.3700  0.1545 -0.1111
 3457SOL    HW211813   6.674   0.206   1.342 -0.9691 -0.2283 -1.0154
 3458SOL     OW11814   4.603   7.768   3.822  0.4371  0.2195 -0.5514
 3458SOL    HW111815   4.601   7.863   3.834 -0.8439 -0.0856  2.5755
 3458SOL    HW211816   4.679   7.739   3.873 -1.3556 -0.6438  1.8517
 3459SOL     OW11817   2.824   3.708   2.042 -0.0939 -0.3597  0.5907
 3459SOL    HW111818   2.846   3.622   2.007  0.4167 -0.6229  1.5399
 3459SOL    HW211819   2.847   3.769   1.971  0.5741 -0.9113  0.3189
 3460SOL     OW11820   7.138   7.656   9.992 -0.2795  0.4491  0.2778
 3460SOL    HW111821   7.074   7.709   9.946  0.8819  1.4601 -0.2393
 3460SOL    HW211822   7.142   7.574   9.943 -0.2742  0.8670 -0.4273
 3461SOL     OW11823   0.927   0.978   5.920  0.4837 -0.1436 -0.1071
 3461SOL    HW111824   1.012   0.985   5.964  0.1272 -0.2735  0.6187
 3461SOL    HW211825   0.911   0.884   5.913  0.0722 -0.1182  0.4188
 3462SOL     OW11826   6.040   7.317  11.376 -0.1941  0.1360  0.3271
 3462SOL    HW111827   6.022   7.383  11.308 -0.1566 -0.1998 -0.0097
 3462SOL    HW211828   6.070   7.240  11.327  0.4630  0.1060  0.7694
 3463SOL     OW11829   2.644   6.414  10.113 -0.1114 -0.4548 -0.4346
 3463SOL    HW111830   2.556   6.403  10.076 -0.3486 -1.0431  0.2889
 3463SOL    HW211831   2.643   6.501  10.152 -0.2902 -0.3560 -0.6598
 3464SOL     OW11832   0.505   1.821   8.364 -0.2713  0.0134 -0.3779
 3464SOL    HW111833   0.581   1.839   8.420  0.4606 -2.2674 -0.5415
 3464SOL    HW211834   0.484   1.730   8.381 -1.7147  0.0316 -1.8589
 3465SOL     OW11835   7.085   6.226  10.039  0.2934  0.4479 -0.2829
 3465SOL    HW111836   7.062   6.271  10.121  0.9791  1.0442 -0.4098
 3465SOL    HW211837   7.119   6.141  10.068  1.1450  0.9072  0.1014
 3466SOL     OW11838   3.845   0.551   9.887  0.1392 -0.0407 -0.1877
 3466SOL    HW111839   3.837   0.532   9.981 -1.2550  0.1821 -0.2454
 3466SOL    HW211840   3.878   0.641   9.884 -3.1897  1.3227  0.1654
 3467SOL     OW11841   7.609   0.924   1.785 -0.3698  0.1575 -0.3125
 3467SOL    HW111842   7.555   0.975   1.725  0.3527  1.2258 -0.0934
 3467SOL    HW211843   7.577   0.949   1.872 -1.8065 -1.8225 -0.2105
 3468SOL     OW11844   6.361   2.000   5.611  0.6694  0.0175 -0.6944
 3468SOL    HW111845   6.310   2.024   5.534  0.5388  1.2444 -0.2364
 3468SOL    HW211846   6.391   1.910   5.593  0.9425  0.4106 -2.3202
 3469SOL     OW11847   0.002   5.657   5.312 -0.3682 -0.4124 -0.2545
 3469SOL    HW111848   0.073   5.654   5.375 -0.0312 -0.1348 -0.6162
 3469SOL    HW211849  -0.044   5.573   5.323 -0.7712 -0.0579  0.8631
 3470SOL     OW11850   6.595   5.432   3.050  0.6777  0.0369 -0.5086
 3470SOL    HW111851   6.635   5.450   2.965 -1.0531  1.0682 -1.1514
 3470SOL    HW211852   6.569   5.518   3.082 -0.8745 -0.5650 -0.0642
 3471SOL     OW11853   3.115   0.896   0.674  0.1119  0.1751 -0.4092
 3471SOL    HW111854   3.043   0.942   0.717  0.8132  1.1644 -0.2671
 3471SOL    HW211855   3.132   0.820   0.730 -1.2214 -0.4215 -0.7821
 3472SOL     OW11856   0.108   5.636   7.555 -0.0762 -0.3211  0.1782
 3472SOL    HW111857   0.186   5.677   7.592  0.5021 -1.3836  0.1721
 3472SOL    HW211858   0.058   5.606   7.631 -0.1802 -0.1931  0.1618
 3473SOL     OW11859   1.544   6.711   8.423 -0.6666 -0.1061 -0.1000
 3473SOL    HW111860   1.493   6.635   8.453 -0.8421 -0.3256 -0.9297
 3473SOL    HW211861   1.630   6.700   8.463 -1.2884  0.3449  1.4406
 3474SOL     OW11862   2.511   3.258  10.510 -0.7049  0.2851  0.1254
 3474SOL    HW111863   2.589   3.212  10.542 -0.8773 -1.5074 -1.7920
 3474SOL    HW211864   2.529   3.350  10.529  2.7150  0.1812 -1.6824
 3475SOL     OW11865   6.744   0.309  11.858  0.0416  0.1353 -0.3981
 3475SOL    HW111866   6.665   0.305  11.912  0.5392  0.3547  0.3633
 3475SOL    HW211867   6.719   0.364  11.784 -0.5663  0.0813 -0.2383
 3476SOL     OW11868   2.355   3.739   4.295  0.0525  0.0516  0.0948
 3476SOL    HW111869   2.384   3.653   4.264 -2.1295 -1.3414  1.6575
 3476SOL    HW211870   2.397   3.750   4.380  2.5025  1.8881 -1.2007
 3477SOL     OW11871   5.815   7.711   6.742  0.0589 -0.5377 -0.3013
 3477SOL    HW111872   5.836   7.803   6.757 -2.2674 -0.2588  1.8371
 3477SOL    HW211873   5.897   7.673   6.708  1.3465  2.0850 -0.3627
 3478SOL     OW11874   1.006   1.738   8.784  0.6211  0.2472 -0.4202
 3478SOL    HW111875   1.043   1.805   8.841  0.6235 -0.0707 -0.0404
 3478SOL    HW211876   1.072   1.668   8.783  0.7672  0.3930 -1.0784
 3479SOL     OW11877   0.246   0.032   9.072  0.6450  0.1453 -0.8266
 3479SOL    HW111878   0.153   0.021   9.050  0.5982 -2.0693  0.1700
 3479SOL    HW211879   0.249   0.114   9.122 -0.7289  0.3866 -1.0810
 3480SOL     OW11880   3.840   6.099   9.273 -0.0198 -0.3661 -0.2811
 3480SOL    HW111881   3.923   6.127   9.237 -0.0824  1.1487  0.6475
 3480SOL    HW211882   3.860   6.074   9.363 -1.0384  3.4216  1.1492
 3481SOL     OW11883   5.292   6.862   9.128 -1.1635 -0.2109 -0.0573
 3481SOL    HW111884   5.248   6.947   9.123  2.1464  1.6816 -0.3971
 3481SOL    HW211885   5.328   6.858   9.217 -1.8874 -1.6533  0.2019
 3482SOL     OW11886   2.864   7.158   5.171 -0.2428 -0.1148  0.0535
 3482SOL    HW111887   2.789   7.107   5.201  1.0037 -0.1793  3.4505
 3482SOL    HW211888   2.918   7.095   5.124 -0.1131 -1.2666  1.6717
 3483SOL     OW11889   0.579   3.399   7.101  0.2882  0.2359 -0.2295
 3483SOL    HW111890   0.668   3.394   7.137  0.5477  2.2438 -0.5187
 3483SOL    HW211891   0.533   3.459   7.160 -0.4908  0.3063 -0.8983
 3484SOL     OW11892   7.194   2.694   5.734  0.0838 -0.7411 -0.4210
 3484SOL    HW111893   7.151   2.766   5.688  0.3249 -0.8852 -0.8848
 3484SOL    HW211894   7.128   2.625   5.738 -0.6660  0.0360  1.3920
 3485SOL     OW11895   4.008   4.050   9.341 -0.2298 -0.2235  0.1922
 3485SOL    HW111896   3.915   4.072   9.348 -0.2478 -0.2917  0.1733
 3485SOL    HW211897   4.008   3.958   9.315 -0.1401 -0.5908  1.4683
 3486SOL     OW11898   0.899   6.445   3.667 -0.1538 -0.1013 -0.6080
 3486SOL    HW111899   0.861   6.446   3.579 -2.1696 -0.0267  0.1977
 3486SOL    HW211900   0.958   6.370   3.667 -0.0816 -0.0768 -2.0268
 3487SOL     OW11901   1.388   0.669   7.636  1.0557  0.7914 -0.1475
 3487SOL    HW111902   1.421   0.723   7.708  0.2998  2.5177 -1.0339
 3487SOL    HW211903   1.445   0.690   7.562  2.0156 -1.1956 -0.0307
 3488SOL     OW11904   3.463   4.514   1.828 -0.3192  0.5253 -0.0060
 3488SOL    HW111905   3.553   4.483   1.813 -1.2978 -1.6041 -2.2649
 3488SOL    HW211906   3.471   4.609   1.834  1.9309  0.5900 -2.1423
 3489SOL     OW11907   1.868   6.659   3.741  0.4025  0.1421 -0.7678
 3489SOL    HW111908   1.813   6.729   3.707  0.4514  0.8625  0.5806
 3489SOL    HW211909   1.817   6.623   3.815  1.6491  0.7370  0.4221
 3490SOL     OW11910   6.543   1.578   3.341  0.3839 -0.3467  0.4555
 3490SOL    HW111911   6.571   1.626   3.419  0.8501  0.7055 -0.3319
 3490SOL    HW211912   6.623   1.565   3.291  0.0440 -0.7276  0.0045
 3491SOL     OW11913   3.594   2.768   4.130 -0.0998  0.1925  0.2035
 3491SOL    HW111914   3.564   2.781   4.040  0.8283 -0.7126 -0.2579
 3491SOL    HW211915   3.589   2.854   4.170  1.8944  1.1670 -1.4756
 3492SOL     OW11916   1.962   5.505   1.055 -0.5304  0.4166 -0.1286
 3492SOL    HW111917   1.877   5.466   1.032 -1.5067  1.5596  1.3637
 3492SOL    HW211918   1.946   5.552   1.137  2.0676 -1.1281  1.4093
 3493SOL     OW11919   2.790   6.722  10.367 -0.1464  0.2809  0.4716
 3493SOL    HW111920   2.737   6.716  10.447  0.4713 -0.7161  0.8364
 3493SOL    HW211921   2.791   6.815  10.345 -4.0000  0.1428 -0.9104
 3494SOL     OW11922   3.957   7.521  10.213 -0.1521 -0.1521 -0.3156
 3494SOL    HW111923   3.937   7.614  10.206 -1.0772 -0.2622  0.5407
 3494SOL    HW211924   3.873   7.480  10.233  0.8021 -0.6794  3.2612
 3495SOL     OW11925   1.113   1.977   8.866 -0.4412  0.3136  0.1310
 3495SOL    HW111926   1.106   2.027   8.785  0.1547 -1.2382 -0.9156
 3495SOL    HW211927   1.152   2.037   8.929 -0.7923  1.5012 -0.7660
 3496SOL     OW11928   0.438   2.495   7.802  0.0272 -0.0620 -0.2442
 3496SOL    HW111929   0.392   2.476   7.884  1.3474  1.3360  0.8566
 3496SOL    HW211930   0.516   2.439   7.805 -0.1293 -0.3111 -0.7557
 3497SOL     OW11931   1.276   2.367  10.892 -0.1332 -0.2348 -0.1915
 3497SOL    HW111932   1.311   2.455  10.901 -0.2765 -0.2997  1.2172
 3497SOL    HW211933   1.308   2.337  10.807  0.9857  0.6922 -0.1244
 3498SOL     OW11934   5.432   1.931   0.456  0.1582  0.3045  0.0828
 3498SOL    HW111935   5.507   1.928   0.398 -0.6951  1.2991 -1.1339
 3498SOL    HW211936   5.452   1.869   0.526  1.6003 -0.2569 -0.8041
 3499SOL     OW11937   2.761   3.414   9.878  0.1491  0.6888 -0.7795
 3499SOL    HW111938   2.822   3.416   9.952 -0.3194 -0.8308 -0.3075
 3499SOL    HW211939   2.801   3.471   9.812  3.1450 -1.7759 -1.3000
 3500SOL     OW11940   7.766   6.073  11.437  0.2376 -0.1350 -0.3714
 3500SOL    HW111941   7.768   6.161  11.398  1.0781 -0.2431 -0.5935
 3500SOL    HW211942   7.770   6.013  11.362  1.5037 -0.3456 -0.1531
 3501SOL     OW11943   7.149   1.262  12.299 -0.4187  0.1677  0.1071
 3501SOL    HW111944   7.164   1.356  12.288  1.8132 -0.1003  0.2977
 3501SOL    HW211945   7.058   1.249  12.273 -0.0851  2.0083 -2.3689
 3502SOL     OW11946   5.847   2.747   5.429 -0.2397 -0.1307 -0.0307
 3502SOL    HW111947   5.778   2.720   5.490 -0.2979  0.0031 -0.0382
 3502SOL    HW211948   5.860   2.670   5.373  0.3587 -0.5405  0.6391
 3503SOL     OW11949   1.328   6.700   5.459  0.3621  0.3646 -0.3652
 3503SOL    HW111950   1.359   6.702   5.549  1.2573 -1.7505 -0.5776
 3503SOL    HW211951   1.327   6.792   5.432 -0.5914  1.1146  1.9808
 3504SOL     OW11952   4.817   5.777   1.720 -0.0442  0.1490 -0.3027
 3504SOL    HW111953   4.891   5.822   1.761  1.5304 -3.5016  1.3928
 3504SOL    HW211954   4.854   5.735   1.643 -0.5851 -0.7941 -0.0669
 3505SOL     OW11955   0.834   6.707   3.313 -0.0018 -0.1815  0.1712
 3505SOL    HW111956   0.884   6.701   3.395 -1.1332 -1.6986  0.7823
 3505SOL    HW211957   0.900   6.729   3.247  0.9763  0.8447  1.4157
 3506SOL     OW11958   2.647   3.189   7.505 -0.5570 -0.7667  0.2281
 3506SOL    HW111959   2.656   3.254   7.435 -1.3489 -1.5749 -0.6699
 3506SOL    HW211960   2.556   3.199   7.535 -0.6197 -1.2950  0.2239
 3507SOL     OW11961   5.718   7.397   6.187 -0.2876 -0.2267 -0.1994
 3507SOL    HW111962   5.626   7.374   6.197 -0.0654 -1.0035  0.1693
 3507SOL    HW211963   5.760   7.315   6.161  0.6063 -0.3884  1.5731
 3508SOL     OW11964   5.531   7.436  10.588  0.4152  0.0997 -0.4087
 3508SOL    HW111965   5.462   7.401  10.644 -1.8651  2.7307 -1.3564
 3508SOL    HW211966   5.592   7.478  10.648 -0.8200  0.9816  0.2695
 3509SOL     OW11967   6.305   6.418   3.932  0.1329  0.2164  0.2022
 3509SOL    HW111968   6.247   6.343   3.915  0.3786 -0.0103  0.3568
 3509SOL    HW211969   6.324   6.413   4.025 -1.0282  1.3290  0.5373
 3510SOL     OW11970   6.803   4.294   6.907  0.2550 -0.1588 -0.0144
 3510SOL    HW111971   6.781   4.336   6.824  1.1069  1.7387  0.6573
 3510SOL    HW211972   6.718   4.269   6.944 -0.0701 -2.3378 -2.0304
 3511SOL     OW11973   4.157   7.537   0.253 -0.2769  0.1092 -0.2009
 3511SOL    HW111974   4.184   7.497   0.171 -0.0306 -0.1177 -0.0096
 3511SOL    HW211975   4.063   7.555   0.241 -0.2631 -0.0028 -0.4950
 3512SOL     OW11976   1.419   1.316   9.402 -0.2350  0.0213  0.4288
 3512SOL    HW111977   1.369   1.383   9.354 -4.0576 -2.6726  0.1688
 3512SOL    HW211978   1.434   1.247   9.337  1.6623 -0.3681  1.2183
 3513SOL     OW11979   3.322   4.812   1.455  0.6523 -0.3181 -0.4512
 3513SOL    HW111980   3.386   4.881   1.435  2.0146 -2.1241 -2.7860
 3513SOL    HW211981   3.361   4.765   1.529  0.6310  0.2413 -0.0715
 3514SOL     OW11982   4.102   7.832   5.553  0.5210 -0.3870  0.0105
 3514SOL    HW111983   4.050   7.827   5.473 -0.6399 -0.5676  0.7443
 3514SOL    HW211984   4.150   7.914   5.546 -1.7392  1.0695  0.3600
 3515SOL     OW11985   2.130   6.422   5.009  0.8535  0.4309 -0.1630
 3515SOL    HW111986   2.192   6.375   5.064 -1.3915 -0.1766  2.0239
 3515SOL    HW211987   2.111   6.503   5.057 -2.0882 -0.6693  0.7548
 3516SOL     OW11988   7.879   6.357   3.062 -0.2415  0.0854  0.7032
 3516SOL    HW111989   7.950   6.411   3.029 -0.3799  0.4906  1.0630
 3516SOL    HW211990   7.922   6.282   3.103 -0.0635 -0.3387 -0.2387
 3517SOL     OW11991   3.050   2.538  10.600 -0.2379  0.2566 -0.2986
 3517SOL    HW111992   2.956   2.521  10.610  0.0171 -0.5442  0.9094
 3517SOL    HW211993   3.086   2.456  10.567  0.2981 -0.0636  1.0280
 3518SOL     OW11994   6.703   7.093   6.756 -0.4155 -0.2025 -0.4909
 3518SOL    HW111995   6.715   7.144   6.675 -2.3144  0.4577 -0.4011
 3518SOL    HW211996   6.609   7.079   6.761 -0.4082  0.3284  1.9603
 3519SOL     OW11997   7.856   6.535  11.113  0.1219  0.1796 -0.0076
 3519SOL    HW111998   7.925   6.519  11.048  0.6574 -0.2267  0.6511
 3519SOL    HW211999   7.865   6.627  11.135  0.9098 -0.0333  0.5820
 3520SOL     OW12000   4.271   5.957   4.550 -0.0950  0.0251 -0.5384
 3520SOL    HW112001   4.291   6.006   4.630  0.1999  0.6951 -1.0056
 3520SOL    HW212002   4.181   5.926   4.563  0.3632 -0.9012  0.5431
 3521SOL     OW12003   7.846   2.869   8.677 -0.4308  0.0330 -0.3835
 3521SOL    HW112004   7.850   2.792   8.735  1.1169 -0.0339 -0.5340
 3521SOL    HW212005   7.825   2.833   8.591 -0.3026 -0.1517 -0.3389
 3522SOL     OW12006   7.370   5.416   6.495 -0.0417 -0.8041 -0.4011
 3522SOL    HW112007   7.431   5.482   6.529 -2.6945  1.6855 -0.0481
 3522SOL    HW212008   7.382   5.340   6.552  1.5309  0.1906  0.6820
 3523SOL     OW12009   2.358   1.485   4.031  0.2706  0.0664 -0.2301
 3523SOL    HW112010   2.357   1.580   4.042  1.4861  0.2036 -1.0202
 3523SOL    HW212011   2.385   1.472   3.940  1.3522 -1.0237  0.2154
 3524SOL     OW12012   0.758   3.527   2.606 -0.1434  0.2674  0.5442
 3524SOL    HW112013   0.677   3.484   2.633 -0.8280  0.9218 -0.4028
 3524SOL    HW212014   0.772   3.500   2.515 -0.3081  1.5890  0.0953
 3525SOL     OW12015   6.886   0.033   1.660  0.7035 -0.0556  0.2484
 3525SOL    HW112016   6.947  -0.011   1.601 -0.3847 -0.6042 -0.4880
 3525SOL    HW212017   6.930   0.115   1.683  1.1247  0.1915 -1.3688
 3526SOL     OW12018   5.634   0.868   2.784  0.5557 -0.8672 -0.2200
 3526SOL    HW112019   5.646   0.776   2.808 -1.2478 -1.2211 -0.5408
 3526SOL    HW212020   5.588   0.865   2.701  1.7803  0.3643 -0.9767
 3527SOL     OW12021   7.293   4.324   8.269  0.2972  0.9079  0.1001
 3527SOL    HW112022   7.368   4.309   8.212  0.6462  0.5965  0.6383
 3527SOL    HW212023   7.219   4.283   8.224  0.7900 -0.3647  0.4188
 3528SOL     OW12024   6.967   4.955   7.577 -0.0766 -0.3033  0.0197
 3528SOL    HW112025   6.906   5.006   7.523 -0.6739 -0.7893  0.2216
 3528SOL    HW212026   6.924   4.949   7.662  0.9655  0.6471  0.6351
 3529SOL     OW12027   1.323   1.005   6.787 -0.7660 -0.1827  0.2182
 3529SOL    HW112028   1.227   1.014   6.784 -0.6973  0.2456 -1.7745
 3529SOL    HW212029   1.337   0.910   6.790 -1.2295 -0.2388  2.0250
 3530SOL     OW12030   5.678   1.657   2.073  0.1544 -0.4497  0.4846
 3530SOL    HW112031   5.747   1.703   2.024  0.2335 -0.6978  0.3644
 3530SOL    HW212032   5.610   1.639   2.008  0.3395 -0.9425  0.4250
 3531SOL     OW12033   3.088   2.050   5.759  1.0168 -0.7444 -0.4171
 3531SOL    HW112034   3.174   2.085   5.735  1.5180 -0.8049  1.2118
 3531SOL    HW212035   3.107   1.977   5.818 -0.1364 -1.2633 -0.6579
 3532SOL     OW12036   5.001   6.761   8.974 -0.0377 -0.5343 -0.1971
 3532SOL    HW112037   4.991   6.700   8.901 -0.8728 -0.4344 -0.1714
 3532SOL    HW212038   4.952   6.839   8.947 -0.7883 -0.6882  0.6857
 3533SOL     OW12039   2.157   3.172   9.991  0.1780 -0.0894 -0.4023
 3533SOL    HW112040   2.243   3.192  10.028  0.0908  0.0561 -0.2761
 3533SOL    HW212041   2.136   3.248   9.936 -0.4280  0.4708  0.5665
 3534SOL     OW12042   3.960   5.755   5.658 -0.0300 -0.3434  0.1633
 3534SOL    HW112043   3.932   5.664   5.665 -0.8437  0.0026  2.0904
 3534SOL    HW212044   4.047   5.757   5.699 -1.4758  0.2751  3.5640
 3535SOL     OW12045   5.854   6.066   8.961 -0.2722  0.2266  0.2970
 3535SOL    HW112046   5.845   6.161   8.959 -1.0793  0.1707  0.8600
 3535SOL    HW212047   5.847   6.043   9.053  1.5698 -0.2480  0.3524
 3536SOL     OW12048   0.379   7.257  11.161  0.1997  0.5555  0.0925
 3536SOL    HW112049   0.405   7.165  11.163 -1.3351  0.0755 -0.3511
 3536SOL    HW212050   0.453   7.302  11.119 -0.0666 -0.8930 -2.1342
 3537SOL     OW12051   7.233   7.929  11.993  0.2081 -0.2002  0.2358
 3537SOL    HW112052   7.271   8.016  11.988 -0.2530  0.0898  1.4874
 3537SOL    HW212053   7.139   7.944  11.999  0.0962 -0.7994  0.0055
 3538SOL     OW12054   7.683   4.957   8.528 -0.2587  0.4872 -0.3725
 3538SOL    HW112055   7.606   4.916   8.488 -0.1430 -0.7572  0.6098
 3538SOL    HW212056   7.688   4.918   8.615  0.4919  1.8521  0.2194
 3539SOL     OW12057   5.122   6.365   0.613 -0.2285  0.0554  0.2513
 3539SOL    HW112058   5.178   6.394   0.685 -0.3388  0.4124  0.1988
 3539SOL    HW212059   5.073   6.444   0.588  0.0188  0.0044 -0.4065
 3540SOL     OW12060   4.443   2.916   5.089  0.4087 -0.0007  0.0566
 3540SOL    HW112061   4.536   2.934   5.072  0.3798 -1.5902 -2.2537
 3540SOL    HW212062   4.444   2.852   5.159  0.7590  3.1522  3.2497
 3541SOL     OW12063   0.643   6.769   5.544 -0.2645  0.2787  0.1223
 3541SOL    HW112064   0.658   6.814   5.627  0.2967  0.0589  0.1446
 3541SOL    HW212065   0.731   6.757   5.507 -0.4617 -0.1764 -0.2067
 3542SOL     OW12066   2.509   1.448   7.073  0.3857 -0.0998  0.9480
 3542SOL    HW112067   2.496   1.502   6.995 -0.7348 -1.2046  0.3317
 3542SOL    HW212068   2.514   1.510   7.145 -0.5915  0.8524  0.2222
 3543SOL     OW12069   2.119   1.598   3.870  0.8092 -0.2522 -0.0275
 3543SOL    HW112070   2.173   1.676   3.856  1.6330 -0.8566 -0.2472
 3543SOL    HW212071   2.129   1.579   3.963  0.7718 -0.2244 -0.0175
 3544SOL     OW12072   5.191   2.865   0.798  0.0840  0.0114  0.6239
 3544SOL    HW112073   5.108   2.872   0.844 -1.3775 -0.5286 -1.7478
 3544SOL    HW212074   5.208   2.953   0.766  0.6084  0.1804  1.3324
 3545SOL     OW12075   3.792   4.708   3.892 -0.8008  0.2141  0.6948
 3545SOL    HW112076   3.774   4.790   3.938  1.0475 -0.0259  1.9831
 3545SOL    HW212077   3.716   4.653   3.911 -1.1261  0.9191  1.5637
 3546SOL     OW12078   5.248   0.750   7.565  0.0845 -0.0250 -0.0886
 3546SOL    HW112079   5.334   0.778   7.598  0.0879  0.2713 -0.3486
 3546SOL    HW212080   5.246   0.656   7.582  0.5794 -0.0872 -0.3340
 3547SOL     OW12081   2.584   4.689   2.123 -0.5050 -0.2410  0.2941
 3547SOL    HW112082   2.554   4.681   2.214 -0.0479 -0.7185  0.4036
 3547SOL    HW212083   2.531   4.760   2.087  0.3138  0.9743  1.3608
 3548SOL     OW12084   6.629   5.264   2.425  0.0442 -0.0433 -0.3169
 3548SOL    HW112085   6.601   5.340   2.476 -0.8020 -0.6580  0.1691
 3548SOL    HW212086   6.711   5.237   2.466  0.4808  0.7484 -0.6514
 3549SOL     OW12087   7.800   4.327   7.845 -0.5965 -0.0774  0.1486
 3549SOL    HW112088   7.842   4.330   7.931  1.6005  1.5630 -0.8964
 3549SOL    HW212089   7.802   4.235   7.820  0.2207 -0.3573  1.1769
 3550SOL     OW12090   5.352   1.640   4.834  0.2509 -0.9157 -0.4939
 3550SOL    HW112091   5.353   1.579   4.907  4.1314  0.6962  1.0761
 3550SOL    HW212092   5.432   1.620   4.784 -0.2504  0.5553 -2.0062
 3551SOL     OW12093   5.805   2.652   7.693  0.0917  0.7547 -0.1883
 3551SOL    HW112094   5.889   2.692   7.715 -0.0132  0.1799  1.3546
 3551SOL    HW212095   5.784   2.687   7.606  1.1930  2.0848  0.0448
 3552SOL     OW12096   1.296   6.113  12.157 -0.2106 -0.1574 -0.8562
 3552SOL    HW112097   1.321   6.166  12.233 -0.4651  2.0854 -2.2624
 3552SOL    HW212098   1.215   6.153  12.125 -0.8511 -1.9160 -1.5358
 3553SOL     OW12099   7.740   1.719   9.955 -0.4931  0.5985  0.1717
 3553SOL    HW112100   7.703   1.753   9.874 -0.4902  0.0168 -0.0724
 3553SOL    HW212101   7.675   1.741  10.022 -0.4770  1.1119  0.0217
 3554SOL     OW12102   4.542   4.383  10.023 -0.1326  0.2358 -0.2553
 3554SOL    HW112103   4.452   4.375   9.991 -0.3246 -0.8746  0.4919
 3554SOL    HW212104   4.565   4.294  10.050  1.1076  0.5591 -0.2063
 3555SOL     OW12105   6.270   1.542   2.180 -0.1534  0.2697  0.2744
 3555SOL    HW112106   6.268   1.632   2.212  1.2095 -0.0120  1.2686
 3555SOL    HW212107   6.267   1.550   2.085  1.2554  1.4466  0.2978
 3556SOL     OW12108   7.841   5.537   0.184 -0.0255 -0.3159 -0.1486
 3556SOL    HW112109   7.753   5.575   0.185 -0.2256 -0.7774  0.0290
 3556SOL    HW212110   7.829   5.449   0.219  0.7071  0.0713  1.1497
 3557SOL     OW12111   4.902   5.224  11.802  0.0359  0.1283  0.5021
 3557SOL    HW112112   4.812   5.212  11.831 -0.0079  0.0558  0.3330
 3557SOL    HW212113   4.904   5.312  11.763 -0.7851 -1.0999 -2.5893
 3558SOL     OW12114   7.175   0.557  11.339  0.0093 -0.2989 -0.4386
 3558SOL    HW112115   7.235   0.528  11.408 -0.2490 -0.3851 -0.2450
 3558SOL    HW212116   7.229   0.608  11.279  0.1412  0.2125  0.1060
 3559SOL     OW12117   3.565   6.242   8.159  0.0634 -0.2351 -0.1535
 3559SOL    HW112118   3.487   6.273   8.114 -0.6957 -0.2651  1.0909
 3559SOL    HW212119   3.568   6.293   8.240  1.1216 -0.4931 -0.0161
 3560SOL     OW12120   4.519   3.282   4.895  0.0763 -0.6073 -0.2964
 3560SOL    HW112121   4.554   3.350   4.952  3.1479 -1.5769 -0.8277
 3560SOL    HW212122   4.531   3.317   4.806 -2.6483 -0.0069 -0.5001
 3561SOL     OW12123   6.166   4.015   6.656 -0.6347 -0.2098  0.1568
 3561SOL    HW112124   6.179   4.033   6.563 -0.4670 -0.1640  0.1887
 3561SOL    HW212125   6.131   3.926   6.658  0.5298 -0.6872  0.1149
 3562SOL     OW12126   1.872   3.571   8.455  0.2960 -0.2848  0.0933
 3562SOL    HW112127   1.867   3.666   8.443 -1.1560  0.1716  3.2308
 3562SOL    HW212128   1.961   3.556   8.487  0.9858 -0.2399 -1.6917
 3563SOL     OW12129   5.379   7.222   9.310 -0.3450  0.5341 -0.0199
 3563SOL    HW112130   5.449   7.224   9.244  0.1582  0.5046  0.5089
 3563SOL    HW212131   5.299   7.208   9.259  0.2501 -1.6079 -0.4622
 3564SOL     OW12132   5.282   6.115  11.725  0.0722 -0.2399  0.1159
 3564SOL    HW112133   5.251   6.125  11.635  1.6635  3.1247 -0.2100
 3564SOL    HW212134   5.216   6.060  11.767 -2.4027  0.6408 -2.3111
 3565SOL     OW12135   0.144   7.441   4.232  0.2787 -0.6671  0.3212
 3565SOL    HW112136   0.234   7.447   4.199 -0.2751  1.7711 -0.9739
 3565SOL    HW212137   0.092   7.490   4.169 -2.4102 -3.9205 -0.2370
 3566SOL     OW12138   7.627   5.943   7.688 -0.4045 -0.7421  0.1624
 3566SOL    HW112139   7.619   6.024   7.738  1.9710 -1.0519  1.1650
 3566SOL    HW212140   7.625   5.874   7.754 -1.1354 -1.4468 -0.5647
 3567SOL     OW12141   6.678   2.416   3.729 -0.1269  0.2859  0.7306
 3567SOL    HW112142   6.688   2.411   3.634 -0.1169  3.8985  0.4279
 3567SOL    HW212143   6.767   2.408   3.763  0.0093  0.2723  0.3726
 3568SOL     OW12144   5.942   1.121   4.370  0.4215  0.1111 -0.2183
 3568SOL    HW112145   5.990   1.041   4.389  2.0453  0.9617 -0.6219
 3568SOL    HW212146   5.884   1.098   4.297  0.8184 -0.7119 -0.2794
 3569SOL     OW12147   5.893   5.689   0.651  0.5445  0.2131  0.8879
 3569SOL    HW112148   5.949   5.624   0.692  0.0440 -1.3430 -0.7590
 3569SOL    HW212149   5.806   5.649   0.648  0.0746  1.2138  0.4012
 3570SOL     OW12150   3.393   2.000   6.286  0.4789  0.3971 -0.0628
 3570SOL    HW112151   3.299   2.012   6.299  0.5640  0.3038  0.6284
 3570SOL    HW212152   3.430   2.088   6.291  0.6712  0.2540  1.6540
 3571SOL     OW12153   7.478   5.010   3.915  0.1651  1.0529  0.2549
 3571SOL    HW112154   7.396   4.966   3.892  0.7521  0.7468 -1.3527
 3571SOL    HW212155   7.470   5.098   3.877  0.0182  1.5165  1.3209
 3572SOL     OW12156   5.414   4.020  10.875 -0.0182 -0.0031  0.1669
 3572SOL    HW112157   5.496   4.060  10.905 -0.4047  0.1558  1.0279
 3572SOL    HW212158   5.368   4.092  10.831 -0.5292  0.4142  1.3509
 3573SOL     OW12159   4.130   1.081   4.554 -0.5476 -0.0613 -0.2956
 3573SOL    HW112160   4.217   1.109   4.583  0.2563 -2.5873 -0.0775
 3573SOL    HW212161   4.091   1.041   4.632 -0.9573 -1.0404 -0.9873
 3574SOL     OW12162   2.368   7.745   1.776  0.0956  0.4310 -0.2523
 3574SOL    HW112163   2.386   7.839   1.788  0.2761  0.3975 -0.2655
 3574SOL    HW212164   2.439   7.714   1.721 -0.3888  0.4491 -0.9011
 3575SOL     OW12165   2.077   4.047   2.890 -0.1034  0.2753 -0.1366
 3575SOL    HW112166   2.126   3.966   2.880 -1.2893 -0.4099 -0.7106
 3575SOL    HW212167   2.060   4.077   2.801 -0.5933  0.5628  0.0439
 3576SOL     OW12168   6.116   4.773   2.552 -0.2265 -0.2910  0.3935
 3576SOL    HW112169   6.182   4.835   2.583 -1.6114  0.9309  1.0230
 3576SOL    HW212170   6.075   4.817   2.478 -0.7362 -0.7654  0.3849
 3577SOL     OW12171   3.756   0.996   1.413  0.3927  0.6449 -0.1536
 3577SOL    HW112172   3.668   1.031   1.430  0.3835  0.3512  0.4076
 3577SOL    HW212173   3.743   0.933   1.342 -0.2994 -1.2864  1.5803
 3578SOL     OW12174   7.550   1.725   0.801 -0.6472 -0.2080 -0.3965
 3578SOL    HW112175   7.616   1.792   0.782 -1.2407  0.3703 -0.4707
 3578SOL    HW212176   7.586   1.675   0.874 -0.1613  0.1568 -0.3833
 3579SOL     OW12177   2.832   1.490   3.949  0.3075 -0.5885 -0.5911
 3579SOL    HW112178   2.892   1.423   3.916 -1.6178 -1.4728 -2.5737
 3579SOL    HW212179   2.816   1.546   3.873 -1.9440 -0.8640 -0.3784
 3580SOL     OW12180   7.762   2.208   1.968 -0.1291 -0.1888 -0.4265
 3580SOL    HW112181   7.852   2.189   1.993  0.4133  1.5497 -0.9219
 3580SOL    HW212182   7.769   2.248   1.881 -1.1855  1.6023  0.2585
 3581SOL     OW12183   4.393   2.588  11.719  0.5778  0.7433  0.0151
 3581SOL    HW112184   4.429   2.588  11.631  1.5826 -0.0386  0.4013
 3581SOL    HW212185   4.426   2.507  11.758 -0.2861  0.8186  0.9316
 3582SOL     OW12186   3.805   6.542  10.130 -0.1822  1.0558  0.2280
 3582SOL    HW112187   3.744   6.526  10.202 -0.2117  0.8089  0.1491
 3582SOL    HW212188   3.782   6.629  10.098 -1.3995  0.4360 -0.6840
 3583SOL     OW12189   4.767   5.415   2.663 -0.1357 -0.1335 -0.1511
 3583SOL    HW112190   4.697   5.382   2.719 -0.4357  0.7833  0.0203
 3583SOL    HW212191   4.846   5.374   2.698 -0.3457  0.2721  0.8249
 3584SOL     OW12192   7.626   7.282   1.667 -0.3387 -0.2206 -0.4614
 3584SOL    HW112193   7.612   7.369   1.703 -0.7917 -0.3367 -0.3509
 3584SOL    HW212194   7.565   7.276   1.594 -0.5704 -0.5807 -0.2387
 3585SOL     OW12195   3.854   6.099   4.455  0.2095  0.3729  0.0276
 3585SOL    HW112196   3.934   6.051   4.476 -1.0490 -1.7891  0.2094
 3585SOL    HW212197   3.813   6.048   4.385 -1.2318  1.1436  0.2572
 3586SOL     OW12198   6.538   0.225   7.474  0.5074 -0.8814  0.2893
 3586SOL    HW112199   6.561   0.218   7.382  0.9460 -0.4128  0.3599
 3586SOL    HW212200   6.497   0.141   7.495  0.6892 -1.1080 -0.2478
 3587SOL     OW12201   6.663   7.961   6.338  0.4282  0.4672  0.1352
 3587SOL    HW112202   6.719   7.897   6.383  1.1353 -0.8881 -2.4943
 3587SOL    HW212203   6.722   8.033   6.317  0.7215 -0.0106 -0.7445
 3588SOL     OW12204   5.809   4.131   3.550  0.4263  0.3151 -0.1765
 3588SOL    HW112205   5.746   4.059   3.540 -1.6152  1.8816  0.7664
 3588SOL    HW212206   5.830   4.131   3.643  2.6424 -0.7472 -0.6004
 3589SOL     OW12207   0.833   3.535   4.449 -0.4481 -0.6620  0.0758
 3589SOL    HW112208   0.772   3.578   4.389 -0.8012 -1.5746 -0.2261
 3589SOL    HW212209   0.798   3.447   4.461  0.9212 -1.2845 -0.2685
 3590SOL     OW12210   1.917   4.956  12.049  0.0611  0.1401 -0.3902
 3590SOL    HW112211   1.935   4.899  11.974 -0.4971 -0.3347 -0.1728
 3590SOL    HW212212   1.831   4.994  12.029  1.1443  2.2395 -1.3449
 3591SOL     OW12213   2.478   0.435  10.761  0.4320  0.3433  0.3543
 3591SOL    HW112214   2.491   0.509  10.820  1.8610 -1.0990  1.9387
 3591SOL    HW212215   2.542   0.448  10.691  0.9074  0.4488  0.8014
 3592SOL     OW12216   3.645   5.013  12.377 -0.7577 -0.4171  0.1263
 3592SOL    HW112217   3.591   4.953  12.325 -0.4582 -0.6106  0.0355
 3592SOL    HW212218   3.639   4.980  12.466 -0.3242 -0.7885  0.0248
 3593SOL     OW12219   1.411   6.657  11.432 -1.1801  0.2723  0.4187
 3593SOL    HW112220   1.407   6.684  11.524  1.1234 -0.8797  0.9449
 3593SOL    HW212221   1.457   6.573  11.434 -0.4067  0.5715 -1.8446
 3594SOL     OW12222   7.689   5.613   2.385 -0.5581 -0.0402  0.2861
 3594SOL    HW112223   7.670   5.701   2.353  0.9959  0.1672 -0.1781
 3594SOL    HW212224   7.711   5.563   2.306 -2.0988 -1.0474  0.4692
 3595SOL     OW12225   2.893   4.951   9.100  0.1042  0.7690  0.0529
 3595SOL    HW112226   2.865   5.007   9.172 -0.2979  0.7819 -0.1068
 3595SOL    HW212227   2.811   4.923   9.059  0.3277  2.6104 -1.8205
 3596SOL     OW12228   6.431   6.939   1.635  0.1061 -0.3976 -0.4696
 3596SOL    HW112229   6.505   6.937   1.574  0.4301 -0.2207 -0.0865
 3596SOL    HW212230   6.469   6.915   1.720 -0.1658  0.2189 -0.1675
 3597SOL     OW12231   0.829   2.384   3.268  0.6819 -0.5729 -0.0318
 3597SOL    HW112232   0.744   2.427   3.263  0.0878 -1.6697  0.2051
 3597SOL    HW212233   0.892   2.455   3.259 -0.2408  0.0675 -1.8811
 3598SOL     OW12234   0.312   5.508   0.695 -0.3175  0.1894  0.6084
 3598SOL    HW112235   0.360   5.426   0.705 -1.4744 -0.5651  0.2500
 3598SOL    HW212236   0.343   5.543   0.611  1.6813  1.1969  1.7044
 3599SOL     OW12237   4.580   3.227   8.097  0.1626 -0.0003  0.3363
 3599SOL    HW112238   4.607   3.319   8.105 -2.7332  0.9098  0.9786
 3599SOL    HW212239   4.497   3.223   8.145 -0.5996 -2.5925 -1.0264
 3600SOL     OW12240   0.458   3.952   8.871 -0.6291  0.3717  0.2599
 3600SOL    HW112241   0.481   4.045   8.880  0.0870  0.2854 -0.5112
 3600SOL    HW212242   0.369   3.952   8.836 -0.9432  0.7502  1.0352
 3601SOL     OW12243   1.473   3.046   8.747 -0.0659 -0.7048  0.0688
 3601SOL    HW112244   1.483   3.003   8.662 -0.3235 -1.9867  0.6743
 3601SOL    HW212245   1.461   3.139   8.725 -0.7894 -1.1035 -1.3207
 3602SOL     OW12246   4.701   4.121  11.866 -0.2775  0.5985  0.0103
 3602SOL    HW112247   4.753   4.065  11.923  1.0981  0.1167 -1.6295
 3602SOL    HW212248   4.667   4.062  11.799  0.7322  1.5725 -1.4297
 3603SOL     OW12249   2.375   3.324  10.866  0.0084  0.6053 -0.2099
 3603SOL    HW112250   2.339   3.269  10.935 -1.5902  1.7907 -0.0266
 3603SOL    HW212251   2.305   3.329  10.801  1.0253  0.5005 -1.3520
 3604SOL     OW12252   1.994   0.606   3.077 -0.0470 -0.5444  0.4261
 3604SOL    HW112253   1.996   0.573   2.987 -0.5228 -2.0397  0.9405
 3604SOL    HW212254   1.902   0.598   3.103  0.2731 -1.1354  1.4040
 3605SOL     OW12255   5.470   5.469  10.070  0.2706  0.2348  0.2523
 3605SOL    HW112256   5.497   5.404  10.134 -0.7540 -0.2438  0.2143
 3605SOL    HW212257   5.446   5.418   9.992  1.5123  0.8054 -0.5398
 3606SOL     OW12258   0.556   6.082   0.207  0.3198  0.4136  0.0726
 3606SOL    HW112259   0.633   6.042   0.167 -0.9401 -0.2982 -1.8088
 3606SOL    HW212260   0.505   6.115   0.132 -0.2421  2.7112  1.3583
 3607SOL     OW12261   1.626   7.905   6.086  0.6874 -0.6228  0.2462
 3607SOL    HW112262   1.578   7.933   6.008 -0.2330 -0.1976  0.9569
 3607SOL    HW212263   1.688   7.976   6.103  1.3582 -1.0149 -0.4647
 3608SOL     OW12264   5.253   5.527   3.279 -0.0698 -0.7040  0.2307
 3608SOL    HW112265   5.303   5.607   3.297  0.2031 -0.8112 -0.0366
 3608SOL    HW212266   5.182   5.528   3.343 -0.0708 -0.2440  0.2253
 3609SOL     OW12267   4.782   6.557   9.141 -0.5369 -0.0160  0.3685
 3609SOL    HW112268   4.868   6.582   9.173 -1.0503 -0.5472  2.3256
 3609SOL    HW212269   4.794   6.540   9.048  0.6858  3.4816 -0.2600
 3610SOL     OW12270   1.297   6.492  12.062  0.5454 -0.6857 -0.3376
 3610SOL    HW112271   1.217   6.524  12.020  1.3742 -0.3378 -1.6924
 3610SOL    HW212272   1.350   6.571  12.076  0.5996 -0.8879  0.7387
 3611SOL     OW12273   4.601   5.828  11.631 -0.2114 -0.1809 -0.2866
 3611SOL    HW112274   4.562   5.886  11.698 -0.4469 -0.2496 -0.3628
 3611SOL    HW212275   4.627   5.750  11.680 -0.2739 -0.1813 -0.2531
 3612SOL     OW12276   3.446   6.708   7.827  0.4834  0.0029 -0.3330
 3612SOL    HW112277   3.527   6.703   7.776  0.8505  2.1670 -0.0292
 3612SOL    HW212278   3.476   6.719   7.918 -0.1733 -2.5204  0.2675
 3613SOL     OW12279   6.927   1.417  11.852 -0.2994  0.2883  0.2798
 3613SOL    HW112280   7.012   1.382  11.878 -0.4547 -1.1104 -0.9829
 3613SOL    HW212281   6.867   1.388  11.921 -0.3116 -1.4722 -0.4474
 3614SOL     OW12282   0.183   5.398   9.777  0.4151  0.4177 -0.6733
 3614SOL    HW112283   0.189   5.415   9.872  0.2579  0.1031 -0.6091
 3614SOL    HW212284   0.189   5.303   9.769 -1.8767  0.2377 -0.8123
 3615SOL     OW12285   0.622   1.805   5.626  0.3885  0.2236  0.1908
 3615SOL    HW112286   0.680   1.810   5.550  0.9893 -1.0924  0.5387
 3615SOL    HW212287   0.639   1.886   5.674  0.2474  0.9168 -0.8904
 3616SOL     OW12288   4.076   1.147  10.624  0.1833  0.3381  0.3571
 3616SOL    HW112289   4.146   1.083  10.632 -1.6276 -1.7960 -0.0108
 3616SOL    HW212290   4.078   1.196  10.707 -0.0517 -2.0229  1.8442
 3617SOL     OW12291   5.636   4.873   2.592  1.0069  0.3293  0.1497
 3617SOL    HW112292   5.682   4.885   2.675  1.0058 -0.3091  0.2418
 3617SOL    HW212293   5.547   4.904   2.610  0.5855 -1.2122  0.8306
 3618SOL     OW12294   0.693   7.144   7.709  0.4568  0.1297  1.0600
 3618SOL    HW112295   0.784   7.152   7.739  1.3350  1.2202 -1.6165
 3618SOL    HW212296   0.666   7.234   7.690 -0.7600 -0.3022  0.6742
 3619SOL     OW12297   2.505   0.864   9.942  0.1523  0.0139 -0.5625
 3619SOL    HW112298   2.509   0.830  10.031 -0.7907 -0.7860 -0.8024
 3619SOL    HW212299   2.589   0.906   9.928  0.2291  0.3495  0.7830
 3620SOL     OW12300   1.659   1.602  11.414 -0.1939 -0.0422 -0.1453
 3620SOL    HW112301   1.659   1.599  11.319 -0.0854 -0.0052 -0.1459
 3620SOL    HW212302   1.582   1.550  11.440  0.0412 -0.4444 -0.2421
 3621SOL     OW12303   6.977   3.411   4.693 -0.1232 -1.0161 -0.3379
 3621SOL    HW112304   7.005   3.341   4.752  0.8887  1.0312  1.7752
 3621SOL    HW212305   6.905   3.454   4.740 -0.8102 -0.6706 -1.6514
 3622SOL     OW12306   1.789   2.531   1.882 -0.5684  0.0875 -0.3078
 3622SOL    HW112307   1.845   2.472   1.831 -0.4093  0.2408 -0.3101
 3622SOL    HW212308   1.730   2.570   1.817 -1.7424 -1.2567 -0.1011
 3623SOL     OW12309   7.665   5.312  12.269  0.1286 -0.2830  0.1208
 3623SOL    HW112310   7.722   5.383  12.299  1.2523 -0.4777 -1.4026
 3623SOL    HW212311   7.593   5.357  12.224  0.3656 -0.0709 -0.0557
 3624SOL     OW12312   7.118   5.527   5.150 -0.3100 -0.0651  0.0560
 3624SOL    HW112313   7.181   5.491   5.213 -0.3961  1.8025  1.2824
 3624SOL    HW212314   7.103   5.455   5.088  1.3693 -1.2795  0.9576
 3625SOL     OW12315   3.823   4.110   7.608 -0.6622 -0.0177  0.5036
 3625SOL    HW112316   3.805   4.192   7.562  1.4997 -0.0784 -0.5736
 3625SOL    HW212317   3.750   4.052   7.585 -1.9063  1.3669  0.8056
 3626SOL     OW12318   7.551   0.023   0.087 -0.1886  0.2664  0.2254
 3626SOL    HW112319   7.507   0.090   0.034 -0.9299 -0.7616 -0.5005
 3626SOL    HW212320   7.534  -0.059   0.041  1.1378 -0.3739  0.8177
 3627SOL     OW12321   2.303   7.057  12.417  0.5824  0.1433 -0.8757
 3627SOL    HW112322   2.390   7.079  12.450  1.0706 -0.2561 -1.8867
 3627SOL    HW212323   2.276   7.134  12.367 -0.1735  0.7606  0.4017
 3628SOL     OW12324   2.371   3.561   2.600 -0.1730  0.5398 -0.4771
 3628SOL    HW112325   2.410   3.648   2.607 -0.6279  0.7666 -0.7382
 3628SOL    HW212326   2.366   3.545   2.506 -3.3609  1.7318 -0.6000
 3629SOL     OW12327   2.673   3.533   2.951 -0.1689 -0.4157  0.3019
 3629SOL    HW112328   2.682   3.603   2.887  0.1499 -1.4155 -0.7750
 3629SOL    HW212329   2.579   3.523   2.964 -0.2306 -0.1893  0.0100
 3630SOL     OW12330   5.756   5.028   1.774 -0.1190 -0.4639  0.2902
 3630SOL    HW112331   5.693   5.082   1.726 -1.2903 -2.2867 -0.3274
 3630SOL    HW212332   5.704   4.985   1.842  0.8479 -0.5218  1.0092
 3631SOL     OW12333   3.457   7.887  10.565  0.2309  0.0229  0.2103
 3631SOL    HW112334   3.508   7.968  10.563 -1.4300  1.0753 -1.3571
 3631SOL    HW212335   3.379   7.908  10.616 -1.5724  0.3444 -2.4935
 3632SOL     OW12336   4.644   7.473  10.321 -0.1470 -0.6533 -0.0968
 3632SOL    HW112337   4.660   7.514  10.236 -1.3304 -1.8728 -0.9376
 3632SOL    HW212338   4.728   7.432  10.344 -0.0623 -1.0625 -1.1014
 3633SOL     OW12339   7.801   2.987   1.220  0.5042 -0.3525  0.6753
 3633SOL    HW112340   7.712   2.955   1.202  0.2864 -0.2342  1.5099
 3633SOL    HW212341   7.853   2.907   1.233  0.9003 -0.4892 -1.4124
 3634SOL     OW12342   4.974   2.720  10.310  0.6158 -0.2574  0.2193
 3634SOL    HW112343   4.960   2.813  10.329 -1.6224 -0.9114  2.2632
 3634SOL    HW212344   4.887   2.685  10.295  1.3761 -2.1078 -0.1241
 3635SOL     OW12345   7.648   4.239   3.871 -0.5855  0.5399 -0.6943
 3635SOL    HW112346   7.734   4.210   3.839 -1.0521 -1.0102 -0.6563
 3635SOL    HW212347   7.622   4.308   3.810 -0.4390 -0.7781 -2.3534
 3636SOL     OW12348   0.607   1.143   0.469  0.0643 -0.2076 -0.0502
 3636SOL    HW112349   0.613   1.205   0.542  1.0260  0.5717 -0.7692
 3636SOL    HW212350   0.634   1.059   0.506 -3.7647 -0.9062  1.6502
 3637SOL     OW12351   0.202   1.869   8.056  0.0243  0.1448 -0.1896
 3637SOL    HW112352   0.185   1.953   8.099  1.1166  0.0594  0.4447
 3637SOL    HW212353   0.198   1.805   8.126  0.5988 -0.1546 -0.4277
 3638SOL     OW12354   6.820   2.939   8.708  0.0532  0.2384 -0.2979
 3638SOL    HW112355   6.910   2.913   8.727  0.5458  1.4590 -0.8632
 3638SOL    HW212356   6.804   2.909   8.619  0.1621  0.6675 -0.4645
 3639SOL     OW12357   1.687   1.501   9.472 -0.0045 -0.0777  0.0782
 3639SOL    HW112358   1.773   1.499   9.430 -0.6822  0.2788 -1.4008
 3639SOL    HW212359   1.678   1.415   9.513  0.6801 -0.4785 -0.5795
 3640SOL     OW12360   3.272   3.822  10.620 -0.6742  0.2605 -0.1490
 3640SOL    HW112361   3.268   3.726  10.626 -0.7630  0.3537  1.8629
 3640SOL    HW212362   3.196   3.846  10.568 -0.1896 -0.7947 -1.4006
 3641SOL     OW12363   5.411   4.043   3.636 -0.4278  0.3086 -0.2859
 3641SOL    HW112364   5.346   4.111   3.622 -1.3311 -0.1478  1.3906
 3641SOL    HW212365   5.481   4.086   3.684 -0.4312  0.3393 -0.3089
 3642SOL     OW12366   5.623   4.148  11.603 -0.4120 -0.0616 -0.1055
 3642SOL    HW112367   5.584   4.133  11.516  1.2563  1.2196 -1.1296
 3642SOL    HW212368   5.555   4.196  11.651 -2.1103 -2.4224  0.0364
 3643SOL     OW12369   1.295   7.351   8.068  0.1908 -0.3739  0.5153
 3643SOL    HW112370   1.375   7.354   8.017  0.0447 -1.0843  0.2433
 3643SOL    HW212371   1.263   7.442   8.067 -0.1275 -0.4724 -1.1549
 3644SOL     OW12372   3.016   6.235   4.944 -0.1805 -0.4700  0.1878
 3644SOL    HW112373   3.044   6.152   4.906 -0.9166 -0.5802 -0.1407
 3644SOL    HW212374   3.083   6.256   5.009 -0.3068 -1.6310  0.7109
 3645SOL     OW12375   6.249   1.448   4.665  0.2916  0.0711  0.3486
 3645SOL    HW112376   6.298   1.459   4.584 -0.1708 -0.6988 -0.0447
 3645SOL    HW212377   6.243   1.353   4.678 -0.4706  0.1593  0.7571
 3646SOL     OW12378   2.167   5.564   8.885  0.2414 -0.3440 -0.2195
 3646SOL    HW112379   2.202   5.519   8.808  2.0049 -0.9196  0.8761
 3646SOL    HW212380   2.077   5.531   8.892 -0.1840  0.1966 -2.3550
 3647SOL     OW12381   7.194   5.387   2.973  0.5372 -0.0881  0.1986
 3647SOL    HW112382   7.282   5.404   3.007  0.9648  2.2792 -1.7376
 3647SOL    HW212383   7.156   5.474   2.960 -1.6185 -1.0189 -0.1995
 3648SOL     OW12384   4.323   5.653  12.276 -0.5570  0.0439  0.4458
 3648SOL    HW112385   4.260   5.625  12.210 -0.5574 -0.4601  0.6531
 3648SOL    HW212386   4.367   5.572  12.303  0.3910  0.4276  0.0879
 3649SOL     OW12387   1.808   7.384   7.900  0.1410 -0.2750 -0.3653
 3649SOL    HW112388   1.803   7.456   7.837  0.2279 -0.5333 -0.6679
 3649SOL    HW212389   1.900   7.382   7.927  0.2139 -0.4924 -0.6195
 3650SOL     OW12390   6.297   5.333   4.336 -0.4272  0.0810 -0.2501
 3650SOL    HW112391   6.321   5.334   4.428 -1.5253 -0.3072  0.0440
 3650SOL    HW212392   6.243   5.255   4.325 -1.6387  0.9732 -0.8688
 3651SOL     OW12393   3.688   5.297   2.884  0.0314 -0.1238  0.3554
 3651SOL    HW112394   3.765   5.334   2.842  0.3307  0.7064  1.5671
 3651SOL    HW212395   3.642   5.373   2.921 -0.5967 -0.7378  0.8768
 3652SOL     OW12396   4.310   5.628   7.259 -0.4814  0.2169  0.6004
 3652SOL    HW112397   4.339   5.695   7.322  1.0337  0.5867 -0.4337
 3652SOL    HW212398   4.391   5.590   7.226 -1.2983 -2.5729  1.5586
 3653SOL     OW12399   2.779   2.853   1.685  0.1781  0.2131  0.0686
 3653SOL    HW112400   2.834   2.804   1.746  1.0896  2.1716  0.8821
 3653SOL    HW212401   2.827   2.853   1.603  1.6873  2.2530  0.8783
 3654SOL     OW12402   3.900   2.181   9.991  0.4570  0.7472  0.0724
 3654SOL    HW112403   3.817   2.174   9.946  0.4474 -0.0682  0.1954
 3654SOL    HW212404   3.923   2.274   9.987  0.4529  0.7050 -1.5822
 3655SOL     OW12405   6.631   4.576   0.145  0.1478  0.8926 -0.0779
 3655SOL    HW112406   6.671   4.574   0.232 -0.3266  1.6364  0.1680
 3655SOL    HW212407   6.616   4.669   0.128 -1.1053  0.6626 -0.3234
 3656SOL     OW12408   0.196   4.028   8.873 -0.5891  0.2805 -0.0761
 3656SOL    HW112409   0.178   4.117   8.843 -2.4196  0.7728  2.2346
 3656SOL    HW212410   0.153   4.022   8.958 -1.1637 -3.0670 -0.4784
 3657SOL     OW12411   4.074   1.471   4.024 -0.2795  0.2292 -0.5930
 3657SOL    HW112412   4.065   1.561   3.994 -2.7313 -0.3743 -1.9503
 3657SOL    HW212413   4.091   1.421   3.945  2.0264 -0.4677  0.2605
 3658SOL     OW12414   7.309   0.613   0.395  0.8523  0.1993  0.6903
 3658SOL    HW112415   7.298   0.529   0.351 -1.0407  0.5260  0.4690
 3658SOL    HW212416   7.350   0.670   0.329  2.8133 -0.6787  1.0648
 3659SOL     OW12417   5.738   7.886   9.970 -0.1811 -0.3221 -0.0573
 3659SOL    HW112418   5.671   7.938  10.015  0.4879  0.5450 -0.0296
 3659SOL    HW212419   5.689   7.835   9.905 -0.7030  1.6428 -1.2900
 3660SOL     OW12420   6.555   4.266  12.053 -0.3786  0.3858  0.0691
 3660SOL    HW112421   6.505   4.334  12.100 -0.4019 -0.5011  1.3574
 3660SOL    HW212422   6.497   4.190  12.052  1.3288 -1.1063  2.7360
 3661SOL     OW12423   0.600   6.923   9.039  0.5137 -0.4250 -0.1946
 3661SOL    HW112424   0.606   6.948   8.947  1.0516 -0.4723 -0.1775
 3661SOL    HW212425   0.645   6.994   9.085 -1.1997  0.4600  0.1891
 3662SOL     OW12426   5.279   4.073   8.106  0.2649  0.2252 -0.6775
 3662SOL    HW112427   5.267   4.156   8.060 -0.4056  0.1678 -0.6081
 3662SOL    HW212428   5.261   4.006   8.040 -3.2017  0.1115  0.2172
 3663SOL     OW12429   2.194   1.896   5.257 -0.2000 -0.1900 -0.0028
 3663SOL    HW112430   2.274   1.927   5.214 -0.7518  0.8182 -0.3528
 3663SOL    HW212431   2.224   1.863   5.342  0.4815  1.2831  0.3821
 3664SOL     OW12432   2.496   4.099   2.880  0.0250 -0.7101  0.6130
 3664SOL    HW112433   2.463   4.028   2.936  3.4211 -1.2613  2.1231
 3664SOL    HW212434   2.451   4.177   2.913 -1.8002 -1.7134  0.6703
 3665SOL     OW12435   2.725   3.370   5.712 -0.6178  0.4093  0.7939
 3665SOL    HW112436   2.666   3.443   5.693 -0.0861  0.5274 -0.5542
 3665SOL    HW212437   2.802   3.411   5.753 -0.5272  0.5452  0.4889
 3666SOL     OW12438   7.410   3.806   1.505  0.0700 -0.0274 -0.8012
 3666SOL    HW112439   7.327   3.785   1.547  1.0290 -2.1785  0.2155
 3666SOL    HW212440   7.396   3.786   1.412 -0.6208 -0.1255 -0.6817
 3667SOL     OW12441   5.983   2.153   7.273 -0.2047  0.4699 -0.1886
 3667SOL    HW112442   6.005   2.225   7.332 -0.0664  1.8564 -1.8478
 3667SOL    HW212443   5.978   2.076   7.329 -1.1294  1.8935  1.7887
 3668SOL     OW12444   3.835   6.701   2.905  0.1362  0.2020  0.3256
 3668SOL    HW112445   3.797   6.772   2.957 -0.7152  0.3650 -0.4936
 3668SOL    HW212446   3.760   6.649   2.877  0.4977  0.5142 -1.3130
 3669SOL     OW12447   5.402   1.177   8.057  0.1997  0.1064 -0.2318
 3669SOL    HW112448   5.362   1.197   7.972 -2.0645  0.7782  0.8933
 3669SOL    HW212449   5.418   1.082   8.054  0.9235  0.2506 -1.6773
 3670SOL     OW12450   0.527   3.926   2.479  0.6006 -0.1040  0.4264
 3670SOL    HW112451   0.478   3.894   2.403 -2.3060  1.4151  1.5086
 3670SOL    HW212452   0.589   3.990   2.443  0.8960 -1.0759 -0.8574
 3671SOL     OW12453   0.161   5.216   7.252  0.4928 -0.2074 -0.9161
 3671SOL    HW112454   0.203   5.134   7.226 -1.3091 -0.8716 -1.9767
 3671SOL    HW212455   0.176   5.223   7.346  3.7627  0.1460 -1.3681
 3672SOL     OW12456   7.662   5.173   0.793  0.5732  0.2716  0.1859
 3672SOL    HW112457   7.657   5.201   0.702 -0.2212 -0.2874  0.0466
 3672SOL    HW212458   7.696   5.084   0.789 -2.1384 -0.8767  0.1707
 3673SOL     OW12459   5.929   1.250   0.382 -0.0468  0.3172 -0.4693
 3673SOL    HW112460   6.005   1.298   0.351  3.2342 -2.1725  2.8578
 3673SOL    HW212461   5.871   1.317   0.419  1.9726  2.1135 -0.4074
 3674SOL     OW12462   0.454   2.172   5.929 -0.3063  0.0036 -0.3494
 3674SOL    HW112463   0.391   2.104   5.952 -0.9157  0.8753  0.6227
 3674SOL    HW212464   0.449   2.178   5.833 -1.2293 -0.3751 -0.3379
 3675SOL     OW12465   5.291   5.540   1.694 -0.0064  0.4140 -0.4269
 3675SOL    HW112466   5.197   5.537   1.713  0.2937  0.2307  1.1040
 3675SOL    HW212467   5.314   5.450   1.673  0.6320 -0.5275  3.5618
 3676SOL     OW12468   5.036   1.200   6.559 -0.4861 -0.1763  0.7366
 3676SOL    HW112469   4.956   1.146   6.558 -0.4432 -0.2625 -0.7637
 3676SOL    HW212470   5.091   1.162   6.489  0.0924  1.0105  0.5276
 3677SOL     OW12471   4.707   2.655  10.282 -0.0397  0.3591  0.2905
 3677SOL    HW112472   4.690   2.572  10.237 -1.5303 -0.7001  2.5957
 3677SOL    HW212473   4.676   2.722  10.221 -0.7960 -0.9002 -0.7725
 3678SOL     OW12474   0.593   1.439   6.813 -0.7298 -0.1947 -0.0297
 3678SOL    HW112475   0.579   1.531   6.792  2.9153 -0.1272 -3.3467
 3678SOL    HW212476   0.661   1.440   6.880 -0.9823 -0.4686  0.2319
 3679SOL     OW12477   4.084   6.771   0.380 -0.6168 -0.3016 -0.0773
 3679SOL    HW112478   4.162   6.806   0.338 -0.4484  0.6538  0.9879
 3679SOL    HW212479   4.114   6.744   0.467 -1.7314  1.4624  0.9182
 3680SOL     OW12480   1.821   6.503  11.347 -0.6393 -0.1719  0.3815
 3680SOL    HW112481   1.735   6.493  11.389 -0.8094  1.7783  0.5918
 3680SOL    HW212482   1.831   6.597  11.335  1.1889 -0.4090 -0.2827
 3681SOL     OW12483   5.911   0.773   3.384  0.0822 -0.0590 -0.2270
 3681SOL    HW112484   5.853   0.849   3.386  1.1275  0.7428  0.0612
 3681SOL    HW212485   5.956   0.775   3.469  0.1003 -1.0327 -0.1951
 3682SOL     OW12486   4.039   4.916   1.850 -0.2562  0.1285  0.2522
 3682SOL    HW112487   4.119   4.876   1.817  0.2341  1.3144 -0.0408
 3682SOL    HW212488   4.068   4.977   1.917 -1.0839 -0.7421  1.4516
 3683SOL     OW12489   4.798   2.287   1.845 -0.5368  0.2243 -0.1627
 3683SOL    HW112490   4.706   2.273   1.868 -1.9165  0.2066 -4.7734
 3683SOL    HW212491   4.796   2.350   1.773  2.8866 -0.9045 -1.4559
 3684SOL     OW12492   4.325   6.459   1.950 -0.3659 -0.4252  0.0575
 3684SOL    HW112493   4.374   6.437   1.871  1.1944  1.8428  0.2945
 3684SOL    HW212494   4.245   6.501   1.918 -0.6413 -1.2066 -0.3030
 3685SOL     OW12495   1.091   2.477   2.821  0.1742 -0.4618 -0.2883
 3685SOL    HW112496   1.006   2.508   2.788  0.7737  0.1259 -1.3148
 3685SOL    HW212497   1.137   2.556   2.846  1.2742 -0.5656 -1.8470
 3686SOL     OW12498   0.489   6.079   1.185 -0.1703 -0.7583  0.0280
 3686SOL    HW112499   0.459   5.988   1.188  0.0373 -0.8193  1.9798
 3686SOL    HW212500   0.495   6.104   1.278  1.4908  0.6764 -0.4305
 3687SOL     OW12501   4.834   5.147   0.554  0.0857 -0.4835  0.4966
 3687SOL    HW112502   4.771   5.074   0.549 -0.4569 -0.0606  1.0377
 3687SOL    HW212503   4.790   5.219   0.510 -0.5871  0.3374  2.4001
 3688SOL     OW12504   0.842   6.624   9.222  0.8205 -0.1796 -0.7308
 3688SOL    HW112505   0.781   6.574   9.276 -1.2602  1.9019 -0.9871
 3688SOL    HW212506   0.877   6.692   9.280  2.4166 -0.9080 -0.7823
 3689SOL     OW12507   0.496   0.621   6.714  0.2041  0.3105  0.5375
 3689SOL    HW112508   0.544   0.691   6.668 -0.7324 -1.3893 -3.4349
 3689SOL    HW212509   0.415   0.663   6.743  0.3576  1.2955 -0.3699
 3690SOL     OW12510   4.378   0.873   2.656  0.0457 -0.4595 -0.3744
 3690SOL    HW112511   4.325   0.813   2.707 -1.2686  0.6449 -0.3871
 3690SOL    HW212512   4.424   0.818   2.593 -0.8631 -1.4758 -0.1602
 3691SOL     OW12513   5.772   7.651   2.916  0.6162  0.6074  0.2889
 3691SOL    HW112514   5.814   7.659   2.830 -0.7510 -2.0599 -0.7557
 3691SOL    HW212515   5.681   7.675   2.900  0.1226 -0.8716  0.6942
 3692SOL     OW12516   1.015   3.672   7.139  0.6484 -0.1647  0.5108
 3692SOL    HW112517   1.101   3.649   7.174  1.7931  1.1234 -1.2895
 3692SOL    HW212518   1.001   3.762   7.166  0.1301 -0.1767  0.2973
 3693SOL     OW12519   1.202   4.973  10.069  0.2813  0.2378  0.2521
 3693SOL    HW112520   1.250   4.892  10.055 -1.2892 -0.5016 -1.1189
 3693SOL    HW212521   1.203   5.017   9.985  1.0140  1.6188  0.9538
 3694SOL     OW12522   7.898   0.656   0.100  0.1012  0.6385  0.0639
 3694SOL    HW112523   7.983   0.666   0.057 -0.8220 -0.5289 -2.2196
 3694SOL    HW212524   7.895   0.564   0.127 -0.8968  0.3164 -1.0450
 3695SOL     OW12525   3.240   5.824   1.637  0.2940  0.2194  0.3112
 3695SOL    HW112526   3.160   5.845   1.588  0.2133  0.5910  0.5935
 3695SOL    HW212527   3.221   5.851   1.727  0.5903 -0.0741  0.4644
 3696SOL     OW12528   7.504   1.128   4.445  0.0169 -0.3347 -0.1177
 3696SOL    HW112529   7.518   1.119   4.539 -0.7236  1.3602  0.1959
 3696SOL    HW212530   7.495   1.038   4.413 -1.0513 -0.9050  1.6418
 3697SOL     OW12531   6.457   7.040   5.771  0.0247  0.4354 -0.0114
 3697SOL    HW112532   6.546   7.052   5.803  0.1294 -0.1224 -0.0851
 3697SOL    HW212533   6.424   7.129   5.758  0.4357  0.6477  0.3800
 3698SOL     OW12534   6.027   4.819  10.328 -0.4949  0.4436  0.1281
 3698SOL    HW112535   6.075   4.844  10.249 -0.3943 -0.9247 -0.2568
 3698SOL    HW212536   5.944   4.867  10.321 -0.3251  0.6514 -0.6071
 3699SOL     OW12537   7.897   0.158   6.487 -0.2779  0.1874  0.0185
 3699SOL    HW112538   7.910   0.066   6.508 -0.5865 -0.0875 -0.9228
 3699SOL    HW212539   7.938   0.169   6.401 -2.1154  0.3934 -0.8790
 3700SOL     OW12540   3.480   4.007   1.377 -0.2471 -0.5685 -0.3789
 3700SOL    HW112541   3.410   3.954   1.338 -0.1398 -1.5280  0.6758
 3700SOL    HW212542   3.557   3.987   1.325 -0.7388  0.5721 -1.6160
 3701SOL     OW12543   2.571   4.843   3.489  0.0888 -0.4174 -0.4784
 3701SOL    HW112544   2.480   4.871   3.502  0.0524 -0.8380  0.2488
 3701SOL    HW212545   2.580   4.834   3.394 -0.5882 -0.2417 -0.5655
 3702SOL     OW12546   3.630   6.066   2.108 -0.2358 -0.8827 -0.0835
 3702SOL    HW112547   3.720   6.075   2.078 -0.9987 -1.3628 -2.7892
 3702SOL    HW212548   3.632   6.095   2.199  2.0227  2.2714 -0.9689
 3703SOL     OW12549   1.628   4.179   6.208 -0.1250  0.1375 -0.0149
 3703SOL    HW112550   1.710   4.218   6.176 -1.2883  1.9618 -0.9087
 3703SOL    HW212551   1.631   4.191   6.303 -0.5088  2.6711 -0.2630
 3704SOL     OW12552   0.247   2.982   1.166  0.6091 -0.0887  0.1714
 3704SOL    HW112553   0.163   3.014   1.133  0.1144 -0.0965  1.3826
 3704SOL    HW212554   0.278   3.052   1.224  0.4642 -0.9247  1.2957
 3705SOL     OW12555   0.200   0.099  11.556  0.4078  0.4373  0.3596
 3705SOL    HW112556   0.170   0.187  11.538  1.2332  0.9117  1.2087
 3705SOL    HW212557   0.262   0.109  11.628  1.4980 -0.6753 -0.3895
 3706SOL     OW12558   1.633   0.175   7.835  0.4539 -0.1823 -0.7740
 3706SOL    HW112559   1.700   0.165   7.903  0.4000  0.9877 -0.5235
 3706SOL    HW212560   1.650   0.103   7.774  0.7506 -1.0170  0.2655
 3707SOL     OW12561   6.454   3.888   7.976  0.0360  0.3929 -0.0010
 3707SOL    HW112562   6.452   3.910   8.069  1.7720  0.9044 -0.0576
 3707SOL    HW212563   6.516   3.815   7.971  0.7662  1.0619 -0.8761
 3708SOL     OW12564   5.733   5.367   0.809  0.1638 -0.3098 -0.3425
 3708SOL    HW112565   5.658   5.307   0.806  0.1398 -0.2948 -0.1040
 3708SOL    HW212566   5.799   5.319   0.860 -0.7579  0.8589  2.0760
 3709SOL     OW12567   4.858   4.776   2.105 -0.1649  0.1073  0.2805
 3709SOL    HW112568   4.914   4.825   2.164 -0.1048  1.8296 -1.1453
 3709SOL    HW212569   4.831   4.839   2.039 -0.8629 -1.5642 -1.1033
 3710SOL     OW12570   5.180   6.743  11.510 -0.6072 -0.0659 -0.1264
 3710SOL    HW112571   5.236   6.799  11.456  0.5349 -1.1477 -0.1108
 3710SOL    HW212572   5.102   6.796  11.525  0.2941  1.4052 -0.3561
 3711SOL     OW12573   1.824   2.042  10.414  0.1432  0.1095 -0.6626
 3711SOL    HW112574   1.850   2.094  10.339  0.4859 -0.2342 -0.7842
 3711SOL    HW212575   1.744   2.085  10.447  0.4397  0.7233 -0.7378
 3712SOL     OW12576   7.650   5.424   5.997 -0.1990  0.2647 -0.1741
 3712SOL    HW112577   7.635   5.476   5.918  0.5478 -0.2121 -0.6335
 3712SOL    HW212578   7.601   5.471   6.066  0.4339  1.5629 -0.5859
 3713SOL     OW12579   2.802   7.475  11.266 -0.0439  0.2610 -0.4183
 3713SOL    HW112580   2.798   7.428  11.349 -1.2434  2.3700  0.8197
 3713SOL    HW212581   2.782   7.409  11.200  0.1781 -1.3226  1.0307
 3714SOL     OW12582   7.325   4.981   2.345 -0.7832  0.9088 -0.5208
 3714SOL    HW112583   7.347   5.039   2.272  2.8373  2.2402  1.3774
 3714SOL    HW212584   7.388   4.909   2.337 -0.2123  1.1659  1.3096
 3715SOL     OW12585   2.196   7.300   0.996  0.3297 -0.3012 -0.3985
 3715SOL    HW112586   2.165   7.390   0.990 -0.3800 -0.5973 -1.4118
 3715SOL    HW212587   2.285   7.308   1.031  0.3361  0.7972 -0.6272
 3716SOL     OW12588   5.807   2.569   3.597  0.2093 -0.0719 -0.0757
 3716SOL    HW112589   5.842   2.520   3.523  0.5409 -0.1933  0.1633
 3716SOL    HW212590   5.716   2.539   3.605 -0.3851  1.1842 -1.5089
 3717SOL     OW12591   7.652   6.638   7.181  0.0424  0.1924 -0.2533
 3717SOL    HW112592   7.717   6.606   7.243  1.1291  1.5743 -0.6108
 3717SOL    HW212593   7.613   6.714   7.224 -2.6052 -1.5449  0.6615
 3718SOL     OW12594   2.967   1.581   6.873 -0.1125  0.5146  0.1423
 3718SOL    HW112595   2.945   1.562   6.782  1.2566  1.2743 -0.3816
 3718SOL    HW212596   2.900   1.536   6.924 -1.3764  0.7220 -1.2579
 3719SOL     OW12597   2.391   3.682   9.145 -0.2831  0.1583 -0.1073
 3719SOL    HW112598   2.376   3.661   9.237  1.3238 -2.9915 -0.4262
 3719SOL    HW212599   2.469   3.738   9.146  0.2170 -0.5162  0.4609
 3720SOL     OW12600   4.514   5.715   6.386  0.3705  0.0791  0.0430
 3720SOL    HW112601   4.476   5.718   6.474  0.3071 -0.0401  0.0191
 3720SOL    HW212602   4.607   5.694   6.401  0.1654 -0.8795  0.0297
 3721SOL     OW12603   3.654   0.437   8.243 -0.4804 -0.0493  0.4979
 3721SOL    HW112604   3.734   0.390   8.267  0.8229  1.4326 -0.6516
 3721SOL    HW212605   3.645   0.504   8.311 -0.2391  0.3362  0.1520
 3722SOL     OW12606   7.921   3.328   4.496 -0.1724  0.3663  0.5473
 3722SOL    HW112607   7.976   3.406   4.489 -0.0688  0.3146  0.7853
 3722SOL    HW212608   7.868   3.329   4.416  1.4556 -0.5519 -0.6296
 3723SOL     OW12609   0.275   3.971   4.338 -0.1979  0.7365 -0.2789
 3723SOL    HW112610   0.367   3.986   4.315 -0.0297 -0.2921 -0.3163
 3723SOL    HW212611   0.243   4.057   4.365  1.5901  0.5914  2.6760
 3724SOL     OW12612   4.321   7.726   5.949 -0.0241 -0.5895  0.0076
 3724SOL    HW112613   4.255   7.683   6.003  1.0285 -0.0618  1.7812
 3724SOL    HW212614   4.377   7.773   6.011  1.4004 -0.1680 -1.5146
 3725SOL     OW12615   7.947   4.615   0.444  0.1707  0.2927  0.1429
 3725SOL    HW112616   8.035   4.649   0.428 -0.3754  1.7338 -0.0440
 3725SOL    HW212617   7.960   4.535   0.493  1.6580 -0.4937 -1.4165
 3726SOL     OW12618   0.307   7.255   4.819  0.2749 -0.8587  0.0596
 3726SOL    HW112619   0.317   7.185   4.883  1.0247 -0.4999  0.3408
 3726SOL    HW212620   0.230   7.230   4.768 -0.1113 -1.3321  0.8583
 3727SOL     OW12621   1.456   0.828   1.698  0.6806 -0.0847 -0.7900
 3727SOL    HW112622   1.380   0.803   1.752  1.0414 -2.0497 -1.1361
 3727SOL    HW212623   1.462   0.923   1.709 -0.4925 -0.1644  1.0083
 3728SOL     OW12624   3.313   5.257  11.420  0.2957  0.1507 -0.4718
 3728SOL    HW112625   3.285   5.316  11.350  1.0778  0.7365 -0.3063
 3728SOL    HW212626   3.356   5.313  11.484 -0.9405 -0.2930  0.8072
 3729SOL     OW12627   5.658   0.386   6.486  0.3249 -0.5307  0.0685
 3729SOL    HW112628   5.593   0.377   6.555  0.8764 -0.9851  0.5383
 3729SOL    HW212629   5.707   0.465   6.509  1.0129 -1.1102  0.6365
 3730SOL     OW12630   6.427   4.482   2.330  0.3890 -0.1696 -0.0207
 3730SOL    HW112631   6.379   4.432   2.397 -1.4037 -0.3505 -1.3768
 3730SOL    HW212632   6.404   4.440   2.247  1.3140  1.0178 -0.9182
 3731SOL     OW12633   7.095   0.054   5.174  0.7205  0.0062  0.4592
 3731SOL    HW112634   7.135   0.104   5.246 -0.8631  0.1972  1.2522
 3731SOL    HW212635   7.120  -0.037   5.191 -1.8769 -0.3665  2.9226
 3732SOL     OW12636   0.236   3.135  10.199 -0.0623  0.1009 -0.2283
 3732SOL    HW112637   0.328   3.146  10.173  0.3907 -0.6385  0.9951
 3732SOL    HW212638   0.187   3.183  10.132  1.1071 -0.7517 -1.7678
 3733SOL     OW12639   2.382   6.954   3.155 -0.5162 -0.1173 -0.4842
 3733SOL    HW112640   2.286   6.952   3.159 -0.4993 -1.5416  0.0729
 3733SOL    HW212641   2.405   6.882   3.096  0.2202 -0.4565  0.1950
 3734SOL     OW12642   3.547   4.142   2.583  0.0867  0.0023 -0.3337
 3734SOL    HW112643   3.601   4.196   2.641  1.9020  0.4082 -2.2926
 3734SOL    HW212644   3.459   4.146   2.622  1.0527  0.8643  1.9235
 3735SOL     OW12645   5.886   2.948   8.158 -0.0209 -0.1023  0.2587
 3735SOL    HW112646   5.940   2.930   8.081  0.3078 -2.2233  0.9261
 3735SOL    HW212647   5.947   2.948   8.231 -0.6252 -0.3884  0.7776
 3736SOL     OW12648   6.401   5.633   2.740  0.7478 -0.0605  0.1991
 3736SOL    HW112649   6.334   5.657   2.676 -0.3992  3.7226  2.4803
 3736SOL    HW212650   6.370   5.550   2.777 -1.8779  0.7739  0.0758
 3737SOL     OW12651   3.476   2.825   9.089  0.4810 -0.4947  0.0235
 3737SOL    HW112652   3.494   2.795   8.999  1.3125 -0.0737  0.0384
 3737SOL    HW212653   3.523   2.908   9.096 -0.1230 -0.1966  0.6447
 3738SOL     OW12654   5.324   6.501   3.444 -0.1180  0.3490 -0.8483
 3738SOL    HW112655   5.327   6.442   3.368  0.6837  0.1495 -0.6728
 3738SOL    HW212656   5.411   6.541   3.447  0.0420 -0.0449  0.2723
 3739SOL     OW12657   1.620   6.339   9.204 -0.0402 -0.2661 -0.3138
 3739SOL    HW112658   1.613   6.422   9.157 -1.5378 -0.0564  0.2165
 3739SOL    HW212659   1.606   6.272   9.137 -0.1072 -0.0415 -0.5253
 3740SOL     OW12660   0.550   5.324   0.731  0.0227  0.0063  1.0013
 3740SOL    HW112661   0.607   5.356   0.661 -0.8631 -0.6280 -0.0386
 3740SOL    HW212662   0.507   5.247   0.694 -0.7927 -0.0998  2.1047
 3741SOL     OW12663   3.886   5.390  11.080  0.0488  0.0395 -0.1010
 3741SOL    HW112664   3.841   5.473  11.063 -0.7138 -0.6078 -1.3702
 3741SOL    HW212665   3.838   5.351  11.153 -0.6620 -0.0550 -0.6088
 3742SOL     OW12666   5.631   7.272   3.257 -0.1927 -0.3955 -0.5538
 3742SOL    HW112667   5.598   7.269   3.347 -0.1038  0.2755 -0.4901
 3742SOL    HW212668   5.614   7.362   3.229 -0.0285 -0.5434 -1.1366
 3743SOL     OW12669   4.791   0.706   2.216  0.3289 -0.3468 -0.2833
 3743SOL    HW112670   4.798   0.694   2.121 -0.5722 -1.0637 -0.2754
 3743SOL    HW212671   4.855   0.774   2.236 -0.4573  0.8455 -1.6123
 3744SOL     OW12672   5.233   7.268   3.802  0.2067  0.3665 -0.1256
 3744SOL    HW112673   5.153   7.309   3.837  0.2257  0.6279 -0.3853
 3744SOL    HW212674   5.305   7.318   3.841  0.3349 -1.4088  2.0771
 3745SOL     OW12675   2.022   7.825   3.210 -0.3926 -0.1765  0.3201
 3745SOL    HW112676   1.995   7.735   3.226 -2.1450  0.5159  1.4654
 3745SOL    HW212677   2.106   7.817   3.164 -0.5665 -2.3716  0.3037
 3746SOL     OW12678   5.287   3.606   8.118  0.4115  0.4274  0.4970
 3746SOL    HW112679   5.277   3.630   8.210 -0.5228 -1.7138  1.0036
 3746SOL    HW212680   5.308   3.512   8.120  0.4881  0.3705 -1.4688
 3747SOL     OW12681   6.937   5.242   0.994  0.6651 -0.0826 -0.1001
 3747SOL    HW112682   6.975   5.163   0.956 -0.3334  0.2599 -1.9267
 3747SOL    HW212683   6.953   5.310   0.930 -0.7836  0.6171  0.2378
 3748SOL     OW12684   3.585   5.126  11.512  0.0885 -0.0607  0.0897
 3748SOL    HW112685   3.597   5.069  11.436 -0.6739  0.2957 -0.3106
 3748SOL    HW212686   3.491   5.124  11.529  0.2271  0.0329  0.8944
 3749SOL     OW12687   4.045   2.345   5.573 -0.5469  0.1604  0.3102
 3749SOL    HW112688   4.133   2.310   5.590  0.3096  1.3338 -1.3383
 3749SOL    HW212689   4.001   2.277   5.522 -0.1526  0.0479  0.1178
 3750SOL     OW12690   0.669   3.796   7.419 -0.0335 -0.0369 -0.0967
 3750SOL    HW112691   0.748   3.787   7.473  0.4550  0.8112 -0.6533
 3750SOL    HW212692   0.631   3.880   7.445 -0.5436 -0.2503 -0.1271
 3751SOL     OW12693   2.784   0.992  10.897  0.0454 -0.3610 -0.0855
 3751SOL    HW112694   2.734   0.961  10.822 -0.3537  0.4330 -0.1483
 3751SOL    HW212695   2.722   1.043  10.949  0.5932  0.0075  0.2217
 3752SOL     OW12696   7.139   7.261   5.215 -0.5710 -0.0491  0.5533
 3752SOL    HW112697   7.205   7.326   5.239 -1.3948  0.8874  0.3531
 3752SOL    HW212698   7.160   7.184   5.269  1.9215 -0.5592 -0.9710
 3753SOL     OW12699   7.509   0.907   0.619  0.3421 -0.0654  0.3917
 3753SOL    HW112700   7.590   0.955   0.637  1.5065 -2.2078  1.1414
 3753SOL    HW212701   7.533   0.844   0.551 -1.1796  0.4073 -0.6368
 3754SOL     OW12702   4.466   1.135   4.067 -0.3596 -0.4409 -0.5507
 3754SOL    HW112703   4.432   1.152   4.155  0.5825 -0.3317 -0.1956
 3754SOL    HW212704   4.405   1.071   4.030 -0.7478 -0.5125  0.1965
 3755SOL     OW12705   6.229   5.441   1.024  0.6639  0.2031 -0.1013
 3755SOL    HW112706   6.219   5.476   1.113 -1.2074  0.2679 -0.3046
 3755SOL    HW212707   6.269   5.355   1.037  1.9568  0.8859  0.6601
 3756SOL     OW12708   1.941   4.088   6.761 -0.4389  0.1402  0.4697
 3756SOL    HW112709   2.030   4.061   6.781  0.3746  0.1774 -2.5741
 3756SOL    HW212710   1.925   4.164   6.817  0.8099 -0.7939  2.1719
 3757SOL     OW12711   1.099   5.800   8.857  0.1062 -0.1438  0.3695
 3757SOL    HW112712   1.004   5.807   8.866 -0.1820 -0.3134 -1.8291
 3757SOL    HW212713   1.118   5.707   8.865  0.1878 -0.0435  1.4399
 3758SOL     OW12714   1.640   3.332   0.900 -0.5325 -0.2679  0.4850
 3758SOL    HW112715   1.629   3.420   0.865 -0.7949  0.5949  2.5656
 3758SOL    HW212716   1.604   3.275   0.833  0.7865  1.0745 -1.4759
 3759SOL     OW12717   0.160   4.796   4.132  0.7747  0.7613 -0.1060
 3759SOL    HW112718   0.198   4.711   4.154 -1.8493 -0.4454  0.0337
 3759SOL    HW212719   0.236   4.855   4.126  2.8063 -1.7849 -1.3875
 3760SOL     OW12720   4.758   6.360   7.849  0.0539 -0.5023 -0.0326
 3760SOL    HW112721   4.734   6.379   7.940  0.5251 -0.2963  0.0497
 3760SOL    HW212722   4.814   6.282   7.856  0.8477  0.0625 -0.0593
 3761SOL     OW12723   7.633   5.498  10.057 -0.1577 -0.1064 -0.4787
 3761SOL    HW112724   7.664   5.467  10.143 -1.8291 -0.7004 -0.0417
 3761SOL    HW212725   7.706   5.481   9.998  1.6251  1.6496  1.0417
 3762SOL     OW12726   1.875   0.785   9.846 -0.0901  0.2010 -0.3663
 3762SOL    HW112727   1.832   0.848   9.904  1.8260  1.3057 -0.0671
 3762SOL    HW212728   1.903   0.714   9.904 -0.2227  0.1738 -0.3341
 3763SOL     OW12729   4.742   3.368  10.488 -0.1907  0.3095  0.6201
 3763SOL    HW112730   4.730   3.274  10.471 -0.0844  0.5043 -0.6461
 3763SOL    HW212731   4.661   3.409  10.456  1.0840  0.9721 -2.1165
 3764SOL     OW12732   4.342   2.333   1.414 -0.2811  0.3300 -0.2261
 3764SOL    HW112733   4.300   2.265   1.467 -0.0288  0.5641  0.2857
 3764SOL    HW212734   4.375   2.287   1.337  1.2253 -0.4252  0.8227
 3765SOL     OW12735   5.912   6.057   4.294  0.4162  0.1846 -0.4067
 3765SOL    HW112736   5.822   6.087   4.290  0.4528  0.7724  1.7480
 3765SOL    HW212737   5.918   5.989   4.226 -1.5642  0.2927 -0.7476
 3766SOL     OW12738   0.870   4.383  10.273 -0.3302  0.1387  0.4228
 3766SOL    HW112739   0.778   4.370  10.294  0.6608 -1.4382  4.8821
 3766SOL    HW212740   0.912   4.301  10.298  2.3321  0.7260 -1.6590
 3767SOL     OW12741   1.642   7.811  11.586 -0.3518  0.0170 -0.1366
 3767SOL    HW112742   1.649   7.726  11.629 -1.7446  1.1366  2.5445
 3767SOL    HW212743   1.720   7.859  11.613 -1.1173  0.6465  1.0244
 3768SOL     OW12744   5.414   4.590   6.715 -0.2841 -0.0934 -0.0746
 3768SOL    HW112745   5.496   4.581   6.764 -1.4464 -2.9684  1.5494
 3768SOL    HW212746   5.365   4.510   6.735 -3.0452  1.0189 -1.8653
 3769SOL     OW12747   4.391   2.216   4.781 -0.4298 -0.8587  0.6168
 3769SOL    HW112748   4.376   2.284   4.847  0.0987 -0.1989  0.0657
 3769SOL    HW212749   4.360   2.255   4.699  0.6757 -0.9424  0.1446
 3770SOL     OW12750   2.092   2.322   3.894  0.0979 -0.1122  0.1411
 3770SOL    HW112751   2.116   2.365   3.976  1.5859 -0.2171 -0.2088
 3770SOL    HW212752   1.997   2.318   3.896  0.0747  0.5371  1.5294
 3771SOL     OW12753   0.605   0.001  11.594  0.7065  0.4914  0.7520
 3771SOL    HW112754   0.672  -0.060  11.564 -0.0195 -0.8722  1.7998
 3771SOL    HW212755   0.535  -0.006  11.529 -0.1470 -1.2124  1.7607
 3772SOL     OW12756   4.393   6.706   9.519 -0.1965  0.3691  0.0627
 3772SOL    HW112757   4.458   6.690   9.450 -1.7588  1.2361 -1.7183
 3772SOL    HW212758   4.312   6.668   9.484 -0.7935 -0.2344  1.9939
 3773SOL     OW12759   0.458   1.680  10.312  0.4915 -0.5531  0.4539
 3773SOL    HW112760   0.443   1.766  10.351  1.6792 -0.1601  0.0757
 3773SOL    HW212761   0.373   1.655  10.276  0.4434  1.1037 -0.6917
 3774SOL     OW12762   4.894   4.536   1.972  0.2067  0.0379 -0.4054
 3774SOL    HW112763   4.889   4.620   2.017  1.0931 -0.0796 -0.0693
 3774SOL    HW212764   4.845   4.549   1.891 -0.4858  0.5776  0.0865
 3775SOL     OW12765   0.462   1.320  10.293 -0.1895 -0.1232 -0.3350
 3775SOL    HW112766   0.425   1.305  10.206 -1.4490 -1.0553  0.3276
 3775SOL    HW212767   0.554   1.341  10.277 -0.0464 -1.6672 -1.8137
 3776SOL     OW12768   5.281   4.400   8.264  0.0438  0.4438  0.5000
 3776SOL    HW112769   5.248   4.326   8.314 -0.2369  1.2735  1.5646
 3776SOL    HW212770   5.204   4.456   8.249  0.3891  0.8895  0.3508
 3777SOL     OW12771   0.588   5.417  10.228  0.3113  0.6850 -0.3053
 3777SOL    HW112772   0.562   5.369  10.150  0.8435 -1.7603  0.9086
 3777SOL    HW212773   0.512   5.471  10.250 -0.6515 -0.2275 -1.3004
 3778SOL     OW12774   7.423   0.797   5.953  0.1466 -0.1291  0.1253
 3778SOL    HW112775   7.341   0.766   5.916  0.5952 -1.8867  0.5195
 3778SOL    HW212776   7.479   0.814   5.877 -0.2038 -0.0122 -0.1090
 3779SOL     OW12777   6.401   7.538   1.655 -0.1852  0.2702 -0.3416
 3779SOL    HW112778   6.419   7.630   1.639  1.3151  0.0582 -0.0060
 3779SOL    HW212779   6.433   7.493   1.577 -1.7253  0.0821 -0.9022
 3780SOL     OW12780   0.621   6.370   0.427 -0.0898  0.3639  0.0924
 3780SOL    HW112781   0.650   6.352   0.338 -0.3860 -0.7314  0.1999
 3780SOL    HW212782   0.612   6.465   0.431 -1.3583  0.3387 -1.4526
 3781SOL     OW12783   1.823   6.635   6.492  0.1321 -0.2164 -0.0325
 3781SOL    HW112784   1.833   6.730   6.484 -0.9868 -0.2251 -2.8188
 3781SOL    HW212785   1.826   6.618   6.586 -0.6357  2.7081  0.6191
 3782SOL     OW12786   2.842   2.962   5.927 -0.5611  0.0971 -0.1131
 3782SOL    HW112787   2.754   2.998   5.941 -0.3565  0.1193  1.2408
 3782SOL    HW212788   2.873   2.940   6.014  1.5919  1.9922 -0.3100
 3783SOL     OW12789   1.736   7.529  10.988  0.1878  0.0890  0.4369
 3783SOL    HW112790   1.776   7.520  10.902  1.0214 -0.0072  0.8186
 3783SOL    HW212791   1.735   7.624  11.004  0.6401  0.0715  0.5891
 3784SOL     OW12792   6.506   7.581   7.332 -0.3919 -0.5167  0.4692
 3784SOL    HW112793   6.539   7.665   7.300 -0.8208 -0.4369  0.2344
 3784SOL    HW212794   6.411   7.591   7.333 -0.7713 -2.2344 -3.1665
 3785SOL     OW12795   5.701   6.750   3.838 -0.1800 -0.6695 -0.2481
 3785SOL    HW112796   5.607   6.742   3.820 -0.3682  0.2372  0.2486
 3785SOL    HW212797   5.710   6.837   3.877  1.0091 -0.3452 -1.1902
 3786SOL     OW12798   7.527   0.407   0.805  0.5415 -0.1874 -0.3624
 3786SOL    HW112799   7.484   0.486   0.771 -1.2308 -1.1591 -0.4511
 3786SOL    HW212800   7.587   0.441   0.872  0.3598  1.2947 -0.9008
 3787SOL     OW12801   6.912   1.879   4.994  0.1622  0.5487  0.2962
 3787SOL    HW112802   6.905   1.852   5.086  1.8406 -0.8284  0.0768
 3787SOL    HW212803   6.866   1.811   4.946 -1.2927  1.6122  0.1051
 3788SOL     OW12804   7.246   3.700  11.792 -0.1030  0.1185 -0.2483
 3788SOL    HW112805   7.185   3.755  11.743  0.3041  0.2017 -0.6803
 3788SOL    HW212806   7.323   3.693  11.734 -0.6728 -2.0348 -0.8330
 3789SOL     OW12807   2.731   5.032   0.691  0.0279 -0.6957  0.2475
 3789SOL    HW112808   2.715   5.021   0.785  1.3059 -0.3183  0.5296
 3789SOL    HW212809   2.675   4.967   0.649 -1.0903 -0.4049  1.2249
 3790SOL     OW12810   6.172   3.651   9.361  0.6941  0.5576 -0.3578
 3790SOL    HW112811   6.195   3.721   9.300 -1.3308  1.5497 -0.0764
 3790SOL    HW212812   6.159   3.574   9.306 -2.0204  1.6428 -1.4171
 3791SOL     OW12813   1.505   4.787   7.113  0.2085 -0.6999  0.1916
 3791SOL    HW112814   1.433   4.770   7.052 -1.1444  2.1252  0.8221
 3791SOL    HW212815   1.466   4.774   7.200  0.2196  1.3859  0.5594
 3792SOL     OW12816   5.098   6.350   1.866 -0.7195  0.0882 -0.2593
 3792SOL    HW112817   5.037   6.292   1.912  0.3013 -0.4389  0.4729
 3792SOL    HW212818   5.180   6.342   1.915 -0.5571  2.1716 -0.1375
 3793SOL     OW12819   3.650   1.416   2.802  0.2193  0.3972 -0.3064
 3793SOL    HW112820   3.725   1.376   2.758 -0.0593  1.1820 -1.5497
 3793SOL    HW212821   3.627   1.355   2.871  1.7063 -0.0912 -0.2127
 3794SOL     OW12822   6.788   0.505   3.710 -0.0579 -0.0562  0.2388
 3794SOL    HW112823   6.863   0.447   3.698  0.3079  0.6095 -0.7920
 3794SOL    HW212824   6.738   0.465   3.781 -0.1145 -1.9498 -0.8081
 3795SOL     OW12825   2.319   5.345   9.253 -0.2486 -0.0361  0.3110
 3795SOL    HW112826   2.323   5.359   9.347 -0.4133 -0.0357  0.3193
 3795SOL    HW212827   2.230   5.371   9.229 -1.3956 -3.1434  0.6781
 3796SOL     OW12828   1.990   5.471   5.772  0.4692 -0.1981 -0.1918
 3796SOL    HW112829   2.078   5.459   5.737  0.8795  0.9745  0.3754
 3796SOL    HW212830   1.944   5.522   5.706  1.9206  4.0205  1.7034
 3797SOL     OW12831   4.840   5.664  11.233 -0.3492  0.3368  0.1725
 3797SOL    HW112832   4.836   5.570  11.249  0.2244  0.4691  1.2084
 3797SOL    HW212833   4.870   5.701  11.316  0.7616  1.3077 -0.6324
 3798SOL     OW12834   0.921   2.355   9.245 -0.3730 -0.5010 -0.3600
 3798SOL    HW112835   0.888   2.288   9.185  0.0529  0.0654 -1.2628
 3798SOL    HW212836   0.999   2.390   9.201  0.8823 -1.1365  1.2511
 3799SOL     OW12837   7.392   5.654   7.718 -0.1996  0.6862 -0.3237
 3799SOL    HW112838   7.362   5.745   7.717 -1.3671  0.3130 -1.0450
 3799SOL    HW212839   7.317   5.604   7.750  1.0578  0.1457  1.9714
 3800SOL     OW12840   3.262   7.883   8.909  0.3284 -0.2457  0.0338
 3800SOL    HW112841   3.315   7.803   8.910  2.1131  0.8763  0.6337
 3800SOL    HW212842   3.218   7.883   8.994  0.8461 -0.2664  0.3062
 3801SOL     OW12843   3.683   1.793   1.363 -0.2743  0.2860  0.3007
 3801SOL    HW112844   3.635   1.815   1.282 -1.7559  1.7379  1.4991
 3801SOL    HW212845   3.618   1.803   1.432  1.6192  1.7129  1.9674
 3802SOL     OW12846   4.934   5.963   9.906 -0.0398  0.1506 -0.4868
 3802SOL    HW112847   4.843   5.976   9.933  0.2407 -2.1923  1.9203
 3802SOL    HW212848   4.980   6.041   9.939 -0.8178  0.3404  0.1812
 3803SOL     OW12849   0.135   1.175   4.778 -0.2536  0.7084  0.3693
 3803SOL    HW112850   0.134   1.255   4.831 -0.2134  0.7085  0.3701
 3803SOL    HW212851   0.171   1.108   4.836  1.8915  1.1770 -0.2984
 3804SOL     OW12852   4.099   1.574   5.460  0.1229  0.1908 -0.2714
 3804SOL    HW112853   4.116   1.644   5.523 -0.1750 -0.3347  0.4017
 3804SOL    HW212854   4.010   1.546   5.479 -0.1905  0.4184 -1.3234
 3805SOL     OW12855   6.802   3.546   1.418 -0.3163 -0.2915 -0.3628
 3805SOL    HW112856   6.849   3.501   1.349  0.6816 -0.4689  0.4103
 3805SOL    HW212857   6.851   3.526   1.498 -2.3757 -1.4948  0.6875
 3806SOL     OW12858   5.808   1.002   7.983 -0.1045  0.4006 -0.3052
 3806SOL    HW112859   5.747   0.971   7.917 -1.2904  0.8269  0.5604
 3806SOL    HW212860   5.846   1.081   7.945 -0.7485  0.6182 -0.5089
 3807SOL     OW12861   3.408   5.178   7.118 -0.0625  0.0126  0.1310
 3807SOL    HW112862   3.329   5.135   7.150 -0.4155  0.1603 -0.5162
 3807SOL    HW212863   3.455   5.109   7.071  2.1433 -1.1537  3.6514
 3808SOL     OW12864   4.174   2.755   2.856  0.1330 -0.0172  0.1750
 3808SOL    HW112865   4.228   2.677   2.872 -0.0175 -0.6772 -2.2376
 3808SOL    HW212866   4.126   2.768   2.938 -0.5164 -3.0039  0.3674
 3809SOL     OW12867   1.684   7.696   6.875 -0.4877 -0.1527  0.1777
 3809SOL    HW112868   1.663   7.676   6.784 -0.6285  1.1097 -0.0808
 3809SOL    HW212869   1.716   7.786   6.874 -0.4435 -0.1315  1.3761
 3810SOL     OW12870   1.749   1.462   8.510  0.7497 -0.4837 -0.6841
 3810SOL    HW112871   1.828   1.408   8.497 -0.6601 -2.2304 -2.8642
 3810SOL    HW212872   1.692   1.438   8.437 -1.2188  1.8372 -0.0310
 3811SOL     OW12873   6.464   2.887   6.848  0.6831 -0.3890  0.2187
 3811SOL    HW112874   6.375   2.919   6.866 -0.2660 -2.1713 -0.9752
 3811SOL    HW212875   6.470   2.806   6.899  2.7073  1.0579  2.5101
 3812SOL     OW12876   0.282   0.354   9.478  0.2280  0.2868 -0.2151
 3812SOL    HW112877   0.374   0.365   9.501  0.2250  2.4993 -0.9718
 3812SOL    HW212878   0.235   0.399   9.549 -0.1913  0.2126 -0.4432
 3813SOL     OW12879   4.332   7.680   8.923 -0.0935 -0.1588 -0.2975
 3813SOL    HW112880   4.309   7.712   9.010 -0.0917 -0.0021 -0.3550
 3813SOL    HW212881   4.397   7.611   8.939 -0.3869 -0.4054 -0.1519
 3814SOL     OW12882   5.611   4.396   5.002 -0.0035  0.2867 -0.1637
 3814SOL    HW112883   5.657   4.465   4.954  1.6231 -0.4533  0.2333
 3814SOL    HW212884   5.518   4.415   4.990  0.3951  1.6985 -1.2611
 3815SOL     OW12885   1.342   4.789   3.910 -0.3304  0.3743 -0.0743
 3815SOL    HW112886   1.349   4.696   3.891  0.0649  0.3963 -0.0512
 3815SOL    HW212887   1.301   4.827   3.831  2.3858  0.6459 -1.4824
 3816SOL     OW12888   1.778   3.853   6.933  0.3923 -0.1717  0.3399
 3816SOL    HW112889   1.813   3.899   7.009 -0.0310  0.0796  0.3886
 3816SOL    HW212890   1.702   3.805   6.967  1.1232 -1.3364  0.3989
 3817SOL     OW12891   2.290   3.672   5.563  0.3131 -0.0005  0.2526
 3817SOL    HW112892   2.322   3.719   5.486  0.0934  1.0227  0.7786
 3817SOL    HW212893   2.330   3.716   5.637  0.9320 -1.3052  0.7152
 3818SOL     OW12894   3.304   0.366   6.786 -0.1321  0.1515 -0.0068
 3818SOL    HW112895   3.303   0.330   6.874 -1.0417  0.3203  0.0631
 3818SOL    HW212896   3.248   0.444   6.791 -0.3442  0.0606 -0.7653
 3819SOL     OW12897   6.014   3.426  10.301 -0.3447  0.2349  0.2898
 3819SOL    HW112898   6.030   3.334  10.280 -0.1256 -0.0667  1.6696
 3819SOL    HW212899   6.095   3.455  10.344 -1.4923  0.1672  2.6683
 3820SOL     OW12900   6.225   4.315  11.573  0.0617  0.1385 -0.2196
 3820SOL    HW112901   6.244   4.288  11.663 -0.6951 -1.0975 -0.4027
 3820SOL    HW212902   6.130   4.307  11.566  0.0976  0.4437 -1.0648
 3821SOL     OW12903   4.541   0.870  12.360  0.1807 -0.0243  0.1923
 3821SOL    HW112904   4.514   0.795  12.413  1.5949 -0.9204 -0.2950
 3821SOL    HW212905   4.461   0.920  12.348 -0.9472 -1.7506  0.0686
 3822SOL     OW12906   2.982   7.139   6.145  0.1547  0.0796 -0.1951
 3822SOL    HW112907   3.033   7.064   6.175  0.3371 -0.3302 -1.4660
 3822SOL    HW212908   3.012   7.155   6.056  0.5840  2.1044  0.2740
 3823SOL     OW12909   7.320   4.998   9.538 -0.0578 -0.0840 -0.7400
 3823SOL    HW112910   7.410   4.967   9.549 -0.3464 -0.6092  0.3084
 3823SOL    HW212911   7.286   4.947   9.465  0.6666  0.5276 -1.5150
 3824SOL     OW12912   4.762   2.124   6.431  0.0885  0.3896  0.0661
 3824SOL    HW112913   4.714   2.199   6.396 -0.3058  0.2483  0.2962
 3824SOL    HW212914   4.702   2.084   6.495  0.9944  0.9824  1.3351
 3825SOL     OW12915   3.801   0.835  12.341  0.5643  0.2253  0.2585
 3825SOL    HW112916   3.785   0.801  12.429  1.4715  1.2900  0.8464
 3825SOL    HW212917   3.724   0.888  12.322  0.3585 -0.0175  0.4065
 3826SOL     OW12918   7.625   6.873   9.971  0.0399 -0.3651 -0.4426
 3826SOL    HW112919   7.530   6.881   9.972  0.1687  2.5679  2.1974
 3826SOL    HW212920   7.655   6.937   9.907  0.3115 -1.6088 -1.6200
 3827SOL     OW12921   4.319   7.127   2.162 -0.7231  0.2183  0.4588
 3827SOL    HW112922   4.356   7.039   2.166 -0.9680  0.0772 -0.2575
 3827SOL    HW212923   4.295   7.148   2.252 -3.1567 -1.5141  0.2998
 3828SOL     OW12924   1.752   7.903   5.541 -0.0494  0.7126 -0.5591
 3828SOL    HW112925   1.656   7.901   5.540 -0.0961  1.3004  0.6854
 3828SOL    HW212926   1.778   7.817   5.509 -1.0359 -0.3283  1.3071
 3829SOL     OW12927   4.524   5.164   7.208 -0.0768 -0.1137  0.4045
 3829SOL    HW112928   4.607   5.140   7.248  0.4811 -1.6910 -1.5174
 3829SOL    HW212929   4.457   5.131   7.268  0.7236 -1.9723  0.3344
 3830SOL     OW12930   7.797   5.920  11.221 -0.0244 -0.2079  0.0496
 3830SOL    HW112931   7.714   5.913  11.172 -2.0362  2.6566  2.6791
 3830SOL    HW212932   7.820   5.830  11.242 -2.2779 -1.1336 -1.0988
 3831SOL     OW12933   3.793   6.563   8.147  0.3675 -0.7717 -0.1413
 3831SOL    HW112934   3.873   6.511   8.141  0.1235 -1.2454  0.6013
 3831SOL    HW212935   3.785   6.585   8.239 -0.8830 -1.6031 -0.0219
 3832SOL     OW12936   0.690   6.588  11.497 -0.2009  0.4406  0.9105
 3832SOL    HW112937   0.620   6.631  11.545 -0.5891 -0.1635  0.8930
 3832SOL    HW212938   0.748   6.553  11.565 -0.1561  0.5450  0.9272
 3833SOL     OW12939   6.624   4.229   5.309  0.0677 -0.1582  0.7789
 3833SOL    HW112940   6.686   4.165   5.274  1.0203  0.7065  0.8844
 3833SOL    HW212941   6.541   4.208   5.265  0.7883 -0.3270 -0.5345
 3834SOL     OW12942   3.120   1.510   0.013  0.2078  0.9877  0.2176
 3834SOL    HW112943   3.182   1.437   0.004 -2.5202 -1.4857 -0.0671
 3834SOL    HW212944   3.123   1.533   0.105  0.4306 -0.1718  0.5203
 3835SOL     OW12945   7.665   6.168   0.017 -0.3811  0.0172  0.0918
 3835SOL    HW112946   7.651   6.138  -0.073  1.4456 -1.0031  0.0969
 3835SOL    HW212947   7.619   6.104   0.071  0.6731 -0.8911 -0.0441
 3836SOL     OW12948   1.113   4.788   4.761 -0.1028 -0.0442 -0.0671
 3836SOL    HW112949   1.131   4.720   4.696 -0.7125 -1.7811  1.4851
 3836SOL    HW212950   1.022   4.773   4.787 -0.3938  1.6687  0.0029
 3837SOL     OW12951   6.880   6.131   1.221 -0.0892  0.2445  0.0391
 3837SOL    HW112952   6.861   6.039   1.206  0.6611 -0.1244  1.2173
 3837SOL    HW212953   6.797   6.176   1.202 -0.1700 -0.5268 -1.5854
 3838SOL     OW12954   2.993   0.694  10.147  0.1243  0.4584  0.6033
 3838SOL    HW112955   2.946   0.730  10.222  1.1585  0.6563  1.1855
 3838SOL    HW212956   2.957   0.606  10.136  0.2454  0.2621  1.6141
 3839SOL     OW12957   6.056   3.860   0.965 -0.1603 -0.0066  0.4877
 3839SOL    HW112958   6.028   3.810   0.888 -0.1985  0.0457  0.4675
 3839SOL    HW212959   6.124   3.806   1.005 -1.1832 -0.7626  1.2696
 3840SOL     OW12960   2.446   4.609   0.577 -0.3993  0.0184  0.1799
 3840SOL    HW112961   2.376   4.673   0.593 -0.0417  0.1586  1.2328
 3840SOL    HW212962   2.455   4.562   0.660 -0.3610 -1.1285 -0.4567
 3841SOL     OW12963   6.388   1.714   2.990  0.6143 -0.0202 -0.1807
 3841SOL    HW112964   6.339   1.771   3.049 -0.9555  0.2232 -1.6720
 3841SOL    HW212965   6.466   1.765   2.966 -1.1494  1.9465 -2.1470
 3842SOL     OW12966   7.251   2.782  10.012 -0.1920  0.0024  0.0680
 3842SOL    HW112967   7.279   2.693   9.989 -0.3885  0.1079 -0.5956
 3842SOL    HW212968   7.269   2.834   9.934 -0.1665  0.5322  0.4221
 3843SOL     OW12969   1.801   7.915  12.197 -0.1749  0.2595 -0.9831
 3843SOL    HW112970   1.889   7.879  12.189 -0.1986  0.1479 -0.7650
 3843SOL    HW212971   1.793   7.939  12.290 -1.0438 -1.5280 -0.5465
 3844SOL     OW12972   3.895   4.897  10.705 -0.2591  0.2702 -0.2401
 3844SOL    HW112973   3.873   4.803  10.707  1.2547 -0.1240 -0.8087
 3844SOL    HW212974   3.949   4.911  10.782 -1.8683  1.0992  0.8044
 3845SOL     OW12975   1.544   2.138   3.983 -0.4710  0.3020 -0.0934
 3845SOL    HW112976   1.613   2.138   3.916 -1.2319 -0.6299 -0.9197
 3845SOL    HW212977   1.571   2.070   4.045 -0.0394  0.7817  0.2444
 3846SOL     OW12978   2.937   3.246   7.351  0.1932  0.5901  0.1614
 3846SOL    HW112979   2.889   3.207   7.424 -0.4691  2.5279  0.8199
 3846SOL    HW212980   3.021   3.201   7.351 -0.3135 -0.4106  1.2349
 3847SOL     OW12981   3.222   6.531   5.973 -0.2203 -0.4242 -0.2332
 3847SOL    HW112982   3.216   6.624   5.948 -1.1059 -0.0900  1.1066
 3847SOL    HW212983   3.165   6.486   5.911 -0.5058  0.0491 -0.3178
 3848SOL     OW12984   4.922   3.262   6.927  0.1077  0.4634 -0.0212
 3848SOL    HW112985   4.897   3.348   6.892 -1.3795  1.1150  2.4102
 3848SOL    HW212986   4.974   3.282   7.005 -0.0280 -0.8448  0.4185
 3849SOL     OW12987   0.301   7.936   6.292 -0.5287  0.3905  0.5520
 3849SOL    HW112988   0.292   7.938   6.387  0.5627 -0.6335  0.7024
 3849SOL    HW212989   0.269   7.849   6.267  2.7033 -0.8927  0.4507
 3850SOL     OW12990   4.078   3.649  10.347  0.7636 -0.0531 -0.1546
 3850SOL    HW112991   4.130   3.585  10.298  1.4743 -0.2843  0.8618
 3850SOL    HW212992   4.051   3.713  10.281  1.4584 -0.4920 -0.8946
 3851SOL     OW12993   3.392   5.181   4.973 -0.5014 -0.0581  0.7264
 3851SOL    HW112994   3.446   5.102   4.976  1.6658  1.3087  0.4458
 3851SOL    HW212995   3.424   5.235   5.045 -0.0064  1.6665 -0.7110
 3852SOL     OW12996   7.128   5.958   5.087 -0.6471  0.1640 -0.1352
 3852SOL    HW112997   7.033   5.965   5.092 -0.5703  0.9396  0.3974
 3852SOL    HW212998   7.158   6.048   5.072  0.0135 -0.0391 -0.0829
 3853SOL     OW12999   5.779   0.309   6.232 -0.1670  0.0645  0.0009
 3853SOL    HW113000   5.795   0.230   6.180  0.0602 -1.7120  2.5731
 3853SOL    HW213001   5.712   0.283   6.295 -0.0042  1.9003  0.9940
 3854SOL     OW13002   7.647   7.650   9.737  0.6400 -0.0267  0.3380
 3854SOL    HW113003   7.636   7.617   9.826  0.7358  2.4780  1.3756
 3854SOL    HW213004   7.588   7.596   9.684  0.3678 -1.3944  1.9456
 3855SOL     OW13005   2.626   1.585   4.250 -0.0310 -0.2608  0.0384
 3855SOL    HW113006   2.560   1.560   4.314 -0.5221  0.1249 -0.3120
 3855SOL    HW213007   2.577   1.602   4.170  0.3690  0.9521  0.0286
 3856SOL     OW13008   5.854   3.350  11.514 -0.0424  0.0568  0.5023
 3856SOL    HW113009   5.845   3.256  11.503 -0.5715  0.2315 -0.6525
 3856SOL    HW213010   5.910   3.360  11.591  1.6317 -1.2246 -0.4983
 3857SOL     OW13011   1.128   7.527   0.030  0.0643 -0.0644 -0.0174
 3857SOL    HW113012   1.138   7.431   0.032  0.0614 -0.0795 -0.5385
 3857SOL    HW213013   1.126   7.553   0.122  0.9258 -0.4711  0.1223
 3858SOL     OW13014   3.549   1.334  11.723 -0.7499 -0.2376 -0.3145
 3858SOL    HW113015   3.475   1.341  11.663 -0.4033  1.3153 -0.6130
 3858SOL    HW213016   3.576   1.242  11.717 -1.7839 -0.5001 -1.2434
 3859SOL     OW13017   0.084   3.222   6.913  0.2381  0.6060 -0.8333
 3859SOL    HW113018   0.151   3.284   6.940  0.1214 -0.1102  1.2841
 3859SOL    HW213019   0.126   3.169   6.845  2.1379 -0.2727  0.9020
 3860SOL     OW13020   1.390   0.002   6.268 -0.1692  0.0830 -0.2538
 3860SOL    HW113021   1.477  -0.040   6.270 -0.3720 -0.3355  0.0488
 3860SOL    HW213022   1.358  -0.014   6.180 -0.2394 -0.4030 -0.1468
 3861SOL     OW13023   6.095   3.865   1.455  0.1434 -0.6157  0.3862
 3861SOL    HW113024   6.130   3.870   1.366  1.0225  0.8002  0.7898
 3861SOL    HW213025   6.161   3.907   1.510 -1.5931  1.0277  1.3372
 3862SOL     OW13026   3.275   6.870   2.083  0.3656  0.2452  0.2053
 3862SOL    HW113027   3.317   6.799   2.035 -0.1431 -0.6477  1.0240
 3862SOL    HW213028   3.219   6.913   2.019 -0.0277 -0.6896 -0.0926
 3863SOL     OW13029   5.607   6.970   6.364  0.3080 -0.0548  0.1910
 3863SOL    HW113030   5.584   6.878   6.373  0.0611 -0.0721 -0.5769
 3863SOL    HW213031   5.532   7.010   6.321  0.3618  0.5363  0.6291
 3864SOL     OW13032   0.644   6.894   6.937 -0.3060  0.2938  0.5375
 3864SOL    HW113033   0.633   6.831   6.865  0.0343  1.0163 -0.1673
 3864SOL    HW213034   0.577   6.961   6.921 -1.1771 -0.2560  1.7162
 3865SOL     OW13035   3.563   5.103   8.364  0.0591 -0.1107  0.5029
 3865SOL    HW113036   3.633   5.168   8.370  0.3156 -0.3104 -0.2154
 3865SOL    HW213037   3.604   5.020   8.388  0.3027 -0.3748 -0.7454
 3866SOL     OW13038   0.271   7.416   2.276  0.3226  0.3872 -0.3016
 3866SOL    HW113039   0.254   7.334   2.322  1.6983 -1.3284 -2.6713
 3866SOL    HW213040   0.356   7.444   2.309 -0.8427  1.8547  1.7138
 3867SOL     OW13041   3.537   7.109   7.055 -0.1479 -0.1749  0.0914
 3867SOL    HW113042   3.599   7.043   7.025 -1.2128 -0.8455 -0.7037
 3867SOL    HW213043   3.484   7.064   7.121  0.1604  0.3814  0.7387
 3868SOL     OW13044   7.690   6.218   2.672  0.3343  0.3536  0.0273
 3868SOL    HW113045   7.741   6.162   2.730 -0.7349 -0.3347  0.3465
 3868SOL    HW213046   7.606   6.172   2.663 -0.1603  1.3491 -0.6248
 3869SOL     OW13047   6.354   4.813   0.325  0.4143  0.1018 -0.0509
 3869SOL    HW113048   6.368   4.732   0.375  0.9478 -0.8753 -1.7056
 3869SOL    HW213049   6.273   4.798   0.277 -0.2857  1.1823  0.7367
 3870SOL     OW13050   3.511   5.359  10.193  1.2546  0.4070  0.7374
 3870SOL    HW113051   3.485   5.352  10.285 -1.4333  1.1508  0.1070
 3870SOL    HW213052   3.502   5.270  10.158 -1.8791  0.8144  0.2604
 3871SOL     OW13053   4.248   6.870   8.176  0.2655  0.2672  0.4293
 3871SOL    HW113054   4.264   6.786   8.219  0.5623  0.5596  0.9021
 3871SOL    HW213055   4.155   6.866   8.151 -0.7741  1.1490  3.6061
 3872SOL     OW13056   3.186   7.659   8.468  0.4551 -0.3737 -0.4728
 3872SOL    HW113057   3.120   7.727   8.454  2.7686  2.0715 -0.3571
 3872SOL    HW213058   3.210   7.630   8.379  0.5399  0.0920 -0.6043
 3873SOL     OW13059   6.613   1.868   5.842  0.0409 -0.3368  0.1741
 3873SOL    HW113060   6.553   1.905   5.777  0.2570  0.3753  0.3716
 3873SOL    HW213061   6.556   1.838   5.913 -0.1635 -0.7170 -0.1505
 3874SOL     OW13062   7.803   3.899   4.737  0.5894  0.4014 -0.1727
 3874SOL    HW113063   7.732   3.836   4.718  1.6540 -0.0678 -3.0652
 3874SOL    HW213064   7.847   3.863   4.814  0.8255 -2.1785 -1.4197
 3875SOL     OW13065   1.957   7.632   8.992 -0.0406  0.0325  0.1989
 3875SOL    HW113066   1.899   7.560   9.016 -0.4561  0.4987  0.5848
 3875SOL    HW213067   1.929   7.658   8.904  0.3772 -0.5386 -0.1148
 3876SOL     OW13068   3.043   3.081   9.295  0.6658 -0.4544  0.2205
 3876SOL    HW113069   3.030   3.159   9.242 -1.9898 -0.0732  1.2805
 3876SOL    HW213070   3.008   3.009   9.241  1.6194 -0.6861 -0.1042
 3877SOL     OW13071   1.470   0.984   2.203  0.4700 -0.2450 -0.4071
 3877SOL    HW113072   1.535   0.990   2.274  0.2861 -1.1576 -0.1537
 3877SOL    HW213073   1.507   1.037   2.132  1.1074 -0.1018  0.0232
 3878SOL     OW13074   5.026   0.660   0.488 -0.6831 -0.4853  0.2718
 3878SOL    HW113075   5.080   0.726   0.533  0.6149 -2.3562  1.6421
 3878SOL    HW213076   5.049   0.669   0.396 -1.3425  1.6402  0.2668
 3879SOL     OW13077   3.662   6.480   5.408  0.4455 -0.1709  0.4811
 3879SOL    HW113078   3.638   6.436   5.327  1.2915  1.2039 -0.5528
 3879SOL    HW213079   3.747   6.442   5.432  1.5929  1.3996 -0.8744
 3880SOL     OW13080   6.287   4.593   8.532  0.1634  0.5443 -0.6972
 3880SOL    HW113081   6.218   4.571   8.470  1.5691 -0.6814 -1.9199
 3880SOL    HW213082   6.327   4.672   8.497 -0.8768  1.5547  0.2882
 3881SOL     OW13083   7.517   2.018   0.001 -0.2410 -0.4147 -0.4472
 3881SOL    HW113084   7.570   2.066  -0.062  0.2063 -0.3004  0.0126
 3881SOL    HW213085   7.577   1.955   0.041 -0.0557  0.6767  1.1064
 3882SOL     OW13086   2.962   2.744  12.312 -0.8509  0.5684  0.2949
 3882SOL    HW113087   2.997   2.725  12.400 -0.1821 -0.8656 -0.2498
 3882SOL    HW213088   3.039   2.768  12.261 -0.7703 -1.4668 -0.6200
 3883SOL     OW13089   0.604   2.915   5.266 -0.1811  0.6350  0.2909
 3883SOL    HW113090   0.553   2.964   5.202 -1.3596 -2.0326 -0.9997
 3883SOL    HW213091   0.684   2.890   5.221  0.4928  1.4952  0.9903
 3884SOL     OW13092   2.762   4.388   0.951  0.2718 -0.0047  0.3208
 3884SOL    HW113093   2.788   4.324   1.017  1.6170  0.2109  0.0301
 3884SOL    HW213094   2.689   4.347   0.906  0.7180 -1.0776  0.5342
 3885SOL     OW13095   6.827   1.906   0.488 -0.7831  0.5953  0.3048
 3885SOL    HW113096   6.757   1.887   0.549 -0.7583  2.3006  0.9028
 3885SOL    HW213097   6.887   1.962   0.536  0.2044  0.4357 -0.6895
 3886SOL     OW13098   0.844   5.175   0.372 -0.1357 -0.2636  0.0050
 3886SOL    HW113099   0.885   5.197   0.456 -1.9382  1.8617  0.4032
 3886SOL    HW213100   0.778   5.110   0.395  1.7134 -2.4196 -0.3940
 3887SOL     OW13101   2.350   3.842   6.203  0.1468  0.0334 -0.5864
 3887SOL    HW113102   2.352   3.850   6.298  0.2137 -1.0636 -0.4845
 3887SOL    HW213103   2.442   3.834   6.177  0.0298 -1.9356 -0.5096
 3888SOL     OW13104   4.354   2.642   6.827 -0.0689  0.0893  0.0739
 3888SOL    HW113105   4.397   2.704   6.885  0.5565  1.7715 -2.0386
 3888SOL    HW213106   4.279   2.690   6.792  0.8091 -0.0252 -2.1347
 3889SOL     OW13107   5.966   2.148   3.924  0.3125 -1.0922 -0.4585
 3889SOL    HW113108   5.927   2.152   3.837  1.4563 -0.1003 -0.9499
 3889SOL    HW213109   5.905   2.094   3.975 -0.2938 -1.8044 -1.8918
 3890SOL     OW13110   1.002   3.551   5.187  0.0225  0.1139 -0.1839
 3890SOL    HW113111   0.970   3.464   5.163  0.7918 -0.2341  0.0135
 3890SOL    HW213112   1.043   3.584   5.107  0.4426 -0.0427 -0.0356
 3891SOL     OW13113   2.659   2.396   5.531  0.5331  0.4772  0.8327
 3891SOL    HW113114   2.750   2.407   5.558  0.1503  1.3199  1.8540
 3891SOL    HW213115   2.610   2.393   5.613 -0.3232 -0.3605  0.3077
 3892SOL     OW13116   7.938   0.933   7.033 -0.2111 -0.4090  0.3462
 3892SOL    HW113117   7.940   0.847   7.075  1.4939 -0.8600 -0.5324
 3892SOL    HW213118   7.857   0.933   6.981  0.0001 -1.6923 -0.0219
 3893SOL     OW13119   3.215   2.926   9.641  0.8443  0.7732 -0.1236
 3893SOL    HW113120   3.242   2.894   9.555  1.7093 -0.5701  0.6065
 3893SOL    HW213121   3.202   3.020   9.628 -0.2278  0.4224 -1.9892
 3894SOL     OW13122   3.459   4.184  10.752  0.4197  0.3724 -0.0786
 3894SOL    HW113123   3.525   4.176  10.821  0.7666  1.7370 -0.2127
 3894SOL    HW213124   3.376   4.170  10.796  0.6183  1.4948  0.7069
 3895SOL     OW13125   7.388   6.862   3.900  0.4458  0.1620  0.0518
 3895SOL    HW113126   7.427   6.942   3.866  1.4093 -0.0054  0.7044
 3895SOL    HW213127   7.334   6.828   3.828  0.8861  0.8221 -0.6018
 3896SOL     OW13128   2.869   4.062   9.766  0.1349  0.9803 -0.1756
 3896SOL    HW113129   2.951   4.028   9.803 -0.8643 -0.4758  0.8303
 3896SOL    HW213130   2.821   4.096   9.841 -1.1591 -0.3575 -0.3405
 3897SOL     OW13131   0.491   6.867   8.299  0.3289  0.3926  0.1427
 3897SOL    HW113132   0.522   6.777   8.295  0.7967  0.5097  0.8921
 3897SOL    HW213133   0.546   6.914   8.236  0.9465  0.3842  0.6592
 3898SOL     OW13134   1.512   1.133   4.539  0.4015 -0.0013  0.0761
 3898SOL    HW113135   1.478   1.044   4.540  0.6322 -0.0973 -0.3457
 3898SOL    HW213136   1.575   1.134   4.467  1.6131  0.0646  1.0989
 3899SOL     OW13137   3.863   0.488   2.346  0.2953  0.3977  0.0179
 3899SOL    HW113138   3.918   0.410   2.351 -0.9963 -0.4670  2.0490
 3899SOL    HW213139   3.924   0.561   2.340  1.5957 -0.6364  0.3508
 3900SOL     OW13140   6.454   2.015   0.675 -0.3900 -0.3159 -0.4825
 3900SOL    HW113141   6.521   2.045   0.613  0.4268 -1.0387  0.0240
 3900SOL    HW213142   6.470   1.922   0.685 -0.1831 -0.1435  1.1860
 3901SOL     OW13143   7.417   7.110   7.368  0.3915 -0.5309  0.4262
 3901SOL    HW113144   7.385   7.149   7.287  0.4049 -2.4947 -0.5844
 3901SOL    HW213145   7.499   7.155   7.386  1.2292 -1.1670 -1.5807
 3902SOL     OW13146   7.487   3.178   2.405 -0.4937  0.3760 -0.3746
 3902SOL    HW113147   7.507   3.255   2.458  0.4229 -0.2963  0.2960
 3902SOL    HW213148   7.551   3.180   2.334 -1.5804  1.1566 -1.3542
 3903SOL     OW13149   7.199   6.868  10.427  0.8728 -0.3135 -0.5518
 3903SOL    HW113150   7.265   6.824  10.373 -0.5316  0.6259 -3.2726
 3903SOL    HW213151   7.131   6.893  10.364  0.7329  4.1619  1.0274
 3904SOL     OW13152   6.757   7.771  12.255  0.1578  0.0479  0.1881
 3904SOL    HW113153   6.706   7.696  12.286  0.4823 -0.7089 -1.0124
 3904SOL    HW213154   6.847   7.738  12.249  0.3868  0.6740  0.0855
 3905SOL     OW13155   0.174   5.354  11.753  0.4261 -0.0984  0.3125
 3905SOL    HW113156   0.086   5.328  11.726  0.0846  0.8548  0.4652
 3905SOL    HW213157   0.179   5.327  11.845  0.6734 -1.0549  0.0365
 3906SOL     OW13158   4.758   1.285   2.858 -0.0440  0.3771 -0.4001
 3906SOL    HW113159   4.734   1.216   2.920 -0.4948  1.4936  0.7138
 3906SOL    HW213160   4.833   1.329   2.897  1.4474 -0.6296 -2.0096
 3907SOL     OW13161   3.204   3.422   4.839 -0.0338  0.1915  0.0697
 3907SOL    HW113162   3.165   3.347   4.794  0.8064 -0.4343  0.3770
 3907SOL    HW213163   3.241   3.386   4.919 -0.6060  1.1302  0.7807
 3908SOL     OW13164   3.929   6.833   8.099 -0.2161  0.5788  0.2481
 3908SOL    HW113165   3.877   6.789   8.032  1.0797 -0.9199  0.1742
 3908SOL    HW213166   3.882   6.817   8.181 -0.7533  0.7027 -0.0333
 3909SOL     OW13167   7.193   3.783   7.685 -0.4651  0.2849 -0.0233
 3909SOL    HW113168   7.120   3.764   7.745  0.1121  0.2264  0.6753
 3909SOL    HW213169   7.155   3.772   7.598 -1.4430  0.8069  0.3158
 3910SOL     OW13170   6.897   6.259   1.594 -0.0819  0.0918  0.3503
 3910SOL    HW113171   6.936   6.336   1.553 -0.1873 -1.1493 -2.2793
 3910SOL    HW213172   6.805   6.282   1.608  0.0919  0.7374  0.4527
 3911SOL     OW13173   1.125   7.564   8.097  0.2262  0.5257 -0.0440
 3911SOL    HW113174   1.161   7.642   8.139 -0.3669 -0.6218  2.7529
 3911SOL    HW213175   1.071   7.523   8.164 -1.8088 -0.8047 -2.3354
 3912SOL     OW13176   6.566   5.350   7.317  0.0689  0.0124 -0.1235
 3912SOL    HW113177   6.501   5.368   7.248 -0.3718 -0.4394  0.1680
 3912SOL    HW213178   6.552   5.258   7.339 -2.4983  1.0528  3.3464
 3913SOL     OW13179   6.712   7.972  10.455 -1.2464 -0.1249 -0.4047
 3913SOL    HW113180   6.779   7.951  10.520 -0.0180  1.0043 -1.2633
 3913SOL    HW213181   6.680   7.887  10.425  0.3513 -0.7293 -0.5002
 3914SOL     OW13182   7.408   4.603   7.743  0.3064 -0.2967 -0.6140
 3914SOL    HW113183   7.435   4.527   7.795 -0.9977 -1.6895 -1.8366
 3914SOL    HW213184   7.312   4.602   7.747  0.2577  1.2795 -0.7089
 3915SOL     OW13185   0.643   4.258   6.275 -0.3038  0.0338  0.1794
 3915SOL    HW113186   0.553   4.284   6.298  0.0723  1.4836  0.1123
 3915SOL    HW213187   0.696   4.291   6.348  0.1209 -1.3650  0.5298
 3916SOL     OW13188   3.129   1.630  11.558 -0.5175 -0.1320  0.1769
 3916SOL    HW113189   3.097   1.698  11.617  0.2033 -0.3638  0.8418
 3916SOL    HW213190   3.206   1.593  11.602 -0.6385 -1.0809 -0.3694
 3917SOL     OW13191   3.392   7.061   2.521 -0.1225 -1.0464  0.2324
 3917SOL    HW113192   3.354   7.074   2.433  0.6815 -2.6094 -0.3750
 3917SOL    HW213193   3.346   6.985   2.556  0.7605 -1.4828  0.4667
 3918SOL     OW13194   3.216   6.256   5.117  0.0525  0.1083  0.0626
 3918SOL    HW113195   3.299   6.213   5.098  0.1187 -0.6300  1.7710
 3918SOL    HW213196   3.208   6.249   5.213 -2.1435 -0.1731 -0.0979
 3919SOL     OW13197   2.865   2.470   6.477  0.5111 -0.3392  0.7332
 3919SOL    HW113198   2.833   2.434   6.559 -1.5781  1.0266  0.5941
 3919SOL    HW213199   2.940   2.524   6.502 -1.7633  2.3711  2.2947
 3920SOL     OW13200   7.872   6.824  11.172  0.1279 -0.1624 -0.1152
 3920SOL    HW113201   7.814   6.848  11.244  0.6353  0.3577  0.1248
 3920SOL    HW213202   7.927   6.901  11.159  0.3451 -0.4216 -0.7582
 3921SOL     OW13203   0.515   0.697   2.619  0.4707  0.4389 -0.3156
 3921SOL    HW113204   0.476   0.620   2.578 -0.4085 -0.4483  2.0282
 3921SOL    HW213205   0.440   0.748   2.650  1.0893  1.1065  0.1294
 3922SOL     OW13206   1.300   0.525   5.586 -0.6759  0.2933  0.5441
 3922SOL    HW113207   1.232   0.462   5.606 -0.0765 -0.9847 -1.1492
 3922SOL    HW213208   1.364   0.476   5.534  1.6553  1.3759  2.2134
 3923SOL     OW13209   2.849   5.896   6.510 -0.1841 -0.1413 -0.0002
 3923SOL    HW113210   2.907   5.821   6.498  0.7427  0.5764 -0.0640
 3923SOL    HW213211   2.827   5.895   6.603  0.9210  0.3008  0.2712
 3924SOL     OW13212   6.375   6.519   4.880  0.2975 -0.0439 -0.1547
 3924SOL    HW113213   6.432   6.594   4.863  2.5250 -1.6879 -0.3740
 3924SOL    HW213214   6.350   6.487   4.793  0.5901 -0.4444 -0.0941
 3925SOL     OW13215   2.312   7.259   3.193  0.2529 -0.2412 -0.7383
 3925SOL    HW113216   2.373   7.185   3.193  0.2591 -0.3668  2.4934
 3925SOL    HW213217   2.231   7.224   3.155  0.7287 -1.4755 -0.6524
 3926SOL     OW13218   2.127   5.479  11.735 -0.8928  0.2016  0.0883
 3926SOL    HW113219   2.071   5.496  11.810 -1.9136 -1.1182 -0.3392
 3926SOL    HW213220   2.164   5.392  11.751 -1.8317 -0.5001 -1.3224
 3927SOL     OW13221   1.799   4.884   3.442 -0.3506  0.1288  0.7514
 3927SOL    HW113222   1.854   4.807   3.459 -1.5783 -0.9590 -0.0995
 3927SOL    HW213223   1.794   4.891   3.347 -0.4010  1.1772  0.8112
 3928SOL     OW13224   4.228   5.149  10.273 -0.3605  0.0055 -0.3382
 3928SOL    HW113225   4.307   5.200  10.293  0.3103 -1.0087 -0.3731
 3928SOL    HW213226   4.157   5.201  10.311  0.4786  0.0977  1.1835
 3929SOL     OW13227   5.394   7.124   9.583 -0.2833 -0.5195  0.5951
 3929SOL    HW113228   5.489   7.114   9.587 -0.0551  0.8140 -0.6619
 3929SOL    HW213229   5.377   7.164   9.498 -2.1491 -2.3951  0.0122
 3930SOL     OW13230   4.842   2.235   9.400  0.3101  0.3124  0.5781
 3930SOL    HW113231   4.848   2.155   9.452  0.2584  0.1319  0.3074
 3930SOL    HW213232   4.748   2.256   9.399  0.1318 -0.4551 -0.5962
 3931SOL     OW13233   7.882   0.136  11.443  0.8697  0.3268  0.1505
 3931SOL    HW113234   7.891   0.177  11.357  0.0061 -0.7247 -0.4710
 3931SOL    HW213235   7.916   0.201  11.505  2.4796  0.7026 -1.0604
 3932SOL     OW13236   2.043   5.287   3.075  0.1895  0.2031 -0.2616
 3932SOL    HW113237   2.074   5.228   3.006 -0.9688 -1.0760  0.2578
 3932SOL    HW213238   1.952   5.260   3.090  0.4826  0.2748  1.9453
 3933SOL     OW13239   7.517   5.907  11.632 -0.2682  0.0866 -0.2266
 3933SOL    HW113240   7.612   5.904  11.640 -0.2775 -0.3622 -0.2762
 3933SOL    HW213241   7.490   5.972  11.697 -0.0660 -1.0531  1.0317
 3934SOL     OW13242   7.319   6.938   6.553 -0.1649 -0.2450 -0.6947
 3934SOL    HW113243   7.232   6.966   6.581  0.8023  1.4398  0.8651
 3934SOL    HW213244   7.367   7.020   6.539  1.4250 -1.1333 -0.6423
 3935SOL     OW13245   2.621   4.130   9.066  0.7638  0.4381 -0.0756
 3935SOL    HW113246   2.608   4.217   9.028 -2.1963  0.3367  0.4270
 3935SOL    HW213247   2.677   4.145   9.142 -0.3113  2.0881  0.4494
 3936SOL     OW13248   6.454   6.191   1.985 -0.0656 -0.1781  0.3425
 3936SOL    HW113249   6.498   6.141   1.916 -1.6357 -1.2332  0.0513
 3936SOL    HW213250   6.434   6.275   1.944  0.3480 -0.2470 -0.0044
 3937SOL     OW13251   6.340   7.053   7.338  0.1338  0.2639  0.6910
 3937SOL    HW113252   6.365   6.979   7.283 -0.8647  0.0704  0.4744
 3937SOL    HW213253   6.297   7.114   7.279  1.2017  1.1660  0.8158
 3938SOL     OW13254   5.849   6.357  10.150  0.5901 -0.2786  0.3992
 3938SOL    HW113255   5.775   6.418  10.148 -0.2198 -1.2485 -0.9359
 3938SOL    HW213256   5.819   6.285  10.206  0.3096 -0.9127 -0.5544
 3939SOL     OW13257   6.295   3.457   0.119  0.5782 -0.2625 -0.1641
 3939SOL    HW113258   6.282   3.508   0.040 -0.7032  0.9761  0.7923
 3939SOL    HW213259   6.327   3.372   0.089  1.1856  0.5488 -1.9045
 3940SOL     OW13260   2.987   0.187   9.141  0.5444  0.5002 -1.0323
 3940SOL    HW113261   3.019   0.269   9.103  0.9279  0.3141 -1.1122
 3940SOL    HW213262   2.903   0.171   9.097  0.5302  0.7829 -1.1069
 3941SOL     OW13263   1.585   2.627   2.717 -0.4669  0.2226  0.0079
 3941SOL    HW113264   1.568   2.640   2.624  1.3969  0.3756 -0.3394
 3941SOL    HW213265   1.510   2.669   2.760 -0.5498  1.6140 -1.3826
 3942SOL     OW13266   0.320   2.371   6.768 -0.2098 -0.1675 -0.1047
 3942SOL    HW113267   0.329   2.464   6.787  0.7723 -0.1411 -0.6744
 3942SOL    HW213268   0.269   2.368   6.687 -0.1120 -0.1250 -0.1672
 3943SOL     OW13269   5.029   1.625   7.300 -0.2613  0.3975  0.4814
 3943SOL    HW113270   5.076   1.602   7.220 -1.2687  0.0010 -0.0223
 3943SOL    HW213271   5.089   1.603   7.371  1.4726  2.6385 -0.1726
 3944SOL     OW13272   6.134   1.922  10.756  0.6640  0.2441  0.1439
 3944SOL    HW113273   6.178   1.837  10.768  2.5681  1.1029 -0.3770
 3944SOL    HW213274   6.056   1.901  10.704  1.6720 -1.0652 -0.9264
 3945SOL     OW13275   0.574   0.949  11.513 -0.2409  0.2858 -0.1891
 3945SOL    HW113276   0.654   0.924  11.559  0.4776  0.2026 -1.4233
 3945SOL    HW213277   0.522   0.869  11.508  0.6070 -0.2153 -1.3051
 3946SOL     OW13278   6.049   1.679   4.680  0.3993  0.1549 -0.1437
 3946SOL    HW113279   6.120   1.614   4.681 -0.3487 -0.7299 -1.5093
 3946SOL    HW213280   6.080   1.747   4.620  0.2946 -0.0069 -0.3836
 3947SOL     OW13281   1.138   4.715  12.125  0.2559 -0.1619 -0.8750
 3947SOL    HW113282   1.160   4.724  12.033  1.1149 -1.1116 -0.7712
 3947SOL    HW213283   1.075   4.786  12.141  1.0453  0.8030 -1.8739
 3948SOL     OW13284   0.090   7.689   0.129 -0.1749 -0.1090  0.3429
 3948SOL    HW113285   0.104   7.784   0.131 -0.9849  0.0035  1.1205
 3948SOL    HW213286   0.067   7.666   0.219 -0.5351 -0.9608  0.0415
 3949SOL     OW13287   4.660   1.341   4.180  0.1286  0.3217  0.2771
 3949SOL    HW113288   4.710   1.274   4.226  0.6209  0.3763 -0.1764
 3949SOL    HW213289   4.594   1.292   4.130  0.6063  0.1630 -0.1991
 3950SOL     OW13290   5.152   7.029  11.718  0.3563 -0.0564  0.7213
 3950SOL    HW113291   5.217   7.099  11.730  2.2602 -1.5051 -0.5332
 3950SOL    HW213292   5.082   7.070  11.667  2.7717  0.3513 -2.5697
 3951SOL     OW13293   6.987   6.045   0.872 -0.5013 -0.4475 -0.8734
 3951SOL    HW113294   6.912   5.986   0.869 -0.2093 -0.8315 -0.6270
 3951SOL    HW213295   6.952   6.129   0.840 -1.3218 -0.2992  0.3635
 3952SOL     OW13296   6.817   5.493   9.943  0.4878  0.0042 -0.8324
 3952SOL    HW113297   6.752   5.552   9.906  0.7105 -0.3409 -1.8100
 3952SOL    HW213298   6.886   5.550   9.977 -0.0729  0.3512 -0.2423
 3953SOL     OW13299   3.920   6.428   6.309  0.0653 -0.1890 -0.5906
 3953SOL    HW113300   3.826   6.422   6.293 -0.0831  1.8344 -0.7373
 3953SOL    HW213301   3.927   6.461   6.399  0.5385  1.6904 -1.2732
 3954SOL     OW13302   5.180   0.287   0.030 -0.4419 -0.1201 -0.1624
 3954SOL    HW113303   5.129   0.273   0.111 -1.9876 -1.8530 -1.3411
 3954SOL    HW213304   5.151   0.373  -0.001 -1.6746 -0.4703 -0.0724
 3955SOL     OW13305   2.303   0.561  12.137 -0.5393  0.3467 -0.4813
 3955SOL    HW113306   2.300   0.506  12.214  0.6740  2.7928  1.4796
 3955SOL    HW213307   2.358   0.513  12.075 -0.3664 -1.0756  0.7234
 3956SOL     OW13308   7.384   3.750   9.936  0.2488 -0.0696 -0.1200
 3956SOL    HW113309   7.433   3.759  10.017 -0.0649  0.9546 -0.0400
 3956SOL    HW213310   7.307   3.804   9.948 -0.3133 -0.7208 -0.7130
 3957SOL     OW13311   7.025   3.685   8.484 -0.1455 -0.4509 -0.3426
 3957SOL    HW113312   6.987   3.718   8.566  1.2541 -0.0904  0.2033
 3957SOL    HW213313   7.002   3.751   8.419  1.0387  0.7144  0.3574
 3958SOL     OW13314   2.949   4.297   5.628  0.3221  0.1649  0.3354
 3958SOL    HW113315   2.968   4.390   5.630  1.1233  0.0286 -0.1095
 3958SOL    HW213316   2.967   4.271   5.538 -2.2447  0.0196 -0.2097
 3959SOL     OW13317   3.700   7.681   6.029 -0.5726  0.4785 -0.3078
 3959SOL    HW113318   3.731   7.763   5.990  0.2751 -0.5800 -1.9495
 3959SOL    HW213319   3.606   7.694   6.040 -0.3507  1.9123  0.1281
 3960SOL     OW13320   6.183   2.925   5.983  0.0722  0.3168  0.5547
 3960SOL    HW113321   6.096   2.957   5.959 -0.7488 -1.7399  0.6063
 3960SOL    HW213322   6.181   2.832   5.960  2.6896  0.4692 -0.5958
 3961SOL     OW13323   7.630   6.152   1.875  0.1497 -0.2358  0.5559
 3961SOL    HW113324   7.720   6.147   1.905  1.0549 -2.3657 -2.0819
 3961SOL    HW213325   7.621   6.240   1.838  1.6985 -0.4927 -0.5180
 3962SOL     OW13326   3.132   1.436   2.584 -0.0235  0.9208 -0.3393
 3962SOL    HW113327   3.092   1.523   2.579 -1.8638  0.0593 -3.3560
 3962SOL    HW213328   3.059   1.375   2.576  1.1802 -1.0053  2.0987
 3963SOL     OW13329   1.828   7.967   4.309  0.1265  0.1020  0.4629
 3963SOL    HW113330   1.916   7.951   4.277  0.7530  0.5995  1.8459
 3963SOL    HW213331   1.824   8.062   4.322  0.1193 -0.1237  2.3552
 3964SOL     OW13332   2.172   4.524   9.569 -0.5509 -0.2931 -0.0094
 3964SOL    HW113333   2.172   4.620   9.574 -0.5628 -0.2270 -1.1064
 3964SOL    HW213334   2.080   4.500   9.581 -0.2321 -0.3683  3.0427
 3965SOL     OW13335   2.782   2.715   2.699  0.1729 -0.0654  0.5029
 3965SOL    HW113336   2.739   2.794   2.665 -1.4543 -1.1154  0.0051
 3965SOL    HW213337   2.777   2.653   2.627  0.2455 -1.0467  1.3251
 3966SOL     OW13338   2.350   0.352  12.416 -0.4557  0.2323  0.1031
 3966SOL    HW113339   2.331   0.263  12.387  1.1135 -0.1431  0.1292
 3966SOL    HW213340   2.445   0.358  12.414 -0.5100  1.7283  0.6614
 3967SOL     OW13341   7.423   3.833   9.618  0.5345  0.0764 -0.1039
 3967SOL    HW113342   7.426   3.798   9.708  2.5992  0.0980 -0.1128
 3967SOL    HW213343   7.387   3.921   9.628  1.9784  0.5960  0.9444
 3968SOL     OW13344   2.498   6.578   2.640 -0.3625  0.0891 -0.2034
 3968SOL    HW113345   2.496   6.610   2.549 -0.6302  0.4086 -0.0858
 3968SOL    HW213346   2.584   6.605   2.673  0.1038 -0.8075 -0.6365
 3969SOL     OW13347   5.789   1.969   6.461  0.5513  0.0021 -0.3903
 3969SOL    HW113348   5.819   1.905   6.525 -0.1175  1.1349  1.1075
 3969SOL    HW213349   5.743   1.917   6.395 -1.5643 -0.9755  1.6872
 3970SOL     OW13350   3.327   6.864   0.588  0.3332  0.2606  0.0111
 3970SOL    HW113351   3.316   6.938   0.648 -0.6331  1.1267 -1.1731
 3970SOL    HW213352   3.243   6.819   0.589  0.3538  0.2008 -0.5587
 3971SOL     OW13353   2.839   1.067   4.326  0.2540 -0.5044 -0.1359
 3971SOL    HW113354   2.754   1.104   4.301  0.1294 -0.9926 -0.4513
 3971SOL    HW213355   2.888   1.063   4.243  0.6437 -0.0767  0.0692
 3972SOL     OW13356   0.435   5.694   9.099 -0.1668 -0.6553  0.0818
 3972SOL    HW113357   0.367   5.635   9.067  0.8830 -0.7344 -2.1915
 3972SOL    HW213358   0.401   5.727   9.183 -2.3407 -1.7459 -0.3044
 3973SOL     OW13359   5.460   7.696   7.787 -0.4943 -0.1015 -0.5949
 3973SOL    HW113360   5.420   7.773   7.825 -2.1859 -1.2634  0.0881
 3973SOL    HW213361   5.421   7.689   7.700 -0.1174 -0.0247 -0.7725
 3974SOL     OW13362   6.457   3.677  10.031  0.4298 -0.0969 -0.1023
 3974SOL    HW113363   6.388   3.743  10.034 -0.1422 -0.5175 -2.2058
 3974SOL    HW213364   6.538   3.727  10.028  0.0514  0.4964 -0.6922
 3975SOL     OW13365   5.144   6.616   7.864  0.3288  0.3715 -0.1603
 3975SOL    HW113366   5.085   6.691   7.858  1.4665  1.1910 -2.0023
 3975SOL    HW213367   5.099   6.554   7.922 -2.8074  0.5278 -2.1844
 3976SOL     OW13368   5.775   2.456   6.566  0.2044 -0.1315 -0.2247
 3976SOL    HW113369   5.773   2.486   6.657  0.9471 -0.5922 -0.0479
 3976SOL    HW213370   5.798   2.534   6.515  1.2874 -0.1809  0.1507
 3977SOL     OW13371   3.546   5.332   7.283 -0.4627 -0.2263  0.3625
 3977SOL    HW113372   3.492   5.274   7.229  1.6427 -1.9014 -0.0764
 3977SOL    HW213373   3.621   5.353   7.228  0.1652  0.6740  1.5106
 3978SOL     OW13374   2.393   3.792  10.451  0.3431  0.2177 -0.0765
 3978SOL    HW113375   2.312   3.806  10.402  0.0844 -0.1128  0.2448
 3978SOL    HW213376   2.462   3.802  10.387  0.0257  0.1669 -0.4290
 3979SOL     OW13377   3.974   0.656   5.775  0.2877  0.3248  0.1382
 3979SOL    HW113378   3.999   0.627   5.687 -0.6321 -1.0254  0.2931
 3979SOL    HW213379   3.938   0.578   5.817 -1.8070  1.5529  0.7860
 3980SOL     OW13380   0.447   7.159   2.340  0.0915 -0.4604 -0.4565
 3980SOL    HW113381   0.504   7.155   2.416  0.4641  0.3238 -0.6864
 3980SOL    HW213382   0.360   7.176   2.376 -0.1016 -2.1190 -0.0722
 3981SOL     OW13383   5.534   2.022   5.746 -0.3572  0.2014 -0.2799
 3981SOL    HW113384   5.599   2.085   5.779  0.8120 -0.3798 -1.3678
 3981SOL    HW213385   5.484   1.997   5.823  0.2152  1.2444  0.4656
 3982SOL     OW13386   4.706   0.100   7.444  0.3787 -0.1958 -0.2859
 3982SOL    HW113387   4.720   0.127   7.353  1.5571  0.4037  0.0530
 3982SOL    HW213388   4.643   0.163   7.479  0.2883 -0.1381 -0.5519
 3983SOL     OW13389   6.029   1.128  12.451  0.6621  0.2289  0.4765
 3983SOL    HW113390   6.081   1.116  12.531  1.8550 -0.8660 -0.4079
 3983SOL    HW213391   6.081   1.188  12.397  2.0826 -2.3073 -1.2024
 3984SOL     OW13392   2.410   0.460   3.183 -0.2166  0.5969  0.0506
 3984SOL    HW113393   2.455   0.463   3.099  0.3783 -1.1701  0.2656
 3984SOL    HW213394   2.464   0.513   3.242  1.7116 -1.5603  0.3331
 3985SOL     OW13395   7.753   2.378   6.949 -0.1206 -0.0041 -0.1698
 3985SOL    HW113396   7.791   2.291   6.953  1.1635  0.5589  0.4990
 3985SOL    HW213397   7.799   2.422   6.878  0.6872  0.7466  0.7762
 3986SOL     OW13398   2.621   2.531   8.942  0.0987  0.2807  0.1243
 3986SOL    HW113399   2.602   2.443   8.977  0.2098  0.6502  1.1584
 3986SOL    HW213400   2.555   2.587   8.982  0.8446  0.8852  0.5421
 3987SOL     OW13401   5.903   0.931   9.925  0.1293 -0.6840 -0.3697
 3987SOL    HW113402   5.865   0.997   9.983  0.6290 -1.2714  0.6659
 3987SOL    HW213403   5.902   0.851   9.978  1.3107 -1.0592 -0.9052
 3988SOL     OW13404   2.842   0.675   7.972  0.1092  0.4929  0.4462
 3988SOL    HW113405   2.860   0.582   7.987  1.4043  0.6416 -0.0565
 3988SOL    HW213406   2.854   0.687   7.878  0.7774  1.3215  0.6235
 3989SOL     OW13407   6.553   6.316   1.506 -0.4942  0.3874  0.0923
 3989SOL    HW113408   6.482   6.256   1.530 -0.6285  0.7206  0.5440
 3989SOL    HW213409   6.525   6.401   1.540 -0.0632  0.5988 -0.0792
 3990SOL     OW13410   2.983   3.046   8.828 -0.0804  0.5562  0.2592
 3990SOL    HW113411   2.986   3.130   8.874 -0.0868  0.6380  0.1132
 3990SOL    HW213412   3.036   2.987   8.881  0.1175  0.7147  0.2408
 3991SOL     OW13413   0.736   7.035   5.131  0.0982 -0.6514 -0.4253
 3991SOL    HW113414   0.692   6.955   5.100 -1.1576 -0.8493  1.7187
 3991SOL    HW213415   0.679   7.106   5.102 -1.0272 -0.8305  1.2490
 3992SOL     OW13416   2.824   5.025  11.241  0.4362  0.8028  0.1219
 3992SOL    HW113417   2.822   5.073  11.323  0.7599  0.1512  0.5144
 3992SOL    HW213418   2.752   4.963  11.247 -0.7702  2.0281 -0.8922
 3993SOL     OW13419   1.726   7.503  10.265 -0.9304  0.4081 -0.1425
 3993SOL    HW113420   1.773   7.436  10.216  1.1481 -0.3462  2.6051
 3993SOL    HW213421   1.634   7.492  10.240 -0.4032 -2.1746 -1.2511
 3994SOL     OW13422   1.029   7.786   1.372  0.3097 -0.7424 -0.5688
 3994SOL    HW113423   0.939   7.798   1.343  0.1534  1.0608  0.4519
 3994SOL    HW213424   1.082   7.799   1.294 -0.1780  2.2422 -0.5351
 3995SOL     OW13425   4.648   0.813   5.809 -0.2570 -0.3320  0.4874
 3995SOL    HW113426   4.707   0.774   5.745  1.0854  0.5792  1.1238
 3995SOL    HW213427   4.624   0.898   5.771 -2.2024 -1.1840 -0.3355
 3996SOL     OW13428   2.889   5.225   1.850  0.4834 -0.2235 -0.4749
 3996SOL    HW113429   2.889   5.304   1.903 -0.2652 -0.0158 -0.7752
 3996SOL    HW213430   2.935   5.160   1.904  0.1866  0.1263  0.2103
 3997SOL     OW13431   0.304   7.453   3.551  0.7664 -0.1174 -0.2014
 3997SOL    HW113432   0.333   7.443   3.642  0.7175 -0.9919 -0.2715
 3997SOL    HW213433   0.289   7.547   3.541  0.4981 -0.0417  0.7799
 3998SOL     OW13434   0.621   1.027   9.757  0.2169  0.6198 -0.1500
 3998SOL    HW113435   0.627   1.081   9.678  0.4117  0.5920 -0.1565
 3998SOL    HW213436   0.641   0.938   9.726 -0.8953  0.4023 -0.2884
 3999SOL     OW13437   3.088   1.465   4.124  0.0716 -0.0822  0.2511
 3999SOL    HW113438   3.036   1.475   4.204 -0.4836  0.6307 -0.1835
 3999SOL    HW213439   3.071   1.545   4.075  0.8144 -0.2835 -0.3530
 4000SOL     OW13440   7.796   6.648   0.424 -0.2160 -0.5705  0.2634
 4000SOL    HW113441   7.748   6.699   0.360  0.7092 -3.6676 -3.2578
 4000SOL    HW213442   7.855   6.710   0.466 -1.4270  1.7687 -1.3068
 4001SOL     OW13443   2.986   3.788  12.302 -0.8221 -0.1476  0.4179
 4001SOL    HW113444   3.045   3.843  12.249 -1.3457 -0.4223 -0.4717
 4001SOL    HW213445   2.908   3.779  12.248 -0.9419 -1.3581  0.7682
 4002SOL     OW13446   5.111   1.873   0.737  0.2941 -0.4020 -0.4238
 4002SOL    HW113447   5.194   1.826   0.751  1.5832  1.7922 -0.2520
 4002SOL    HW213448   5.071   1.876   0.823 -1.0818 -3.2477 -0.8339
 4003SOL     OW13449   2.351   7.207  10.797 -0.7250  0.2337 -0.3361
 4003SOL    HW113450   2.265   7.167  10.811  0.2853 -1.9884 -0.1380
 4003SOL    HW213451   2.352   7.226  10.703 -1.6122  0.7678 -0.2547
 4004SOL     OW13452   4.665   4.651   3.104  0.3423 -0.3565 -0.0700
 4004SOL    HW113453   4.680   4.629   3.196 -2.4670 -0.9784  0.3264
 4004SOL    HW213454   4.695   4.742   3.096 -1.4776  0.5328  2.1248
 4005SOL     OW13455   7.193   7.582   5.425  0.4387  0.1848  0.2033
 4005SOL    HW113456   7.101   7.561   5.445  0.4184 -0.7808 -0.8782
 4005SOL    HW213457   7.235   7.587   5.511 -0.5580  0.3321  0.6980
 4006SOL     OW13458   6.131   7.266   0.770 -0.0266  0.0211 -0.2511
 4006SOL    HW113459   6.218   7.298   0.745 -1.0142  1.9406 -1.4764
 4006SOL    HW213460   6.105   7.209   0.698  0.6505 -1.4966  0.6699
 4007SOL     OW13461   4.871   5.272   3.423  0.5296 -1.1333 -0.1179
 4007SOL    HW113462   4.779   5.251   3.407  0.1985  0.5962 -0.7038
 4007SOL    HW213463   4.910   5.275   3.335  0.5844  0.4499 -0.0543
 4008SOL     OW13464   1.447   1.443   7.210 -0.5142 -0.1617 -0.7464
 4008SOL    HW113465   1.358   1.457   7.243 -0.4090 -1.8653  0.3756
 4008SOL    HW213466   1.495   1.522   7.235 -0.9288 -0.5671  1.5361
 4009SOL     OW13467   0.235   1.842  11.512 -0.2609  0.1916 -0.1995
 4009SOL    HW113468   0.306   1.811  11.568 -0.2058 -1.5207 -1.1378
 4009SOL    HW213469   0.232   1.936  11.527  1.3207  0.1163  0.8618
 4010SOL     OW13470   4.925   0.270  11.227  0.2344 -0.6941  0.0959
 4010SOL    HW113471   4.942   0.364  11.231 -1.6195 -0.1879 -1.7445
 4010SOL    HW213472   4.850   0.262  11.167 -0.4293 -3.2574  1.1304
 4011SOL     OW13473   1.011   5.485   0.572  0.4495  0.5053 -0.3255
 4011SOL    HW113474   1.085   5.542   0.554 -0.6687  1.8053 -0.9827
 4011SOL    HW213475   1.047   5.396   0.566  2.0833  1.0961  0.0978
 4012SOL     OW13476   2.140   4.858   0.209 -0.1173 -0.0480 -0.5191
 4012SOL    HW113477   2.081   4.801   0.258 -2.0326  1.0408 -1.4579
 4012SOL    HW213478   2.145   4.939   0.260  0.2469  0.0206 -0.6573
 4013SOL     OW13479   5.801   3.849   0.139 -0.0220 -0.0968  0.1346
 4013SOL    HW113480   5.797   3.906   0.062  0.2990 -0.8465 -0.4517
 4013SOL    HW213481   5.830   3.765   0.105 -0.8794 -0.7368  0.9251
 4014SOL     OW13482   4.107   6.323   5.825 -0.1909  0.0664  0.3927
 4014SOL    HW113483   4.143   6.234   5.833 -0.5616 -0.2623 -1.1394
 4014SOL    HW213484   4.018   6.310   5.792 -0.1848  1.0029 -0.0254
 4015SOL     OW13485   3.352   7.389   6.637  0.9618  0.6603 -0.3316
 4015SOL    HW113486   3.277   7.408   6.693  0.1107 -1.3006 -0.7169
 4015SOL    HW213487   3.317   7.394   6.548  1.5257  0.6508 -0.5586
 4016SOL     OW13488   5.451   1.908   2.517  0.6761  0.0035  0.5124
 4016SOL    HW113489   5.489   1.930   2.432 -0.0408 -0.6430  0.0203
 4016SOL    HW213490   5.447   1.813   2.518  0.4276  0.0168  1.1666
 4017SOL     OW13491   5.530   0.635   8.919  0.7845  0.6383 -0.4208
 4017SOL    HW113492   5.483   0.587   8.850 -0.2160  0.4965  0.3334
 4017SOL    HW213493   5.610   0.665   8.876  0.9315 -0.7718 -1.2189
 4018SOL     OW13494   7.103   6.412  10.797  0.0122 -0.1828  0.2667
 4018SOL    HW113495   7.022   6.441  10.838  0.2846  0.1430  0.5815
 4018SOL    HW213496   7.159   6.386  10.870  0.4452  0.2548  0.1019
 4019SOL     OW13497   6.517   5.504   7.521 -0.2326 -0.0161  0.4387
 4019SOL    HW113498   6.598   5.498   7.572 -0.8157 -0.2611  1.3647
 4019SOL    HW213499   6.540   5.468   7.435  0.7089  0.1812  0.5956
 4020SOL     OW13500   4.351   5.278   6.171  0.0560 -0.5241  0.0084
 4020SOL    HW113501   4.359   5.246   6.261 -0.0899  1.6380  0.8625
 4020SOL    HW213502   4.384   5.368   6.175 -0.9550 -0.0146 -1.8731
 4021SOL     OW13503   3.483   7.869  12.291  0.3395 -0.0799  0.4829
 4021SOL    HW113504   3.401   7.908  12.260 -0.7077 -0.8660  2.0887
 4021SOL    HW213505   3.490   7.786  12.243  0.7186  0.4404 -0.3689
 4022SOL     OW13506   5.476   7.161   3.070  0.1559 -0.1073 -0.0307
 4022SOL    HW113507   5.528   7.201   3.140  0.9564 -1.3025  0.0913
 4022SOL    HW213508   5.420   7.232   3.039  0.7165  0.7990  0.9290
 4023SOL     OW13509   1.082   0.036   9.714 -0.5757  0.2227  0.3815
 4023SOL    HW113510   1.103  -0.038   9.657  0.5214 -1.3660  2.7227
 4023SOL    HW213511   1.157   0.095   9.706  0.1149 -0.5495  1.0086
 4024SOL     OW13512   6.304   5.144   1.769 -0.4284 -0.6119  0.0230
 4024SOL    HW113513   6.355   5.223   1.788  0.1125 -1.3279  1.8731
 4024SOL    HW213514   6.246   5.169   1.698  1.3254  0.7535 -1.0286
 4025SOL     OW13515   6.120   1.078   9.829 -0.3725  0.2112  0.1913
 4025SOL    HW113516   6.110   1.096   9.735 -3.3831 -2.0887 -0.0962
 4025SOL    HW213517   6.050   1.015   9.849  0.1367  0.6048  4.0113
 4026SOL     OW13518   1.995   4.758  11.320 -0.8227  0.7021  0.0488
 4026SOL    HW113519   1.940   4.746  11.242  1.2742 -1.3070 -1.2098
 4026SOL    HW213520   2.061   4.822  11.293  2.5088 -2.9960 -1.5075
 4027SOL     OW13521   2.803   6.571   8.208  0.0830  0.4676 -0.2206
 4027SOL    HW113522   2.718   6.605   8.235 -0.3119 -0.4766 -0.2072
 4027SOL    HW213523   2.802   6.579   8.112  0.1160  0.7771 -0.1939
 4028SOL     OW13524   5.565   3.425   2.804  0.5250 -0.0045 -0.1646
 4028SOL    HW113525   5.615   3.392   2.879  0.2874 -2.4149 -0.9715
 4028SOL    HW213526   5.483   3.376   2.807 -0.3573  1.3888 -0.8193
 4029SOL     OW13527   1.235   4.126   0.886  0.5073 -0.4970  0.9936
 4029SOL    HW113528   1.294   4.112   0.813  0.7305 -1.0988  1.2855
 4029SOL    HW213529   1.150   4.144   0.846  0.9062  0.5171  0.5683
 4030SOL     OW13530   6.587   5.764   2.009 -0.1177  0.0133  0.2297
 4030SOL    HW113531   6.626   5.776   1.923 -0.3057  0.9494  0.2585
 4030SOL    HW213532   6.649   5.710   2.057  2.7006  3.6878  1.2168
 4031SOL     OW13533   7.016   1.189   7.888  0.3720 -0.7478 -0.2450
 4031SOL    HW113534   7.013   1.096   7.910  1.7703 -0.3065  2.1209
 4031SOL    HW213535   7.104   1.203   7.855  0.7064  0.0026  0.9112
 4032SOL     OW13536   4.273   5.943   1.589  0.1586  0.5616  0.3658
 4032SOL    HW113537   4.318   6.026   1.608  2.1835 -0.6821  1.4361
 4032SOL    HW213538   4.185   5.969   1.561  1.0678  3.1079 -0.4602
 4033SOL     OW13539   2.720   5.518  10.534  0.0856 -0.3991 -0.2258
 4033SOL    HW113540   2.792   5.511  10.470  0.4810  0.1669  0.1486
 4033SOL    HW213541   2.641   5.518  10.481  0.3892 -0.4612 -0.6847
 4034SOL     OW13542   2.648   6.641   5.080  0.7650 -0.0254  0.5789
 4034SOL    HW113543   2.628   6.594   4.999 -2.4244  0.2142  1.1185
 4034SOL    HW213544   2.639   6.576   5.149  0.5673  0.4389  0.9945
 4035SOL     OW13545   6.662   5.502   3.396 -0.0362  0.0337 -0.0061
 4035SOL    HW113546   6.610   5.440   3.447 -0.9325  1.1575  0.4845
 4035SOL    HW213547   6.624   5.499   3.308 -0.3045  0.1413  0.1060
 4036SOL     OW13548   4.791   3.486   2.275 -0.3407 -0.1828  0.0601
 4036SOL    HW113549   4.880   3.457   2.297  0.8789  2.2595 -1.1763
 4036SOL    HW213550   4.787   3.576   2.309 -2.6978 -0.5163  0.8311
 4037SOL     OW13551   0.626   7.294  10.443 -0.3145  0.3511 -0.3930
 4037SOL    HW113552   0.661   7.371  10.398  1.1005 -0.1615 -0.2175
 4037SOL    HW213553   0.697   7.265  10.501 -0.3785 -1.7579 -1.2735
 4038SOL     OW13554   1.164   5.930  11.397  0.4714 -0.7113 -0.0059
 4038SOL    HW113555   1.248   5.932  11.352  0.0775  2.3589 -0.8290
 4038SOL    HW213556   1.169   6.000  11.462 -0.6850 -1.9608  1.5276
 4039SOL     OW13557   1.139   6.621  11.197  0.1627 -0.3105  0.7108
 4039SOL    HW113558   1.121   6.610  11.103  0.2380 -0.6892  0.7372
 4039SOL    HW213559   1.209   6.686  11.201  1.3130 -1.4659  0.4018
 4040SOL     OW13560   7.875   2.437   5.271 -0.2765  0.8465 -0.5904
 4040SOL    HW113561   7.858   2.516   5.220  0.3168  0.3854 -1.5354
 4040SOL    HW213562   7.816   2.371   5.234 -0.6197  0.7796  0.0533
 4041SOL     OW13563   5.752   6.368   4.005  0.5611 -0.2833 -0.5017
 4041SOL    HW113564   5.699   6.289   3.994 -0.3695  0.3741 -0.8359
 4041SOL    HW213565   5.741   6.391   4.097  0.8047 -0.5086 -0.4122
 4042SOL     OW13566   7.676   3.878  11.014  0.0709 -0.0103  0.0965
 4042SOL    HW113567   7.691   3.829  10.933  1.0196 -0.0725  0.2983
 4042SOL    HW213568   7.588   3.852  11.042  0.7385 -2.0266  0.4829
 4043SOL     OW13569   2.403   0.047   6.969 -0.1900 -0.1166  0.0571
 4043SOL    HW113570   2.446  -0.004   7.038  0.5080 -0.4455 -0.6058
 4043SOL    HW213571   2.334   0.095   7.014  0.2191 -0.3725  0.9737
 4044SOL     OW13572   3.618   1.667  10.291  0.1171 -0.0009  0.0866
 4044SOL    HW113573   3.561   1.636  10.220 -1.4737  0.4884  1.1027
 4044SOL    HW213574   3.696   1.698  10.246 -0.5259 -0.3976 -1.3982
 4045SOL     OW13575   3.506   5.431  10.671  0.1176 -0.3112  0.6756
 4045SOL    HW113576   3.457   5.500  10.628 -0.2548 -1.1431 -0.2683
 4045SOL    HW213577   3.596   5.463  10.674 -0.0607  0.2334  0.2925
 4046SOL     OW13578   7.598   3.524  12.155 -0.5540 -0.3596  0.2316
 4046SOL    HW113579   7.608   3.431  12.132 -0.9404 -0.4366  0.3652
 4046SOL    HW213580   7.592   3.568  12.070 -3.0011 -0.7607  0.1226
 4047SOL     OW13581   5.683   5.405   6.773  0.1132 -0.1981 -0.1063
 4047SOL    HW113582   5.722   5.461   6.706 -0.0399  0.3711  0.2802
 4047SOL    HW213583   5.742   5.412   6.848 -0.4789  0.3067  0.3212
 4048SOL     OW13584   6.163   7.501   4.093 -0.0985 -0.1105  0.1122
 4048SOL    HW113585   6.214   7.472   4.168  1.3670 -1.1317 -1.2008
 4048SOL    HW213586   6.228   7.540   4.034 -0.6302 -2.1907 -1.9922
 4049SOL     OW13587   2.781   3.419   1.678 -0.1596  0.4768  0.1296
 4049SOL    HW113588   2.856   3.370   1.713 -0.9653 -1.8177 -1.1838
 4049SOL    HW213589   2.818   3.471   1.607  0.3061 -0.0475 -0.0172
 4050SOL     OW13590   5.111   6.466   6.902  0.6324 -0.1798  0.2391
 4050SOL    HW113591   5.171   6.393   6.888  1.2367  0.2192  0.7462
 4050SOL    HW213592   5.078   6.453   6.991 -2.1553 -1.9405 -0.9127
 4051SOL     OW13593   7.880   5.498   3.184  0.1204  0.0272  0.4934
 4051SOL    HW113594   7.965   5.526   3.150  0.7619 -3.7520 -1.5266
 4051SOL    HW213595   7.816   5.543   3.128  1.0367 -1.2542 -1.7325
 4052SOL     OW13596   3.119   0.455   0.424  0.0593 -1.1929 -0.4591
 4052SOL    HW113597   3.204   0.493   0.444 -0.2943  0.4762 -1.8714
 4052SOL    HW213598   3.066   0.529   0.394 -1.3220 -2.4879 -1.3647
 4053SOL     OW13599   2.656   7.099   4.842 -0.3753  0.0292  0.4157
 4053SOL    HW113600   2.698   7.031   4.894 -0.2108 -0.2576 -0.0909
 4053SOL    HW213601   2.599   7.144   4.904  1.6106  1.2622  1.4774
 4054SOL     OW13602   4.407   0.767   0.422 -0.0974 -0.0106 -0.7386
 4054SOL    HW113603   4.404   0.759   0.327  1.0184 -0.3238 -0.7661
 4054SOL    HW213604   4.384   0.680   0.454  1.4294 -0.4681 -0.7899
 4055SOL     OW13605   3.635   1.847   2.681 -0.0082 -0.5717  0.2477
 4055SOL    HW113606   3.635   1.873   2.773 -1.6981 -0.0463  0.1453
 4055SOL    HW213607   3.611   1.754   2.682  1.0347 -0.8460  0.3767
 4056SOL     OW13608   5.662   7.209   8.634 -0.1820  0.6228  0.3192
 4056SOL    HW113609   5.731   7.143   8.649 -0.3572  0.3794  0.0774
 4056SOL    HW213610   5.580   7.161   8.645 -0.3140  0.9387  0.7096
 4057SOL     OW13611   4.499   6.306   4.952  0.3636 -0.3587 -0.2938
 4057SOL    HW113612   4.418   6.286   5.000 -0.4348  2.9046 -0.0226
 4057SOL    HW213613   4.486   6.270   4.865 -1.1612 -0.4038 -0.0680
 4058SOL     OW13614   7.276   3.262  10.172 -0.2367  0.1264 -0.3136
 4058SOL    HW113615   7.289   3.265  10.266  0.6813 -0.9462 -0.3805
 4058SOL    HW213616   7.321   3.340  10.139 -0.8519  0.6854  0.1528
 4059SOL     OW13617   4.036   7.504  10.631 -0.3474  0.9572  0.4242
 4059SOL    HW113618   4.095   7.518  10.556 -0.1823 -0.2434  0.3151
 4059SOL    HW213619   4.001   7.416  10.618 -0.7492  0.9473  1.4752
 4060SOL     OW13620   3.790   3.949   6.612 -0.0891 -0.4438 -0.2094
 4060SOL    HW113621   3.863   3.889   6.625  0.5186  0.5433  1.1248
 4060SOL    HW213622   3.831   4.035   6.608 -1.1804  0.1455  0.7541
 4061SOL     OW13623   3.780   3.418  12.277  0.5916 -0.7750  0.1774
 4061SOL    HW113624   3.857   3.376  12.239 -0.1612 -0.3584 -1.9603
 4061SOL    HW213625   3.746   3.473  12.206 -0.8817  0.1246  1.5250
 4062SOL     OW13626   5.695   1.273   7.172 -0.1534  0.2879  0.0711
 4062SOL    HW113627   5.690   1.193   7.119  0.4050  0.8053 -0.7843
 4062SOL    HW213628   5.663   1.342   7.113 -2.5759  0.4305  1.4357
 4063SOL     OW13629   1.956   4.568   6.830  0.4256 -0.3207 -0.3190
 4063SOL    HW113630   1.884   4.631   6.831  0.7766  0.1309 -1.7621
 4063SOL    HW213631   2.035   4.622   6.838  0.6303 -0.8119  1.2391
 4064SOL     OW13632   1.753   3.312  10.825  0.1138 -0.3239 -0.4490
 4064SOL    HW113633   1.702   3.386  10.857  1.5737 -0.5437  2.7772
 4064SOL    HW213634   1.701   3.235  10.846  0.7771 -0.4304  0.9084
 4065SOL     OW13635   5.684   7.103   7.717 -0.6263 -0.7947 -0.2132
 4065SOL    HW113636   5.592   7.107   7.691 -1.2500 -3.1226  1.2498
 4065SOL    HW213637   5.688   7.029   7.778  1.9295  0.2166  1.0084
 4066SOL     OW13638   6.429   2.251   5.277 -0.5741  0.3395 -0.4338
 4066SOL    HW113639   6.372   2.174   5.274  0.6537 -0.5912 -0.6787
 4066SOL    HW213640   6.514   2.217   5.305  0.1644  1.4936 -1.1953
 4067SOL     OW13641   2.363   6.539   9.143  0.0383  0.2458 -0.0273
 4067SOL    HW113642   2.271   6.513   9.140 -0.0002 -0.3816  3.1356
 4067SOL    HW213643   2.361   6.634   9.155 -0.0764  0.5355 -2.0234
 4068SOL     OW13644   0.093   0.551  10.639  0.1272  0.7043  0.5734
 4068SOL    HW113645   0.033   0.615  10.602 -0.7492 -0.1150  0.5206
 4068SOL    HW213646   0.036   0.491  10.688  0.9656  0.2002  0.9563
 4069SOL     OW13647   1.953   5.742   6.123  0.1049  0.4084  0.1086
 4069SOL    HW113648   1.918   5.823   6.160 -0.3249  0.3459 -0.1638
 4069SOL    HW213649   1.996   5.699   6.197 -0.1049  0.6404  0.3668
 4070SOL     OW13650   6.376   4.824   8.041  0.3319 -0.5833 -0.7210
 4070SOL    HW113651   6.372   4.858   8.131  0.6219  1.7912 -1.5357
 4070SOL    HW213652   6.285   4.812   8.016  0.2083 -0.2103 -0.4631
 4071SOL     OW13653   5.861   3.476   5.866 -0.0845  0.0876 -0.2714
 4071SOL    HW113654   5.927   3.480   5.797  0.9584  1.8098  0.7695
 4071SOL    HW213655   5.778   3.467   5.819  0.6334  0.7615 -1.7346
 4072SOL     OW13656   7.125   4.517   3.875 -0.7576  0.2101 -0.5849
 4072SOL    HW113657   7.054   4.533   3.937 -0.0856 -0.6446  0.4302
 4072SOL    HW213658   7.091   4.449   3.817 -0.7879 -0.1880 -0.1092
 4073SOL     OW13659   0.616   0.971   5.316 -0.5118  0.6798  0.3175
 4073SOL    HW113660   0.542   1.031   5.326 -0.4234  0.4504  3.2413
 4073SOL    HW213661   0.679   1.001   5.381  1.1582 -0.3463 -0.7597
 4074SOL     OW13662   3.424   1.364   4.485  0.3803  0.1959  0.0370
 4074SOL    HW113663   3.415   1.330   4.397  0.1900 -0.8802  0.4609
 4074SOL    HW213664   3.358   1.317   4.536  1.1513  0.0771  0.9575
 4075SOL     OW13665   2.876   4.840   7.121  0.1923 -0.0877  1.0182
 4075SOL    HW113666   2.861   4.826   7.028 -0.7375  0.7989  1.0158
 4075SOL    HW213667   2.932   4.766   7.148  0.5968 -0.2676 -0.2560
 4076SOL     OW13668   0.972   4.016   0.572 -0.2033 -0.5036 -0.9228
 4076SOL    HW113669   0.988   4.085   0.508  3.1640 -0.2043  0.0477
 4076SOL    HW213670   0.877   4.016   0.584 -0.7481  0.9343 -4.1715
 4077SOL     OW13671   7.528   6.313   7.349 -0.2969 -0.3477  0.4947
 4077SOL    HW113672   7.614   6.345   7.375 -0.2768 -0.1407  0.1805
 4077SOL    HW213673   7.469   6.387   7.364 -0.5819 -0.7862  1.5874
 4078SOL     OW13674   0.190   4.083   5.968  0.6848  0.1986  0.1984
 4078SOL    HW113675   0.176   4.017   6.035  0.9635 -0.3184 -0.2439
 4078SOL    HW213676   0.102   4.104   5.936  0.3935  1.5405  1.7251
 4079SOL     OW13677   0.691   4.652   8.927  0.0367 -0.0862 -0.0035
 4079SOL    HW113678   0.704   4.745   8.947  3.2393 -0.1148 -1.3060
 4079SOL    HW213679   0.657   4.651   8.837 -0.5277 -0.1799  0.2076
 4080SOL     OW13680   2.855   7.790   7.831 -0.0514  0.4055 -0.4114
 4080SOL    HW113681   2.812   7.862   7.786 -0.8264 -1.2287 -2.4819
 4080SOL    HW213682   2.929   7.767   7.775  0.6669  0.1007  0.6376
 4081SOL     OW13683   6.724   4.963   9.314  0.3306 -0.2451  0.6546
 4081SOL    HW113684   6.704   5.056   9.325  1.7301  0.3661 -1.3223
 4081SOL    HW213685   6.781   4.942   9.388  0.6789  0.7131  0.6748
 4082SOL     OW13686   7.819   0.696   7.695  0.1456 -0.0743  0.3636
 4082SOL    HW113687   7.890   0.755   7.721 -0.9272  1.1953  0.5201
 4082SOL    HW213688   7.780   0.738   7.619  0.3274 -1.4002 -0.5004
 4083SOL     OW13689   3.092   6.368   3.254 -0.7394  0.6147 -0.0902
 4083SOL    HW113690   3.079   6.382   3.347  0.2540 -2.0798  0.5644
 4083SOL    HW213691   3.184   6.388   3.238  0.1122 -2.4281  0.4105
 4084SOL     OW13692   6.554   0.377   9.509  0.4056  0.0636 -0.0906
 4084SOL    HW113693   6.469   0.364   9.551 -0.1518  1.5728 -0.7116
 4084SOL    HW213694   6.581   0.289   9.483 -1.0504 -0.4237 -0.0575
 4085SOL     OW13695   6.911   5.238   2.436  0.3932 -0.1027  0.1473
 4085SOL    HW113696   6.947   5.184   2.365  1.9094  0.7806  0.1892
 4085SOL    HW213697   6.985   5.251   2.495  0.6493  3.4854 -0.7511
 4086SOL     OW13698   3.863   6.287  10.809  0.6040 -0.1120 -0.7636
 4086SOL    HW113699   3.951   6.323  10.811  0.2954  0.7195 -1.4831
 4086SOL    HW213700   3.861   6.230  10.733  0.4390  0.1174 -0.9360
 4087SOL     OW13701   2.793   4.611   3.466 -0.1562  0.4948 -0.2108
 4087SOL    HW113702   2.708   4.641   3.499 -1.0607 -1.8557 -0.1537
 4087SOL    HW213703   2.808   4.527   3.510  0.8446 -0.4964 -2.2419
 4088SOL     OW13704   2.170   1.645   9.814  0.0723  0.0518 -0.0865
 4088SOL    HW113705   2.147   1.573   9.874 -1.2122  0.6548  0.1820
 4088SOL    HW213706   2.210   1.711   9.871 -0.6623  0.4037  0.0334
 4089SOL     OW13707   6.582   2.462   7.277 -0.6460 -0.3518  0.3109
 4089SOL    HW113708   6.672   2.475   7.249 -0.5483 -1.0899  0.2630
 4089SOL    HW213709   6.541   2.548   7.266  0.1736  0.1112  0.8235
 4090SOL     OW13710   4.178   1.719   2.392  0.1810  0.0381  0.3169
 4090SOL    HW113711   4.272   1.732   2.387  0.0250  1.2850  0.2319
 4090SOL    HW213712   4.162   1.693   2.483  0.5642  0.2108  0.4335
 4091SOL     OW13713   7.910   6.232   1.573 -0.2989 -0.2920 -0.4900
 4091SOL    HW113714   7.916   6.137   1.589  3.0702 -0.0034  0.7869
 4091SOL    HW213715   7.922   6.271   1.660  0.1460  1.3141 -1.2383
 4092SOL     OW13716   4.439   1.047  12.066  0.1018 -0.1034 -0.0634
 4092SOL    HW113717   4.534   1.035  12.065  0.1105 -0.6071  2.2602
 4092SOL    HW213718   4.404   0.958  12.072 -0.4280  0.1685  1.1109
 4093SOL     OW13719   6.501   5.725  12.161 -0.1979 -0.0439 -0.7039
 4093SOL    HW113720   6.461   5.643  12.189 -2.1581  0.5075 -1.6675
 4093SOL    HW213721   6.588   5.701  12.131 -0.5450 -1.6932 -0.4688
 4094SOL     OW13722   7.071   7.240   9.506 -0.4235 -0.3539  0.0365
 4094SOL    HW113723   7.123   7.181   9.452  0.4186 -0.6085  1.0780
 4094SOL    HW213724   7.118   7.242   9.590  0.5679  3.0985 -0.4584
 4095SOL     OW13725   2.242   6.109  10.795  0.5461  0.1813  0.1586
 4095SOL    HW113726   2.219   6.166  10.869 -1.7663 -1.9232  1.1811
 4095SOL    HW213727   2.338   6.117  10.789  0.9739 -0.0650  3.8616
 4096SOL     OW13728   7.198   0.078   4.497 -0.7021  0.1649 -0.2041
 4096SOL    HW113729   7.206   0.160   4.545 -2.2349 -0.3267  0.9832
 4096SOL    HW213730   7.227   0.011   4.559 -0.3785 -0.2687 -0.8178
 4097SOL     OW13731   2.794   0.211   4.423 -0.7780  0.2532  0.3144
 4097SOL    HW113732   2.794   0.220   4.328  3.7780 -2.0605 -0.1887
 4097SOL    HW213733   2.751   0.127   4.440 -1.9728  0.8638  0.4095
 4098SOL     OW13734   4.745   0.705   0.877 -0.4656 -0.0294 -0.3676
 4098SOL    HW113735   4.669   0.647   0.882 -1.4158  1.2232  0.3740
 4098SOL    HW213736   4.710   0.788   0.844  0.7765  0.2679 -1.0034
 4099SOL     OW13737   3.438   5.561   9.531 -0.2001  0.0898  0.3548
 4099SOL    HW113738   3.400   5.646   9.550  0.1755 -0.2005  2.6598
 4099SOL    HW213739   3.370   5.498   9.554  0.1923 -0.2807  0.5343
 4100SOL     OW13740   3.972   2.021  11.434  0.4723 -0.0458  0.1791
 4100SOL    HW113741   4.043   2.016  11.498 -1.0788 -0.7108  1.9641
 4100SOL    HW213742   3.963   2.114  11.414  0.0375  0.3707  2.1255
 4101SOL     OW13743   4.280   0.069   3.725 -0.9384 -0.4033 -0.1165
 4101SOL    HW113744   4.292   0.103   3.814 -2.0770  1.7648 -0.7120
 4101SOL    HW213745   4.344   0.117   3.672 -1.2694 -0.5939 -0.7027
 4102SOL     OW13746   1.631   1.685   6.696  0.1966 -0.3073 -0.1973
 4102SOL    HW113747   1.597   1.629   6.626 -1.9109 -0.4429  0.8523
 4102SOL    HW213748   1.563   1.683   6.763  1.1274  1.6539  0.8778
 4103SOL     OW13749   5.485   4.671   8.584  0.4463 -0.0962  0.7008
 4103SOL    HW113750   5.500   4.581   8.613 -0.4404  0.0199  1.5698
 4103SOL    HW213751   5.448   4.662   8.496  0.4021 -0.5703  0.7639
 4104SOL     OW13752   1.078   2.960  10.570  0.0495 -0.8542  0.6752
 4104SOL    HW113753   1.086   2.961  10.474  0.2332 -0.9416  0.6907
 4104SOL    HW213754   1.003   2.902  10.586 -0.4729 -0.2250  0.5486
 4105SOL     OW13755   2.167   7.020   2.408 -0.3803 -0.2038  0.4772
 4105SOL    HW113756   2.206   7.099   2.372 -0.5500 -0.6020 -0.6239
 4105SOL    HW213757   2.099   7.051   2.467 -2.8970  0.5952 -2.5337
 4106SOL     OW13758   1.675   0.088   1.448 -0.2985 -0.0065 -0.4591
 4106SOL    HW113759   1.629   0.056   1.525 -1.5938 -0.2623 -1.3057
 4106SOL    HW213760   1.645   0.178   1.437  0.3816  0.2475 -0.3020
 4107SOL     OW13761   2.986   7.745   8.981 -0.1329 -0.1948  0.3751
 4107SOL    HW113762   3.053   7.729   8.915 -1.2995 -2.0498 -0.4156
 4107SOL    HW213763   3.028   7.806   9.043  1.4651  0.4706 -1.2814
 4108SOL     OW13764   4.398   4.668   3.115  0.0500  0.0159 -0.2303
 4108SOL    HW113765   4.492   4.669   3.098 -0.2764 -0.5901 -2.3065
 4108SOL    HW213766   4.388   4.717   3.197  2.0942  0.6436 -0.3029
 4109SOL     OW13767   7.861   4.182   3.659 -0.2680 -0.0793 -0.1269
 4109SOL    HW113768   7.956   4.173   3.654 -0.1461  1.2785 -1.0691
 4109SOL    HW213769   7.830   4.159   3.571 -0.7916 -0.2956  0.1080
 4110SOL     OW13770   2.909   3.631   8.484  0.0556  0.1549  0.3065
 4110SOL    HW113771   2.940   3.721   8.480  1.0519 -0.2282 -1.1635
 4110SOL    HW213772   2.964   3.589   8.550  3.3743 -0.6808 -2.6705
 4111SOL     OW13773   2.847   2.617  11.087  0.4711  0.0174 -0.2101
 4111SOL    HW113774   2.782   2.608  11.157  0.3712  1.9140  0.0070
 4111SOL    HW213775   2.859   2.529  11.053 -1.0575 -0.6133  0.7951
 4112SOL     OW13776   7.886   0.623   6.268  0.2573 -0.1466 -0.4862
 4112SOL    HW113777   7.945   0.570   6.322 -0.3941  0.1301  0.5318
 4112SOL    HW213778   7.930   0.708   6.261 -0.2627  0.2497  0.7728
 4113SOL     OW13779   5.398   0.854   5.050  0.4516 -0.1603 -0.3119
 4113SOL    HW113780   5.348   0.890   5.123 -0.2190  1.4895 -1.5325
 4113SOL    HW213781   5.488   0.884   5.065  0.0012  1.6620 -1.0180
 4114SOL     OW13782   3.501   5.299   3.699 -0.3687 -0.0675  0.3233
 4114SOL    HW113783   3.556   5.233   3.658 -0.1369  0.1140  0.3418
 4114SOL    HW213784   3.542   5.382   3.677  0.9309 -0.0341  2.5985
 4115SOL     OW13785   4.798   7.124   5.715  0.1300 -0.4181 -0.0498
 4115SOL    HW113786   4.875   7.081   5.752  0.0374  0.0974  0.7746
 4115SOL    HW213787   4.726   7.100   5.774 -0.1868 -0.2760 -0.3746
 4116SOL     OW13788   4.275   2.900   8.193 -0.1208 -0.1794  0.1061
 4116SOL    HW113789   4.343   2.884   8.258  0.9559 -1.1929 -1.2228
 4116SOL    HW213790   4.197   2.856   8.227  0.3634 -0.4945  0.8083
 4117SOL     OW13791   0.576   4.217  11.550  0.1203 -0.3854  0.0279
 4117SOL    HW113792   0.644   4.283  11.561 -0.2228 -0.1227  0.6693
 4117SOL    HW213793   0.566   4.207  11.456 -1.7011  2.4670 -0.2044
 4118SOL     OW13794   0.415   4.030   2.847  0.0264 -0.0078 -0.2031
 4118SOL    HW113795   0.365   4.075   2.779 -0.8856  0.2493  0.6146
 4118SOL    HW213796   0.438   3.946   2.808 -0.6603  0.0519 -0.7650
 4119SOL     OW13797   6.861   2.798   9.618 -0.3873  0.0044  0.1812
 4119SOL    HW113798   6.899   2.805   9.706  1.3025  0.9871 -0.5719
 4119SOL    HW213799   6.778   2.844   9.625  0.3061  1.2018  0.9780
 4120SOL     OW13800   5.386   3.939   9.865  0.6179 -0.3106 -0.1100
 4120SOL    HW113801   5.454   3.916   9.802  1.8905  0.4961  0.8855
 4120SOL    HW213802   5.373   3.860   9.917  2.2991  0.0438  0.9561
 4121SOL     OW13803   0.124   7.688   1.891 -0.4510 -0.4932 -1.0331
 4121SOL    HW113804   0.155   7.666   1.979  0.6665 -0.3057 -1.3623
 4121SOL    HW213805   0.104   7.782   1.895  1.0110 -0.1401 -1.3443
 4122SOL     OW13806   7.437   0.074   1.852 -0.1133 -0.1813 -0.1839
 4122SOL    HW113807   7.404   0.141   1.792  0.3331 -0.9927 -1.3655
 4122SOL    HW213808   7.391  -0.006   1.828 -0.2982 -0.4192  0.9040
 4123SOL     OW13809   0.991   6.378   0.380  0.2387  0.2309  0.4404
 4123SOL    HW113810   1.075   6.334   0.391  0.6917  1.2247  0.9988
 4123SOL    HW213811   1.004   6.439   0.307  0.3730  1.2526  1.3016
 4124SOL     OW13812   4.812   7.860   8.638 -0.7512 -0.5175  0.4830
 4124SOL    HW113813   4.812   7.767   8.659  0.0568 -0.5284  0.4708
 4124SOL    HW213814   4.806   7.864   8.543  0.9158 -0.6161  0.3498
 4125SOL     OW13815   6.367   4.275   9.184 -0.2084  0.6470  0.4362
 4125SOL    HW113816   6.276   4.267   9.155  0.1683  0.0182 -0.6534
 4125SOL    HW213817   6.363   4.330   9.262 -1.5886  0.1498  0.7452
 4126SOL     OW13818   7.181   5.933   3.671  0.5601 -0.1307 -0.0093
 4126SOL    HW113819   7.275   5.915   3.672  0.6026 -0.5823  4.2010
 4126SOL    HW213820   7.146   5.869   3.609  2.7532 -2.0692  0.5987
 4127SOL     OW13821   6.431   3.798  11.511  0.1978  0.6993  0.4226
 4127SOL    HW113822   6.387   3.743  11.446  0.3466 -2.8126  3.0204
 4127SOL    HW213823   6.430   3.886  11.472 -1.5132 -0.7526 -3.3294
 4128SOL     OW13824   0.278   4.523  10.045  0.2616 -0.2411  0.3979
 4128SOL    HW113825   0.212   4.457  10.064  1.3021 -1.4005  0.1633
 4128SOL    HW213826   0.362   4.478  10.061  1.0087  0.8816 -0.2228
 4129SOL     OW13827   3.707   6.371   9.921 -0.0505 -0.2623 -0.4931
 4129SOL    HW113828   3.749   6.436   9.977  2.0906 -1.3118 -0.7559
 4129SOL    HW213829   3.644   6.421   9.868  1.1558  1.5058 -0.3399
 4130SOL     OW13830   5.760   3.819   9.853  0.4364 -0.0951  0.2798
 4130SOL    HW113831   5.765   3.890   9.918  0.4550 -0.2825  0.4846
 4130SOL    HW213832   5.849   3.810   9.819  0.3805  0.1529  0.0676
 4131SOL     OW13833   0.625   4.622   7.904 -0.1344 -0.0392 -0.3675
 4131SOL    HW113834   0.556   4.682   7.878 -0.6098 -0.5259 -0.2538
 4131SOL    HW213835   0.637   4.565   7.828 -0.1895 -0.2497 -0.2208
 4132SOL     OW13836   7.112   7.410   6.505 -0.0406  0.2911  0.5353
 4132SOL    HW113837   7.202   7.405   6.536  0.3213  2.9279  0.1303
 4132SOL    HW213838   7.119   7.403   6.410 -0.0924  1.6700  0.4105
 4133SOL     OW13839   6.249   6.761   2.512 -0.2832  0.5639 -0.0999
 4133SOL    HW113840   6.271   6.690   2.572  0.1993  0.4520 -0.4012
 4133SOL    HW213841   6.333   6.801   2.490 -0.1675 -0.7385 -2.3763
 4134SOL     OW13842   6.398   2.390  11.350  0.2186 -0.4593  0.0472
 4134SOL    HW113843   6.383   2.367  11.442 -0.9518 -0.5572 -0.1509
 4134SOL    HW213844   6.311   2.383  11.310  0.8332 -1.0747 -1.2140
 4135SOL     OW13845   4.457   7.772   0.751 -0.2056  0.0140 -0.5824
 4135SOL    HW113846   4.539   7.811   0.779  1.0043 -0.4791 -3.1157
 4135SOL    HW213847   4.463   7.681   0.778  0.0032  0.0333 -0.5631
 4136SOL     OW13848   0.947   3.248   1.168  0.0055  0.2328  0.0609
 4136SOL    HW113849   0.986   3.315   1.111  0.8814  0.6334  1.0879
 4136SOL    HW213850   0.887   3.200   1.111  0.9124  0.5587 -1.2156
 4137SOL     OW13851   1.154   6.630   6.289 -0.1394  0.3924 -0.3579
 4137SOL    HW113852   1.069   6.663   6.318  0.0020  1.7835 -1.4107
 4137SOL    HW213853   1.144   6.617   6.195  0.2856 -1.2154 -0.2122
 4138SOL     OW13854   4.262   4.882  10.640 -0.0372 -0.7329 -0.1520
 4138SOL    HW113855   4.187   4.900  10.698  0.7751 -0.6053  0.8819
 4138SOL    HW213856   4.254   4.789  10.618 -1.0295 -0.5041 -0.8468
 4139SOL     OW13857   5.008   0.685   8.557  0.6770 -0.3263 -0.0836
 4139SOL    HW113858   4.947   0.756   8.539 -0.2861 -1.1975 -0.3566
 4139SOL    HW213859   5.053   0.712   8.637 -0.9146 -0.1839  0.8107
 4140SOL     OW13860   7.979   3.143   2.495 -0.2377  0.1560 -0.5052
 4140SOL    HW113861   7.978   3.167   2.402 -0.5797  0.1167 -0.5121
 4140SOL    HW213862   8.069   3.162   2.524 -0.4469  1.3010 -0.5521
 4141SOL     OW13863   5.028   7.429   3.901 -0.1014  0.1793 -0.0978
 4141SOL    HW113864   5.040   7.506   3.957  0.4511 -0.3089  0.4739
 4141SOL    HW213865   4.974   7.370   3.953  0.7685 -0.4535  0.0981
 4142SOL     OW13866   5.650   4.319  10.474 -0.1352 -0.1707  0.0232
 4142SOL    HW113867   5.574   4.349  10.523 -0.6097  1.1413 -1.4502
 4142SOL    HW213868   5.717   4.384  10.491 -0.4713  0.5885 -1.4414
 4143SOL     OW13869   5.164   3.492   3.793 -0.4006  0.2806 -0.3212
 4143SOL    HW113870   5.131   3.548   3.863  0.0267 -1.4134  1.3069
 4143SOL    HW213871   5.260   3.499   3.799 -0.3130 -1.1399  0.4025
 4144SOL     OW13872   2.424   5.017   3.851  0.3682 -0.0699  0.6458
 4144SOL    HW113873   2.500   4.962   3.871  0.4623  0.4747  1.8449
 4144SOL    HW213874   2.367   4.959   3.800  1.4076 -0.5990  0.0145
 4145SOL     OW13875   4.520   4.062  11.180 -0.1529  0.1044 -1.0526
 4145SOL    HW113876   4.585   4.018  11.126 -0.1786  0.2088 -1.1664
 4145SOL    HW213877   4.514   4.007  11.259 -0.0552  0.0006 -1.1179
 4146SOL     OW13878   7.396   5.754   4.324  0.1998 -0.6745 -0.3915
 4146SOL    HW113879   7.325   5.693   4.344  1.8906 -2.1661  1.7438
 4146SOL    HW213880   7.426   5.728   4.237  0.8204 -3.0032  0.4172
 4147SOL     OW13881   3.436   5.431   6.964 -0.1537 -0.4154 -0.8131
 4147SOL    HW113882   3.468   5.340   6.967  0.0095 -0.3338  0.1025
 4147SOL    HW213883   3.348   5.424   6.926  0.0466 -0.8939 -1.2086
 4148SOL     OW13884   5.091   2.077   9.614 -0.4080 -0.1251 -0.3891
 4148SOL    HW113885   5.119   2.045   9.699  0.3755 -1.0842 -0.9888
 4148SOL    HW213886   5.117   2.169   9.613 -1.1234  0.1045  0.6912
 4149SOL     OW13887   0.169   5.617   4.894  0.2583  0.2356 -0.3862
 4149SOL    HW113888   0.155   5.537   4.943 -0.1475  0.2764 -0.4337
 4149SOL    HW213889   0.219   5.674   4.953  1.1609 -0.3062 -0.6065
 4150SOL     OW13890   3.897   2.416   1.765 -0.7604  0.0561  0.4271
 4150SOL    HW113891   3.961   2.352   1.795 -1.3695 -0.8879 -0.2375
 4150SOL    HW213892   3.842   2.434   1.841 -0.7115 -0.3647  0.5612
 4151SOL     OW13893   1.316   4.140   3.990 -0.0322 -0.7093 -0.6264
 4151SOL    HW113894   1.237   4.141   3.936  0.5127 -0.0844 -1.4438
 4151SOL    HW213895   1.285   4.122   4.079 -1.1510 -0.0067 -0.8586
 4152SOL     OW13896   6.297   0.935   8.202  0.2078  0.0368 -0.1960
 4152SOL    HW113897   6.203   0.922   8.212 -0.0403  0.5448 -1.6318
 4152SOL    HW213898   6.324   0.869   8.139  1.4054 -2.0704  2.3649
 4153SOL     OW13899   7.441   1.799  11.371 -0.5786 -0.4380  0.1091
 4153SOL    HW113900   7.515   1.822  11.314 -0.0183 -1.7670  0.2531
 4153SOL    HW213901   7.477   1.804  11.459 -0.9690 -0.0237  0.2434
 4154SOL     OW13902   0.660   0.874   3.731  0.7862 -0.1475  0.2440
 4154SOL    HW113903   0.691   0.785   3.715 -0.5461 -0.8541  1.3632
 4154SOL    HW213904   0.591   0.887   3.665  0.1184 -0.4482  0.8587
 4155SOL     OW13905   7.975   0.297   4.929  0.4062 -0.9266 -0.0434
 4155SOL    HW113906   7.952   0.206   4.946  2.2443 -1.2895  0.7259
 4155SOL    HW213907   7.997   0.333   5.015  3.4626 -0.9175 -0.6876
 4156SOL     OW13908   6.734   5.802   7.955  0.2708 -0.0486  0.1800
 4156SOL    HW113909   6.700   5.888   7.979  0.6162 -0.1635  1.1125
 4156SOL    HW213910   6.740   5.804   7.859 -1.1499  0.4261  0.0752
 4157SOL     OW13911   1.432   6.969   7.106 -0.1334 -0.1421  0.6258
 4157SOL    HW113912   1.463   6.902   7.045 -0.4071  1.8927 -1.9332
 4157SOL    HW213913   1.508   6.988   7.161  0.8804 -0.4271 -0.6315
 4158SOL     OW13914   2.455   3.157   4.669  0.0682 -0.0294 -0.1012
 4158SOL    HW113915   2.361   3.164   4.655 -0.0852 -2.4084 -0.7620
 4158SOL    HW213916   2.494   3.180   4.585  0.0580  0.4785  0.0308
 4159SOL     OW13917   4.913   3.276   3.213 -0.5458  0.5257 -0.4075
 4159SOL    HW113918   4.959   3.359   3.227 -0.9785  0.9920 -1.5953
 4159SOL    HW213919   4.923   3.258   3.120  1.6124 -2.0504  0.2008
 4160SOL     OW13920   6.486   4.200   0.090 -0.1519  0.3752 -0.0651
 4160SOL    HW113921   6.435   4.280   0.101  1.4089  1.2660  1.0886
 4160SOL    HW213922   6.467   4.149   0.168  2.8563  2.0275  1.9263
 4161SOL     OW13923   7.147   3.510   2.597 -0.3787 -0.0070  0.9435
 4161SOL    HW113924   7.141   3.549   2.510  1.1023 -1.2949  0.2137
 4161SOL    HW213925   7.061   3.472   2.613 -0.6865  0.3085  0.0885
 4162SOL     OW13926   2.995   5.260   1.037  0.3429 -0.1598 -0.0855
 4162SOL    HW113927   3.002   5.179   0.986 -0.1807  1.5464 -3.1052
 4162SOL    HW213928   2.947   5.234   1.115  0.2393 -2.7766 -0.9017
 4163SOL     OW13929   2.745   5.351  10.035  0.2707  0.1213  0.3817
 4163SOL    HW113930   2.668   5.320  10.083 -0.2488  1.3295  0.3642
 4163SOL    HW213931   2.806   5.277  10.037 -0.5398 -0.5483  1.1525
 4164SOL     OW13932   1.302   0.200   8.923  0.2100 -0.2736  0.1196
 4164SOL    HW113933   1.326   0.284   8.883  0.8801 -0.1719  0.7185
 4164SOL    HW213934   1.212   0.186   8.895  0.0953  0.6295 -0.0159
 4165SOL     OW13935   5.683   0.906   8.212  0.8272 -0.2648 -0.0411
 4165SOL    HW113936   5.594   0.890   8.179 -0.6191  1.6322  2.5898
 4165SOL    HW213937   5.729   0.944   8.137 -1.7825  2.3072 -0.5301
 4166SOL     OW13938   7.236   7.975   9.857  0.1546  0.3587 -0.5197
 4166SOL    HW113939   7.274   8.043   9.801  0.1060  0.3367 -0.5792
 4166SOL    HW213940   7.166   7.937   9.804 -1.1857  1.6392  0.2609
 4167SOL     OW13941   7.404   6.052   3.953  0.6169 -0.3898 -0.3795
 4167SOL    HW113942   7.391   5.960   3.931  0.5291 -0.6278  0.6178
 4167SOL    HW213943   7.440   6.050   4.043  0.2130  0.5591 -0.1916
 4168SOL     OW13944   2.870   7.455   8.423  0.2654 -0.4824  0.1448
 4168SOL    HW113945   2.941   7.440   8.486  0.5176  0.9640  0.2418
 4168SOL    HW213946   2.913   7.494   8.347 -0.3239 -0.2213 -0.0620
 4169SOL     OW13947   4.572   4.441   2.761 -0.0193  0.1582 -1.1010
 4169SOL    HW113948   4.616   4.522   2.736 -1.4139  1.2725 -0.0956
 4169SOL    HW213949   4.614   4.414   2.843 -0.1261  0.3459 -0.9833
 4170SOL     OW13950   3.804   2.049   9.566 -0.3516 -0.0296 -0.0576
 4170SOL    HW113951   3.839   2.133   9.596 -0.0918  0.5217 -1.7985
 4170SOL    HW213952   3.759   2.012   9.643  2.2402  0.1950  1.6659
 4171SOL     OW13953   3.689   1.477  12.005 -0.2490  0.0017  0.2630
 4171SOL    HW113954   3.641   1.550  11.968  0.4427  1.0417  1.3593
 4171SOL    HW213955   3.653   1.400  11.962 -0.2097  1.0625 -1.7685
 4172SOL     OW13956   1.193   1.473   7.961 -0.3871  0.2590 -0.1804
 4172SOL    HW113957   1.244   1.414   7.905 -1.5792 -1.6341  0.6335
 4172SOL    HW213958   1.114   1.492   7.910 -1.3952 -1.3300  0.7347
 4173SOL     OW13959   6.828   0.624  11.881 -0.6428 -0.0231  0.2948
 4173SOL    HW113960   6.848   0.541  11.925 -2.8209  0.1827  1.8484
 4173SOL    HW213961   6.790   0.598  11.798 -0.0605 -0.5416  0.1832
 4174SOL     OW13962   4.804   1.952   8.769  0.1113 -0.2102  0.3822
 4174SOL    HW113963   4.750   1.946   8.690 -0.8039 -2.5567  1.1019
 4174SOL    HW213964   4.743   1.968   8.840  0.5615 -0.9071  0.9515
 4175SOL     OW13965   3.189   0.165   0.362  0.8038  0.1628 -0.1470
 4175SOL    HW113966   3.187   0.244   0.417 -1.6792  0.6282 -0.7879
 4175SOL    HW213967   3.175   0.198   0.273  0.9203 -0.9216 -0.5755
 4176SOL     OW13968   4.393   1.529   8.194  0.4169 -0.3611 -0.1748
 4176SOL    HW113969   4.364   1.611   8.235  1.2301  1.4061 -2.8060
 4176SOL    HW213970   4.327   1.465   8.218  0.2145  0.7963  2.7316
 4177SOL     OW13971   3.463   0.759   4.087 -0.8528 -0.0313 -0.3167
 4177SOL    HW113972   3.544   0.794   4.123 -2.2847  0.2965  2.9770
 4177SOL    HW213973   3.481   0.744   3.995  2.1228  2.4118 -0.2505
 4178SOL     OW13974   3.492   4.744   0.309 -0.1338 -0.1853  0.4768
 4178SOL    HW113975   3.442   4.703   0.238 -1.3218  1.4517  0.3200
 4178SOL    HW213976   3.426   4.772   0.372  0.1426  4.2656 -0.8596
 4179SOL     OW13977   4.499   4.117   8.688  0.4762 -0.1537 -0.4794
 4179SOL    HW113978   4.517   4.057   8.760 -0.1456 -1.3579 -1.2951
 4179SOL    HW213979   4.423   4.168   8.718  1.3111  0.6034  0.4138
 4180SOL     OW13980   4.506   5.982   5.945 -0.0661 -0.3984  0.4383
 4180SOL    HW113981   4.509   6.054   6.007 -1.0106  0.9327 -1.0024
 4180SOL    HW213982   4.540   5.907   5.994  0.3263  0.8557  2.1718
 4181SOL     OW13983   4.470   6.981   8.641  0.1551 -0.7016  0.6941
 4181SOL    HW113984   4.397   7.013   8.694 -0.7341 -1.0251 -0.2855
 4181SOL    HW213985   4.431   6.914   8.585  1.1574 -0.7202 -0.0125
 4182SOL     OW13986   6.973   6.780   7.163 -0.0181 -0.0079 -0.1962
 4182SOL    HW113987   6.905   6.806   7.101  0.2566 -1.7715 -1.2921
 4182SOL    HW213988   7.056   6.800   7.119  0.1777 -1.2120 -0.4174
 4183SOL     OW13989   0.603   2.799  11.169 -0.1884 -1.1747  0.2790
 4183SOL    HW113990   0.644   2.859  11.231 -2.4981  1.0836 -0.2013
 4183SOL    HW213991   0.672   2.779  11.106  1.5024 -1.5387  2.1654
 4184SOL     OW13992   5.024   1.518   9.244  0.2424 -0.2270  0.3351
 4184SOL    HW113993   4.977   1.494   9.324 -1.2408 -0.8796 -0.6978
 4184SOL    HW213994   4.958   1.515   9.175  1.2509  1.3625 -0.7718
 4185SOL     OW13995   6.374   1.385   2.718  0.2728 -0.0679  0.2846
 4185SOL    HW113996   6.448   1.429   2.761 -0.1773  2.1709 -1.0870
 4185SOL    HW213997   6.415   1.328   2.653  0.8259 -0.0723  0.6249
 4186SOL     OW13998   2.473   7.934   8.424 -0.7565  0.2827 -0.2256
 4186SOL    HW113999   2.440   7.851   8.456 -0.5879  0.7283  1.1633
 4186SOL    HW214000   2.499   7.982   8.503  1.3366  0.7343 -1.1191
 4187SOL     OW14001   1.672   2.438   5.511  0.5145  0.2330  0.2189
 4187SOL    HW114002   1.626   2.359   5.482 -0.6963  0.7408  0.6775
 4187SOL    HW214003   1.715   2.471   5.432 -0.5846  0.1709 -0.4231
 4188SOL     OW14004   4.587   7.639   3.551 -0.2444  0.3263  0.3970
 4188SOL    HW114005   4.497   7.664   3.532 -0.9689 -1.7039  0.9458
 4188SOL    HW214006   4.601   7.664   3.642  0.0915  1.4603  0.0594
 4189SOL     OW14007   6.119   2.124  11.932  0.3416 -0.2151  0.1234
 4189SOL    HW114008   6.140   2.137  12.025 -0.7131 -0.3243  0.3904
 4189SOL    HW214009   6.146   2.206  11.890  0.8869 -0.1902  0.5075
 4190SOL     OW14010   0.086   4.258   6.297  1.0872 -0.5845  0.4063
 4190SOL    HW114011   0.163   4.312   6.311  1.5260 -1.4722  1.6088
 4190SOL    HW214012   0.078   4.253   6.201  0.2389  2.6089  0.2128
 4191SOL     OW14013   7.029   0.933   2.851  0.1655 -1.4504 -0.7536
 4191SOL    HW114014   7.099   0.988   2.815  0.0418 -0.9038 -0.1635
 4191SOL    HW214015   7.005   0.975   2.933 -0.0091 -2.3327 -0.3504
 4192SOL     OW14016   2.997   7.123   4.926 -0.4166 -0.2549 -0.4636
 4192SOL    HW114017   3.090   7.125   4.952 -0.6833 -1.3490  0.6816
 4192SOL    HW214018   2.991   7.050   4.864 -0.5674 -0.3891 -0.2916
 4193SOL     OW14019   6.724   1.387   6.482 -0.4491  0.1972  0.2831
 4193SOL    HW114020   6.770   1.436   6.414 -0.6418 -1.3594 -1.0384
 4193SOL    HW214021   6.711   1.300   6.444 -2.3235 -0.1346  1.5696
 4194SOL     OW14022   6.724   2.890   2.644 -0.2271  0.3617 -0.7283
 4194SOL    HW114023   6.777   2.841   2.581 -0.0665 -2.6085  1.5160
 4194SOL    HW214024   6.634   2.865   2.623 -0.4848  2.0096 -1.7901
 4195SOL     OW14025   7.248   2.145   4.217 -0.6484 -0.1018  0.0383
 4195SOL    HW114026   7.214   2.160   4.129 -0.1905  0.5058 -0.0451
 4195SOL    HW214027   7.340   2.123   4.203 -0.7791 -0.8294  0.3142
 4196SOL     OW14028   5.985   2.013  11.344  0.6099 -0.2229  0.7337
 4196SOL    HW114029   5.952   1.974  11.263  2.1303 -0.7899  0.3507
 4196SOL    HW214030   6.067   1.966  11.362  0.8399  0.6079  2.0385
 4197SOL     OW14031   3.084   5.841  11.905 -0.3371 -0.5697  0.2865
 4197SOL    HW114032   3.153   5.830  11.971 -0.2479  0.0880  0.3143
 4197SOL    HW214033   3.018   5.776  11.928  0.1102 -0.9649  0.4769
 4198SOL     OW14034   6.041   7.420   8.857 -0.4204 -0.6986 -0.2212
 4198SOL    HW114035   6.009   7.495   8.908  0.2258  0.6858 -1.7366
 4198SOL    HW214036   6.021   7.443   8.766  0.6267 -1.9446 -0.8032
 4199SOL     OW14037   2.434   4.129   9.577  0.3441 -0.1161  0.1213
 4199SOL    HW114038   2.370   4.073   9.533 -1.5476  0.5154  1.8887
 4199SOL    HW214039   2.425   4.214   9.534 -2.2356  0.7885  2.1447
 4200SOL     OW14040   3.307   6.630   1.903 -0.0619 -0.1603  0.2913
 4200SOL    HW114041   3.396   6.605   1.877  0.3359  0.1327  1.3302
 4200SOL    HW214042   3.277   6.557   1.957 -0.6191 -0.4426 -0.3827
 4201SOL     OW14043   7.635   5.434  11.800 -0.4929  0.0591 -0.1990
 4201SOL    HW114044   7.729   5.451  11.800 -0.2264 -1.2455  0.5620
 4201SOL    HW214045   7.606   5.455  11.711  1.0425 -2.0249 -1.2802
 4202SOL     OW14046   1.997   3.749   9.213 -0.0266 -0.0262 -0.0797
 4202SOL    HW114047   1.919   3.717   9.169  0.6577  0.8917 -2.0753
 4202SOL    HW214048   2.052   3.784   9.143  2.2656 -0.7839  1.2132
 4203SOL     OW14049   3.345   3.877   0.626  0.0260 -0.2217 -0.9243
 4203SOL    HW114050   3.362   3.939   0.698 -2.1964  0.4948 -0.9122
 4203SOL    HW214051   3.395   3.799   0.649 -0.7415 -0.0870  1.5674
 4204SOL     OW14052   3.866   2.015   2.762 -0.6774  0.6930  0.1687
 4204SOL    HW114053   3.789   1.995   2.815 -0.7775 -0.9406 -0.5316
 4204SOL    HW214054   3.831   2.045   2.678 -0.6111 -0.9403 -0.4804
 4205SOL     OW14055   4.675   1.992   5.507  0.0274 -0.0800 -0.4279
 4205SOL    HW114056   4.624   2.029   5.579  0.8688  0.8042 -0.2756
 4205SOL    HW214057   4.611   1.980   5.436 -0.6449 -0.2038  0.1885
 4206SOL     OW14058   5.772   3.743  10.980  0.4678 -0.2741  0.6143
 4206SOL    HW114059   5.792   3.792  11.060  1.1447 -0.3631  0.5053
 4206SOL    HW214060   5.763   3.652  11.009 -0.5142 -0.1434  0.7722
 4207SOL     OW14061   1.596   3.431   1.345  0.2384  0.2198 -0.0690
 4207SOL    HW114062   1.684   3.394   1.353  0.5378  1.0112  0.5246
 4207SOL    HW214063   1.611   3.522   1.319 -0.3561  0.6478  1.0228
 4208SOL     OW14064   6.193   3.419   2.988  0.8075  0.6384 -0.4139
 4208SOL    HW114065   6.211   3.474   3.065 -1.4262  1.2134 -0.2260
 4208SOL    HW214066   6.118   3.365   3.014  1.9613 -1.3982 -1.1589
 4209SOL     OW14067   7.320   7.868   1.533 -0.0914 -0.3347  0.2719
 4209SOL    HW114068   7.286   7.957   1.525 -0.9761 -0.5680  1.2547
 4209SOL    HW214069   7.250   7.819   1.577  0.6019 -1.3882  0.2398
 4210SOL     OW14070   5.275   5.052   2.154 -0.1800  0.0878 -0.2290
 4210SOL    HW114071   5.366   5.042   2.179  0.3687 -0.3779 -2.2582
 4210SOL    HW214072   5.247   5.132   2.198  1.7027  1.1521 -0.8445
 4211SOL     OW14073   7.610   5.131  11.958  0.1128 -0.0986  0.1225
 4211SOL    HW114074   7.613   5.222  11.929 -0.2338 -0.0114  0.3510
 4211SOL    HW214075   7.640   5.081  11.883  1.4674  0.2813  0.3756
 4212SOL     OW14076   5.193   5.791   6.547  0.3613 -0.1752  0.2597
 4212SOL    HW114077   5.140   5.836   6.481  0.1285 -1.6926 -0.6419
 4212SOL    HW214078   5.138   5.792   6.626 -0.1482  0.0460 -0.0898
 4213SOL     OW14079   2.525   3.099   3.255 -0.3055  0.2120 -0.2000
 4213SOL    HW114080   2.444   3.148   3.239 -0.8454 -0.3152  0.8381
 4213SOL    HW214081   2.595   3.162   3.240 -0.9483  0.9748 -0.0519
 4214SOL     OW14082   1.694   5.398   2.306  0.3260  0.3152  0.2312
 4214SOL    HW114083   1.745   5.317   2.307  0.8614  0.5583 -1.9570
 4214SOL    HW214084   1.666   5.409   2.396  0.7747 -1.9579  0.7227
 4215SOL     OW14085   4.731   5.603   0.991 -0.2722 -0.4845 -0.0214
 4215SOL    HW114086   4.782   5.684   0.995 -0.2031 -0.5258 -0.0656
 4215SOL    HW214087   4.654   5.626   0.939 -2.5269  0.8053  3.5644
 4216SOL     OW14088   3.841   4.048  11.468  0.0428 -0.1535 -0.3495
 4216SOL    HW114089   3.799   3.964  11.447  1.1075 -1.2556  1.6222
 4216SOL    HW214090   3.768   4.106  11.488 -0.7302 -0.5159 -1.9279
 4217SOL     OW14091   1.276   7.938  10.502  0.0513  0.5033  0.0941
 4217SOL    HW114092   1.274   7.958  10.409 -0.3085 -0.9651 -0.2450
 4217SOL    HW214093   1.369   7.944  10.526  0.2016  0.4177 -0.4630
 4218SOL     OW14094   6.062   4.051   4.816  0.4153  0.0026  0.5669
 4218SOL    HW114095   6.009   4.128   4.835  0.6686  0.3260  0.0150
 4218SOL    HW214096   6.045   3.991   4.888 -1.3550 -0.2629 -0.0280
 4219SOL     OW14097   5.202   1.301   0.617 -0.3678  0.2590  0.4324
 4219SOL    HW114098   5.157   1.249   0.551 -1.0468 -0.1060  1.1774
 4219SOL    HW214099   5.271   1.243   0.649  1.0916  1.0187 -1.1303
 4220SOL     OW14100   6.462   3.231   6.094  0.0929 -0.1370 -0.3263
 4220SOL    HW114101   6.445   3.231   6.000  0.5027 -0.8961 -0.4068
 4220SOL    HW214102   6.552   3.201   6.103 -0.0036 -0.2672  0.3205
 4221SOL     OW14103   2.824   7.200   6.361  0.5389  0.2084 -0.3682
 4221SOL    HW114104   2.824   7.108   6.386 -1.3325  0.3161  0.1774
 4221SOL    HW214105   2.887   7.206   6.289  1.9015 -1.1629  0.6683
 4222SOL     OW14106   7.532   1.292   0.884  0.1751  0.2236 -0.1226
 4222SOL    HW114107   7.467   1.237   0.843 -0.2218  1.6422 -1.4787
 4222SOL    HW214108   7.605   1.295   0.822  1.7691 -1.5792  1.4803
 4223SOL     OW14109   0.762   2.266   7.264 -0.5271  0.5503 -0.3176
 4223SOL    HW114110   0.817   2.331   7.309  1.2981 -1.2402  0.2123
 4223SOL    HW214111   0.774   2.284   7.171 -0.0001  0.9377 -0.1783
 4224SOL     OW14112   5.384   5.919   8.619  0.4062  0.0414  0.5772
 4224SOL    HW114113   5.304   5.867   8.622  0.8784 -0.6603  1.3612
 4224SOL    HW214114   5.422   5.898   8.534 -1.0882  1.7335 -0.5983
 4225SOL     OW14115   2.897   0.975   2.679  0.1892 -0.6894  0.2205
 4225SOL    HW114116   2.828   0.910   2.680  1.4249 -2.0597  0.3021
 4225SOL    HW214117   2.946   0.960   2.760  0.4828  0.3661  0.2591
 4226SOL     OW14118   1.255   6.721   1.113 -0.3333 -0.1759 -0.1122
 4226SOL    HW114119   1.247   6.643   1.058  0.3607  0.7481 -1.5760
 4226SOL    HW214120   1.185   6.779   1.083  0.7635  0.8065 -0.8427
 4227SOL     OW14121   6.800   2.568   8.986 -0.2888 -0.5277 -0.1756
 4227SOL    HW114122   6.859   2.551   9.059  2.1711  0.1573 -1.8660
 4227SOL    HW214123   6.747   2.642   9.015  1.4478  0.5009  0.5508
 4228SOL     OW14124   6.723   4.439  10.054 -0.1906  0.3870 -0.0389
 4228SOL    HW114125   6.734   4.516   9.998  0.0417  0.8812  0.6578
 4228SOL    HW214126   6.629   4.436  10.072 -0.6280 -1.1128 -2.2570
 4229SOL     OW14127   4.161   1.265   7.903  0.5110  0.6017  0.0936
 4229SOL    HW114128   4.121   1.349   7.926  1.3025  0.7933  0.8235
 4229SOL    HW214129   4.089   1.213   7.867 -0.8167  0.3321  2.8959
 4230SOL     OW14130   2.846   5.492   5.955  0.1635  0.6132  0.1809
 4230SOL    HW114131   2.916   5.524   6.011 -0.7378  1.9098  0.6055
 4230SOL    HW214132   2.826   5.566   5.897  0.5957 -0.4548 -1.3958
 4231SOL     OW14133   6.820   2.450   1.117  0.5980  0.0840 -0.9466
 4231SOL    HW114134   6.780   2.371   1.080 -0.5521  0.8026 -1.2918
 4231SOL    HW214135   6.800   2.519   1.054  1.2520  0.7359 -0.4590
 4232SOL     OW14136   0.798   7.297   0.930 -0.5330  0.1115  0.5985
 4232SOL    HW114137   0.779   7.391   0.942  0.3224  0.0337  3.3375
 4232SOL    HW214138   0.889   7.294   0.902 -0.4112  0.1068  0.9848
 4233SOL     OW14139   4.311   2.434   4.939 -0.7434 -0.2986  0.1486
 4233SOL    HW114140   4.225   2.476   4.934  0.3042  2.1474  1.1640
 4233SOL    HW214141   4.372   2.501   4.909  0.8107 -2.1619 -1.0728
 4234SOL     OW14142   7.628   3.841   5.532 -0.0840  0.6374 -0.1034
 4234SOL    HW114143   7.553   3.892   5.500 -1.9710 -0.6222  2.0838
 4234SOL    HW214144   7.627   3.854   5.627  2.3347  0.3200  0.0286
 4235SOL     OW14145   4.032   2.120   4.525  0.2097  0.1495  0.4318
 4235SOL    HW114146   4.050   2.171   4.605  2.5430  0.4906 -0.2499
 4235SOL    HW214147   4.081   2.039   4.537 -0.7723 -0.5094  0.0476
 4236SOL     OW14148   7.975   3.466   6.316 -0.1035 -0.0588  0.2120
 4236SOL    HW114149   7.931   3.381   6.321  0.1424 -0.1875  0.2106
 4236SOL    HW214150   8.020   3.475   6.400 -0.1036  0.0549  0.2002
 4237SOL     OW14151   2.010   2.762  10.272 -0.3048 -0.1529 -0.3026
 4237SOL    HW114152   2.005   2.735  10.364  0.1445  0.7865  0.0166
 4237SOL    HW214153   2.034   2.855  10.276  0.8959 -0.3962 -1.3943
 4238SOL     OW14154   0.487   3.295   5.006 -0.2689  0.0271  0.0695
 4238SOL    HW114155   0.569   3.306   5.054 -0.1844 -0.0948 -0.0461
 4238SOL    HW214156   0.448   3.382   5.005  0.3355  0.3021 -0.7363
 4239SOL     OW14157   1.040   5.080  12.402 -0.0264  0.6211  0.0803
 4239SOL    HW114158   0.958   5.044  12.435 -0.7343  1.1567 -1.0659
 4239SOL    HW214159   1.028   5.175  12.405  0.1685  0.6920 -1.0132
 4240SOL     OW14160   1.015   6.784   1.801  0.0236  0.2664 -0.6412
 4240SOL    HW114161   1.011   6.871   1.762  1.6184 -0.8143 -3.5704
 4240SOL    HW214162   1.096   6.746   1.766 -0.3656 -2.2351  0.9026
 4241SOL     OW14163   2.771   5.345   5.464  0.0940  0.0661 -0.1557
 4241SOL    HW114164   2.853   5.313   5.427 -0.2483 -1.1533  0.0945
 4241SOL    HW214165   2.792   5.363   5.556  0.3573  0.8702 -0.3620
 4242SOL     OW14166   6.967   0.972   6.350 -0.1615  0.2400  0.0162
 4242SOL    HW114167   6.998   0.946   6.264 -0.7458 -0.4377 -0.0024
 4242SOL    HW214168   6.985   1.066   6.356  2.9459 -0.2727  0.4588
 4243SOL     OW14169   5.704   2.289   9.338 -0.0203  0.1516  0.0552
 4243SOL    HW114170   5.624   2.283   9.389 -0.2237  1.3437 -0.0927
 4243SOL    HW214171   5.680   2.342   9.262  1.0578  1.0598  0.3300
 4244SOL     OW14172   0.177   6.106   4.864  0.3433  0.2027  0.2022
 4244SOL    HW114173   0.172   6.052   4.943 -1.1812 -0.7102 -0.4760
 4244SOL    HW214174   0.216   6.049   4.798 -3.7978 -1.2001 -1.3020
 4245SOL     OW14175   1.736   4.184   9.631 -0.1500  0.0459  0.3280
 4245SOL    HW114176   1.667   4.243   9.664 -0.4121 -0.4684  0.7188
 4245SOL    HW214177   1.802   4.184   9.700 -0.3722 -0.4875  0.5416
 4246SOL     OW14178   6.419   0.481   0.910  0.0590 -0.3555  0.1381
 4246SOL    HW114179   6.491   0.494   0.848  0.1798 -0.7598  0.1896
 4246SOL    HW214180   6.403   0.386   0.909  0.0547 -0.3650  0.7118
 4247SOL     OW14181   4.053   5.334  11.909 -0.2602  0.3210  0.2817
 4247SOL    HW114182   4.023   5.408  11.857  0.4886  0.7089  0.3903
 4247SOL    HW214183   4.025   5.355  11.999  3.4578  2.5497  1.1221
 4248SOL     OW14184   1.304   1.876   8.059 -0.0848 -0.1916 -0.0060
 4248SOL    HW114185   1.255   1.824   8.123 -2.0049 -0.8020 -1.8410
 4248SOL    HW214186   1.391   1.837   8.058 -0.7838 -1.8603  0.3670
 4249SOL     OW14187   1.884   3.299   7.019  0.4300 -0.0138 -0.3685
 4249SOL    HW114188   1.920   3.335   7.100  0.3373  0.4465 -0.5339
 4249SOL    HW214189   1.923   3.211   7.013 -0.2150 -0.3755  0.6004
 4250SOL     OW14190   0.020   7.205   4.879 -0.5942 -0.2460  0.0867
 4250SOL    HW114191   0.001   7.123   4.834  0.2309  0.1390 -0.9918
 4250SOL    HW214192  -0.033   7.201   4.960 -0.7498 -1.7104 -0.0689
 4251SOL     OW14193   5.421   3.427   9.355  0.6182 -0.6762 -0.2065
 4251SOL    HW114194   5.349   3.390   9.303 -0.4342  0.1875  0.6031
 4251SOL    HW214195   5.378   3.475   9.425  1.9982  0.0761  0.1569
 4252SOL     OW14196   2.302   7.763  12.189 -0.7795  0.3683 -0.3742
 4252SOL    HW114197   2.339   7.675  12.188 -0.5053  0.4675  0.4455
 4252SOL    HW214198   2.356   7.813  12.128 -0.1214  0.2799  0.1216
 4253SOL     OW14199   7.716   7.199  11.363  0.0135  0.1566 -0.2928
 4253SOL    HW114200   7.681   7.111  11.368 -1.4182  0.5487 -2.3761
 4253SOL    HW214201   7.648   7.254  11.402  0.3793  0.4639 -0.0830
 4254SOL     OW14202   7.036   3.464  10.735 -0.3021  0.0181 -0.2458
 4254SOL    HW114203   6.989   3.475  10.818  0.6764 -3.2922  0.9185
 4254SOL    HW214204   6.967   3.449  10.670 -1.2011 -4.0689  1.2931
 4255SOL     OW14205   2.821   7.519   1.669  1.0120 -0.4113  0.1113
 4255SOL    HW114206   2.777   7.545   1.589  0.1167 -0.1954  0.6644
 4255SOL    HW214207   2.763   7.454   1.709  1.0339  0.0822  0.9850
 4256SOL     OW14208   6.818   7.772   0.992 -0.0142 -0.1222 -0.0945
 4256SOL    HW114209   6.733   7.775   0.948  0.0677 -0.3301 -0.2682
 4256SOL    HW214210   6.797   7.782   1.085 -0.2610 -0.5309 -0.1022
 4257SOL     OW14211   5.832   3.373   1.889  0.4261  0.0408 -0.2384
 4257SOL    HW114212   5.752   3.321   1.894  0.5770 -0.1543  0.2013
 4257SOL    HW214213   5.802   3.464   1.900  0.3933 -0.1289  1.2351
 4258SOL     OW14214   4.053   0.427   6.748  0.1670 -0.0338  0.1227
 4258SOL    HW114215   4.025   0.341   6.717  1.3008 -0.2990 -0.2317
 4258SOL    HW214216   4.138   0.441   6.706 -0.6945  1.9645 -1.1052
 4259SOL     OW14217   3.501   0.536   3.745 -0.6824 -0.3276 -0.4212
 4259SOL    HW114218   3.498   0.471   3.815 -0.6218 -1.3917 -1.3846
 4259SOL    HW214219   3.547   0.611   3.783 -1.3383 -0.5803  0.9125
 4260SOL     OW14220   0.707   0.127  10.909 -0.1005 -0.0192  0.2473
 4260SOL    HW114221   0.727   0.034  10.916 -1.5049 -0.3148  0.6901
 4260SOL    HW214222   0.625   0.130  10.860  1.8400  1.2288 -3.3568
 4261SOL     OW14223   1.081   3.441   3.359 -0.2182 -0.3063 -0.3109
 4261SOL    HW114224   1.040   3.370   3.310 -0.7997  0.6437 -1.2564
 4261SOL    HW214225   1.068   3.519   3.304  1.2332  0.3722  0.2351
 4262SOL     OW14226   2.917   0.972   5.918 -0.0828  0.2468 -0.0744
 4262SOL    HW114227   2.875   0.894   5.881 -0.2702  0.4235 -0.2421
 4262SOL    HW214228   2.914   0.958   6.012  0.5962 -0.3115 -0.1300
 4263SOL     OW14229   4.165   0.814   6.655 -0.2094 -0.1926  0.9816
 4263SOL    HW114230   4.160   0.832   6.749  0.9421 -0.1122  1.0386
 4263SOL    HW214231   4.237   0.869   6.624 -0.9840  0.2636 -0.0779
 4264SOL     OW14232   3.779   6.245   2.300  0.1926 -0.2169  0.3764
 4264SOL    HW114233   3.830   6.303   2.243  2.5026  1.1245  3.4946
 4264SOL    HW214234   3.731   6.305   2.358 -0.9804 -1.5009  0.8001
 4265SOL     OW14235   2.694   1.395   8.157  0.4716  0.3836  0.0462
 4265SOL    HW114236   2.677   1.457   8.229 -1.8239  1.1080 -1.0021
 4265SOL    HW214237   2.615   1.400   8.103  2.9906  1.6576 -3.8911
 4266SOL     OW14238   0.572   6.663  10.022  0.2023  0.3433 -0.0922
 4266SOL    HW114239   0.544   6.572  10.032  2.9365 -0.6014 -0.3309
 4266SOL    HW214240   0.586   6.673   9.928 -0.0319  1.0092 -0.0587
 4267SOL     OW14241   3.905   1.086   9.084 -0.0373  0.2697 -1.3299
 4267SOL    HW114242   3.826   1.066   9.033  0.1372  0.6637 -1.7655
 4267SOL    HW214243   3.972   1.102   9.018  0.6366 -0.9176 -0.9629
 4268SOL     OW14244   7.191   2.708  12.279 -0.4240 -0.2097  0.0666
 4268SOL    HW114245   7.279   2.708  12.317  0.8034 -0.1249 -2.6052
 4268SOL    HW214246   7.189   2.786  12.224 -1.9778 -0.5419 -0.4008
 4269SOL     OW14247   3.237   7.279   1.024 -0.1685 -0.1280  0.2206
 4269SOL    HW114248   3.166   7.343   1.017  0.4703  0.7457  1.5286
 4269SOL    HW214249   3.196   7.203   1.066 -0.1242  0.7475  1.9130
 4270SOL     OW14250   5.199   3.336   9.219 -0.0827 -0.3099  0.2552
 4270SOL    HW114251   5.106   3.356   9.214 -0.3837 -1.1088  1.9554
 4270SOL    HW214252   5.227   3.327   9.128 -0.9820  2.7610 -0.4384
 4271SOL     OW14253   2.518   2.281   9.929  0.0082 -0.7018 -0.3251
 4271SOL    HW114254   2.583   2.227   9.973  0.3126  0.3197  0.5171
 4271SOL    HW214255   2.435   2.258   9.971 -0.1162 -1.6777 -1.0886
 4272SOL     OW14256   5.802   4.951   6.921  0.3900  0.1546 -0.0842
 4272SOL    HW114257   5.719   4.934   6.877 -0.6024  0.7221  1.4861
 4272SOL    HW214258   5.865   4.963   6.850 -1.1962  1.3550 -1.3636
 4273SOL     OW14259   0.687   5.397   4.408 -0.1839  0.4190  0.1143
 4273SOL    HW114260   0.603   5.367   4.373 -0.2330 -0.6568  1.1164
 4273SOL    HW214261   0.750   5.377   4.338 -0.5594  0.0242 -0.1190
 4274SOL     OW14262   1.173   2.212   4.822  0.0219 -0.4250  0.0185
 4274SOL    HW114263   1.264   2.240   4.809 -0.2308  1.0145  1.0986
 4274SOL    HW214264   1.121   2.271   4.768 -0.3558 -0.3965  0.4107
 4275SOL     OW14265   5.351   6.617   8.592 -0.2675  0.0371 -0.5691
 4275SOL    HW114266   5.409   6.602   8.667  0.3811 -1.1928 -1.2840
 4275SOL    HW214267   5.359   6.710   8.573 -1.0156  0.5488  1.3334
 4276SOL     OW14268   1.177   3.949   4.743 -0.0196 -0.1410  0.2709
 4276SOL    HW114269   1.111   3.880   4.750 -1.4526  1.2273  0.7602
 4276SOL    HW214270   1.185   3.984   4.832  0.7435  0.2862  0.0451
 4277SOL     OW14271   0.609   0.726   5.416 -0.3708 -0.2449 -0.2225
 4277SOL    HW114272   0.574   0.804   5.373  0.9145  0.7835  0.5260
 4277SOL    HW214273   0.620   0.663   5.345 -0.2401  0.6936 -1.0652
 4278SOL     OW14274   4.965   2.390  10.456 -0.0045 -0.5987  0.0371
 4278SOL    HW114275   5.042   2.409  10.404 -1.2173  0.4677 -1.4754
 4278SOL    HW214276   4.972   2.449  10.532 -0.5261  1.3996 -1.3752
 4279SOL     OW14277   3.202   5.416   6.522 -0.0884  0.2584  0.2706
 4279SOL    HW114278   3.263   5.447   6.455 -0.2506  1.5160  0.6731
 4279SOL    HW214279   3.245   5.339   6.558 -1.1021 -2.0042 -2.9039
 4280SOL     OW14280   3.255   0.185   7.465 -0.2828  0.4406  0.8525
 4280SOL    HW114281   3.256   0.268   7.512  1.6082 -0.5824  2.8151
 4280SOL    HW214282   3.223   0.122   7.530 -1.1753 -0.4651 -0.4325
 4281SOL     OW14283   7.007   0.744   8.640  0.1283 -0.4381 -0.2248
 4281SOL    HW114284   6.989   0.686   8.714  0.5506  2.2651  2.1189
 4281SOL    HW214285   7.100   0.763   8.645 -0.3224  1.8980  0.2437
 4282SOL     OW14286   6.084   5.935   9.275  0.3473  0.0537 -0.8122
 4282SOL    HW114287   6.079   5.871   9.204 -1.1317 -0.1247 -0.5751
 4282SOL    HW214288   6.010   5.993   9.260  0.5524  0.5537  0.0719
 4283SOL     OW14289   5.142   5.890   4.246  0.0145  0.1906 -0.8002
 4283SOL    HW114290   5.127   5.842   4.327 -0.3633  1.7490  0.1103
 4283SOL    HW214291   5.070   5.864   4.189 -0.6389  0.2744 -0.0320
 4284SOL     OW14292   7.212   4.901   0.442  0.3004  0.1697 -0.1601
 4284SOL    HW114293   7.240   4.928   0.529  2.4083  1.8560 -1.2632
 4284SOL    HW214294   7.164   4.977   0.408  0.3185 -0.1133 -0.8320
 4285SOL     OW14295   7.741   1.896   0.692  0.4227 -0.7298 -0.1775
 4285SOL    HW114296   7.743   1.985   0.658 -1.3770 -0.7667 -0.5092
 4285SOL    HW214297   7.809   1.894   0.759  1.0212  0.6503 -0.7083
 4286SOL     OW14298   7.091   1.020   4.232 -1.1532 -0.1763  0.5130
 4286SOL    HW114299   7.182   1.040   4.209 -1.0086 -2.4708 -1.1811
 4286SOL    HW214300   7.040   1.047   4.156 -1.7525 -0.0298  0.9586
 4287SOL     OW14301   3.169   1.278   0.944 -0.6516  0.1412 -0.0637
 4287SOL    HW114302   3.193   1.245   0.858 -1.2341 -2.1118  0.5896
 4287SOL    HW214303   3.224   1.230   1.006  1.0972  2.9961  0.8218
 4288SOL     OW14304   5.754   3.622   4.678 -0.0759 -0.4613  0.4525
 4288SOL    HW114305   5.831   3.621   4.736  0.3692 -0.2644 -0.1274
 4288SOL    HW214306   5.707   3.542   4.701  1.2308 -1.5294 -0.4189
 4289SOL     OW14307   4.769   6.826  10.341 -0.2483  0.1781 -0.7351
 4289SOL    HW114308   4.767   6.855  10.250 -2.7347  0.1881 -0.7341
 4289SOL    HW214309   4.791   6.904  10.391 -0.1785  0.4754 -1.2256
 4290SOL     OW14310   0.185   6.997   0.680 -0.1648 -0.5861  0.0355
 4290SOL    HW114311   0.158   6.968   0.767 -0.8976 -0.0336  0.0022
 4290SOL    HW214312   0.255   7.059   0.696 -0.1163 -0.6872  0.2167
 4291SOL     OW14313   5.228   6.168   4.225 -0.1108  0.0596  0.3443
 4291SOL    HW114314   5.221   6.166   4.130  0.9407  2.8541  0.1041
 4291SOL    HW214315   5.182   6.090   4.255 -1.0691 -0.5224 -2.4082
 4292SOL     OW14316   5.258   7.493   2.294 -0.3098  0.2440 -0.3630
 4292SOL    HW114317   5.209   7.470   2.215  0.1151 -2.0527 -0.0275
 4292SOL    HW214318   5.343   7.524   2.262 -0.1772 -0.5746 -0.8363
 4293SOL     OW14319   2.686   4.971   5.370  0.1036 -0.1725 -0.2610
 4293SOL    HW114320   2.727   5.051   5.401  2.2749 -1.2819 -0.0644
 4293SOL    HW214321   2.645   4.933   5.448 -0.2737  0.3585 -0.2003
 4294SOL     OW14322   1.085   2.970  10.302 -0.2201 -0.1650  0.0171
 4294SOL    HW114323   1.128   3.055  10.293 -0.0881 -0.2385 -0.0350
 4294SOL    HW214324   1.057   2.948  10.214  0.2648 -0.4535 -0.0646
 4295SOL     OW14325   1.086   5.872   8.014  0.4892  0.0731 -0.0767
 4295SOL    HW114326   1.161   5.932   8.007 -0.4350  1.4586  1.2456
 4295SOL    HW214327   1.022   5.920   8.066 -0.6503 -1.7596  0.2988
 4296SOL     OW14328   3.677   5.762   1.220 -0.1165 -0.0305 -0.8058
 4296SOL    HW114329   3.636   5.694   1.167 -0.3591  0.1924 -0.9009
 4296SOL    HW214330   3.768   5.733   1.229 -0.1452 -0.2119 -1.1036
 4297SOL     OW14331   2.849   6.904   9.147  0.2665  0.5416 -0.2363
 4297SOL    HW114332   2.821   6.817   9.174 -1.5036  1.3451  0.7369
 4297SOL    HW214333   2.826   6.909   9.054  0.7171 -0.1390 -0.3911
 4298SOL     OW14334   0.566   3.295   3.986 -0.4032 -0.4329  0.8107
 4298SOL    HW114335   0.471   3.293   3.979 -0.5409 -1.1469  2.4252
 4298SOL    HW214336   0.585   3.255   4.071  1.3052  0.3508  0.8487
 4299SOL     OW14337   6.573   0.707   5.430  0.1617  0.6678  0.1477
 4299SOL    HW114338   6.665   0.682   5.436 -0.0473 -0.1964 -0.0594
 4299SOL    HW214339   6.567   0.758   5.349  0.2560 -0.2788 -0.4768
 4300SOL     OW14340   7.351   0.367   5.854 -0.0526 -0.4544  0.2250
 4300SOL    HW114341   7.296   0.402   5.925 -0.9229 -1.6908  0.1966
 4300SOL    HW214342   7.401   0.297   5.896  0.5865 -0.1596 -0.0416
 4301SOL     OW14343   4.456   7.603   4.515 -0.7628  0.1737  0.1161
 4301SOL    HW114344   4.403   7.526   4.494  0.1078 -1.0500  2.0393
 4301SOL    HW214345   4.414   7.640   4.593 -0.8508  1.3751 -0.4690
 4302SOL     OW14346   5.966   3.823   2.467 -0.6282  0.0391 -0.4210
 4302SOL    HW114347   5.984   3.896   2.525 -1.0911 -1.6154  1.9186
 4302SOL    HW214348   6.043   3.820   2.409  0.6239  0.8325  1.1123
 4303SOL     OW14349   5.478   1.080   8.903  0.2430 -0.0612 -0.2541
 4303SOL    HW114350   5.405   1.131   8.868 -0.0395 -0.2878 -0.0037
 4303SOL    HW214351   5.512   1.134   8.975 -1.5613 -1.2265  1.5990
 4304SOL     OW14352   5.287   7.700   1.609 -0.2475  0.0841  0.1485
 4304SOL    HW114353   5.289   7.653   1.692 -1.2549  1.7136  1.1550
 4304SOL    HW214354   5.354   7.658   1.556 -0.6030 -1.9919  1.2224
 4305SOL     OW14355   3.349   6.994   3.856 -0.0870  1.2377  0.1899
 4305SOL    HW114356   3.433   6.948   3.856 -0.2066  0.9994 -0.5029
 4305SOL    HW214357   3.351   7.048   3.934  1.6305  2.8847 -0.9168
 4306SOL     OW14358   5.963   4.106   5.794 -0.6630 -0.2048  0.1150
 4306SOL    HW114359   5.914   4.167   5.739 -1.0565 -0.1236  0.5473
 4306SOL    HW214360   5.900   4.078   5.860 -0.4527 -0.9939 -0.0086
 4307SOL     OW14361   5.386   7.612   7.080 -0.7940  0.0287 -0.5747
 4307SOL    HW114362   5.373   7.526   7.121  1.1879 -1.6899 -3.2566
 4307SOL    HW214363   5.314   7.619   7.017  0.6310 -1.0726 -2.4037
 4308SOL     OW14364   6.465   6.943  10.508  0.3402 -0.2738  0.5101
 4308SOL    HW114365   6.544   6.942  10.453 -0.9716  2.0174 -1.6125
 4308SOL    HW214366   6.450   7.035  10.528 -1.1935 -0.7582  1.8548
 4309SOL     OW14367   0.931   5.591   1.767  0.6929  0.2798  0.3766
 4309SOL    HW114368   0.923   5.677   1.726  0.5461  0.2513  0.3469
 4309SOL    HW214369   0.990   5.542   1.709  0.8483  0.3890  0.4407
 4310SOL     OW14370   1.338   1.185   3.357  0.0171 -0.2248  0.7545
 4310SOL    HW114371   1.268   1.187   3.423 -1.4569  0.2282 -0.7460
 4310SOL    HW214372   1.352   1.277   3.334 -0.5771 -0.4359 -0.5974
 4311SOL     OW14373   7.848   5.020   9.262  0.1702  0.1117  0.4577
 4311SOL    HW114374   7.875   5.107   9.290  1.0597 -0.3426  1.0645
 4311SOL    HW214375   7.848   5.024   9.166  1.3712  0.4389  0.4566
 4312SOL     OW14376   0.916   7.170   8.226 -0.4106 -0.0929 -0.3776
 4312SOL    HW114377   0.937   7.180   8.319  1.2242  1.2689 -0.8491
 4312SOL    HW214378   0.828   7.207   8.217 -0.8629 -0.8495  0.7214
 4313SOL     OW14379   7.861   5.605  11.007 -0.0442 -0.4890  0.6459
 4313SOL    HW114380   7.866   5.514  11.037  1.3550 -0.3959  0.7540
 4313SOL    HW214381   7.945   5.643  11.032  0.1796  0.2896 -1.1563
 4314SOL     OW14382   0.800   6.893   8.576  0.1354 -0.4906  0.2434
 4314SOL    HW114383   0.790   6.799   8.557 -0.1637 -0.5491  0.6676
 4314SOL    HW214384   0.844   6.896   8.660 -0.1014 -0.2504  0.3602
 4315SOL     OW14385   5.210   2.177   8.269 -0.2667  0.1068  0.4876
 4315SOL    HW114386   5.258   2.251   8.305 -0.5092  0.6826 -0.3379
 4315SOL    HW214387   5.209   2.112   8.340 -0.7895  1.2140  1.5352
 4316SOL     OW14388   7.360   3.058   7.343 -0.2986  0.1153  0.1465
 4316SOL    HW114389   7.334   3.068   7.252  1.2284 -0.7736 -0.4283
 4316SOL    HW214390   7.284   3.021   7.387 -1.5344  1.8476 -0.4456
 4317SOL     OW14391   7.742   5.039   1.109 -0.6463 -0.2656  0.5708
 4317SOL    HW114392   7.687   4.978   1.060 -0.3413 -1.3220  1.4987
 4317SOL    HW214393   7.798   5.079   1.042 -1.4148 -0.3870 -0.1630
 4318SOL     OW14394   7.530   4.421   5.513  0.0124 -0.0520  0.3042
 4318SOL    HW114395   7.503   4.505   5.475 -0.0524 -0.2277 -0.0446
 4318SOL    HW214396   7.470   4.357   5.474 -1.5366  0.0276  2.3919
 4319SOL     OW14397   3.084   5.817   5.508  0.2355 -0.3115 -0.0991
 4319SOL    HW114398   3.037   5.748   5.554 -1.1417  0.4609 -0.2935
 4319SOL    HW214399   3.016   5.864   5.460  1.1998  0.9524 -0.2699
 4320SOL     OW14400   5.074   7.971   9.407  0.3731  0.0210 -0.1526
 4320SOL    HW114401   5.036   7.925   9.332  0.4378 -0.2637 -0.0113
 4320SOL    HW214402   5.003   7.975   9.471  0.8566 -1.3987  0.5073
 4321SOL     OW14403   7.727   3.585   5.950  0.1126  0.9573  0.5085
 4321SOL    HW114404   7.736   3.596   5.855  0.8925 -1.5040  0.2320
 4321SOL    HW214405   7.681   3.502   5.960 -0.2232  1.3259  2.3238
 4322SOL     OW14406   0.653   0.312   1.083  0.3200 -0.0734  0.3843
 4322SOL    HW114407   0.658   0.355   1.168 -0.1865 -0.1860  0.4717
 4322SOL    HW214408   0.561   0.316   1.059  0.4546 -0.0592 -0.1534
 4323SOL     OW14409   6.118   6.136   2.058  0.2375 -0.1686  0.3581
 4323SOL    HW114410   6.164   6.122   1.975 -1.4310  0.1626 -0.6631
 4323SOL    HW214411   6.159   6.074   2.118  0.8418 -1.1018 -0.9540
 4324SOL     OW14412   6.265   6.470  11.085  0.2297  0.2183  0.8548
 4324SOL    HW114413   6.244   6.477  11.178  2.0165  1.3557  1.2291
 4324SOL    HW214414   6.361   6.464  11.083  0.1770 -0.7968 -0.8746
 4325SOL     OW14415   4.032   7.087  11.066 -0.1991 -0.8429  0.0206
 4325SOL    HW114416   4.110   7.141  11.049 -0.4836  0.0118  1.2658
 4325SOL    HW214417   4.065   7.013  11.117 -0.1929 -0.4957  0.5237
 4326SOL     OW14418   2.304   2.316   2.513  0.3925 -0.3612 -0.4589
 4326SOL    HW114419   2.243   2.387   2.491 -0.1660 -0.5837  0.3102
 4326SOL    HW214420   2.390   2.351   2.490 -0.0871 -0.4641 -2.6389
 4327SOL     OW14421   7.186   7.226   6.805 -0.2627 -0.5189  0.1827
 4327SOL    HW114422   7.105   7.226   6.857  0.3428 -0.6918  1.1409
 4327SOL    HW214423   7.253   7.193   6.865  0.9482  1.5700  0.0733
 4328SOL     OW14424   5.596   4.789   5.253  0.6931  0.0231  0.0823
 4328SOL    HW114425   5.570   4.732   5.180 -1.8269  0.2472  0.7102
 4328SOL    HW214426   5.534   4.862   5.250  1.4256  0.7574  1.6285
 4329SOL     OW14427   3.796   0.250   6.724  0.3208  0.1416 -0.2577
 4329SOL    HW114428   3.796   0.212   6.812 -0.7542 -2.1511 -1.1744
 4329SOL    HW214429   3.719   0.306   6.722 -0.6444 -1.1470 -0.2384
 4330SOL     OW14430   4.618   3.453   5.078 -0.1379  0.0591  0.0216
 4330SOL    HW114431   4.694   3.505   5.050  0.2267 -0.2528  0.4255
 4330SOL    HW214432   4.652   3.395   5.145 -0.3667 -1.2781 -0.9878
 4331SOL     OW14433   1.616   6.388  11.985  0.1195 -0.5053  0.3236
 4331SOL    HW114434   1.545   6.376  12.048 -0.0663 -0.4703  0.1227
 4331SOL    HW214435   1.615   6.309  11.931  0.9997 -1.0352  1.0688
 4332SOL     OW14436   2.953   5.481  11.221  0.3494 -0.1053  0.3603
 4332SOL    HW114437   2.985   5.517  11.138  0.0207 -0.4066  0.1051
 4332SOL    HW214438   2.995   5.536  11.288 -0.4160  0.9977 -0.0309
 4333SOL     OW14439   7.319   7.062  10.922 -0.4229  0.2533  0.2665
 4333SOL    HW114440   7.313   7.077  10.827 -0.0988  0.6443  0.3087
 4333SOL    HW214441   7.363   6.978  10.930  2.6931  1.7582  0.1067
 4334SOL     OW14442   1.638   6.620   7.292  0.6853  0.0309 -0.5393
 4334SOL    HW114443   1.672   6.649   7.377  2.3853  2.3065 -1.8889
 4334SOL    HW214444   1.694   6.662   7.228 -1.4879 -0.3748 -2.8719
 4335SOL     OW14445   1.854   3.664  10.828 -0.2316 -0.3318 -0.3620
 4335SOL    HW114446   1.883   3.645  10.917 -2.2845 -0.2110  0.3873
 4335SOL    HW214447   1.849   3.760  10.824  0.9422 -0.2768 -1.0109
 4336SOL     OW14448   1.202   6.523   4.669 -0.0206  0.0923  0.0118
 4336SOL    HW114449   1.181   6.501   4.760  1.3963 -1.6948 -0.0181
 4336SOL    HW214450   1.197   6.440   4.623 -2.9615  1.2916 -2.1294
 4337SOL     OW14451   1.411   7.183   1.954  0.3313  0.0262 -0.7306
 4337SOL    HW114452   1.415   7.099   2.001 -0.4809  0.9984  1.1922
 4337SOL    HW214453   1.372   7.243   2.017 -2.0749  1.1506 -3.1158
 4338SOL     OW14454   7.574   3.992   6.780  0.3673 -0.6333 -0.0378
 4338SOL    HW114455   7.558   3.974   6.688  1.3759 -1.2206 -0.1202
 4338SOL    HW214456   7.550   3.910   6.825  0.5101 -0.5801  0.1377
 4339SOL     OW14457   2.068   0.456   8.335 -0.4730 -0.1471 -0.0483
 4339SOL    HW114458   2.142   0.508   8.365  0.6239 -2.6083  1.9407
 4339SOL    HW214459   2.075   0.374   8.385 -3.5805 -1.1525 -1.0340
 4340SOL     OW14460   4.981   5.195   0.811  0.3578  0.6492 -0.0181
 4340SOL    HW114461   4.946   5.192   0.722  0.3111 -0.8939  0.0302
 4340SOL    HW214462   4.907   5.224   0.864 -0.7611 -1.9302 -0.0124
 4341SOL     OW14463   7.850   6.083   6.444 -0.2697 -0.3277  0.5045
 4341SOL    HW114464   7.795   6.012   6.475  0.9243 -0.9410  1.2663
 4341SOL    HW214465   7.918   6.092   6.510 -0.3250  1.4650  0.3789
 4342SOL     OW14466   7.705   3.545   1.225  0.6065  0.0612 -0.4606
 4342SOL    HW114467   7.690   3.638   1.241 -0.6224 -0.1626 -0.2518
 4342SOL    HW214468   7.708   3.505   1.311 -0.6708 -0.3453 -0.5841
 4343SOL     OW14469   4.069   6.584   2.898 -0.4253  0.3807  0.8756
 4343SOL    HW114470   4.134   6.641   2.857 -1.5405  1.6570  0.8149
 4343SOL    HW214471   3.987   6.634   2.895 -1.7482 -1.6858 -0.2669
 4344SOL     OW14472   0.653   0.848   7.534  0.8026  0.1880  0.0434
 4344SOL    HW114473   0.625   0.899   7.458  0.9719 -0.7779 -0.6918
 4344SOL    HW214474   0.677   0.762   7.498 -1.8935 -1.3242  1.5160
 4345SOL     OW14475   2.827   0.992  12.132 -0.1504  0.3806  0.3138
 4345SOL    HW114476   2.917   1.020  12.148  0.3965 -1.1777  0.1703
 4345SOL    HW214477   2.827   0.899  12.154 -1.6201  0.2588 -0.1104
 4346SOL     OW14478   3.635   2.492   7.607 -0.2468  0.5317  0.5638
 4346SOL    HW114479   3.718   2.530   7.579 -0.0280 -0.9055 -0.8852
 4346SOL    HW214480   3.568   2.548   7.569  0.0696  0.3060 -0.3464
 4347SOL     OW14481   3.858   1.303   0.222  0.6457  0.1807 -1.0029
 4347SOL    HW114482   3.781   1.252   0.247  0.0493  1.0536 -1.0119
 4347SOL    HW214483   3.930   1.241   0.225  0.3011 -0.1904  1.0388
 4348SOL     OW14484   6.531   5.772   4.528  0.1425 -0.4264  0.1844
 4348SOL    HW114485   6.511   5.770   4.435 -1.3313 -1.8589  0.4887
 4348SOL    HW214486   6.463   5.827   4.566  0.9038  0.3910  0.4163
 4349SOL     OW14487   5.995   0.155  10.995  0.0402 -0.1763 -0.7296
 4349SOL    HW114488   5.956   0.223  10.941  0.1004 -0.5239 -1.2167
 4349SOL    HW214489   6.071   0.125  10.945  0.7147  0.2300  0.0332
 4350SOL     OW14490   0.489   3.544  11.871  0.3047  0.3110 -0.5857
 4350SOL    HW114491   0.473   3.610  11.939  0.5056  0.5044 -0.7224
 4350SOL    HW214492   0.522   3.468  11.918 -1.1465 -0.1607 -0.2784
 4351SOL     OW14493   4.661   4.754   9.288  0.3964  0.3653 -0.2679
 4351SOL    HW114494   4.673   4.708   9.371  2.7425  0.3429 -0.5691
 4351SOL    HW214495   4.704   4.838   9.300 -3.5471  2.5706  0.1650
 4352SOL     OW14496   4.759   7.092   0.792  0.2358  0.1028  0.0831
 4352SOL    HW114497   4.806   7.141   0.725  1.0309 -1.3488 -0.4804
 4352SOL    HW214498   4.829   7.052   0.844 -0.3626 -1.3014 -0.1545
 4353SOL     OW14499   5.893   1.449  11.986  0.3215  0.2532  0.7950
 4353SOL    HW114500   5.829   1.418  12.051  0.1519 -0.9532  0.0675
 4353SOL    HW214501   5.841   1.464  11.907  0.4309  2.2473  1.0365
 4354SOL     OW14502   0.948   1.097   3.788 -0.2333  0.3122 -0.0250
 4354SOL    HW114503   0.928   1.043   3.712 -0.1926  0.7037 -0.3115
 4354SOL    HW214504   1.040   1.121   3.778 -0.4355  1.0127 -0.2613
 4355SOL     OW14505   3.930   7.284  11.839  0.0146  0.7436 -0.3830
 4355SOL    HW114506   4.019   7.321  11.838  0.7197 -0.8620 -1.1354
 4355SOL    HW214507   3.943   7.193  11.814 -1.6219 -0.0787  1.5683
 4356SOL     OW14508   5.215   3.995   1.117 -0.4293 -0.4369  0.0499
 4356SOL    HW114509   5.190   4.064   1.056  0.2475 -0.5209 -0.3263
 4356SOL    HW214510   5.144   3.994   1.181 -0.0095  1.2283  0.5981
 4357SOL     OW14511   0.624   7.680  12.171 -0.0995  0.0586  0.2400
 4357SOL    HW114512   0.648   7.592  12.140 -1.2951  0.0366 -0.7086
 4357SOL    HW214513   0.603   7.667  12.263  0.8322 -0.4266  0.3989
 4358SOL     OW14514   0.844   2.858   0.600 -0.3013 -0.2986  0.4244
 4358SOL    HW114515   0.854   2.812   0.684  0.4716  0.8984  1.0196
 4358SOL    HW214516   0.783   2.928   0.619  0.1814  0.2170  0.0985
 4359SOL     OW14517   1.878   4.292   8.656  0.4553  0.1275  0.4387
 4359SOL    HW114518   1.927   4.286   8.573  1.6558  2.1653  0.9376
 4359SOL    HW214519   1.788   4.273   8.631  0.9637 -0.4631 -1.1178
 4360SOL     OW14520   3.632   5.921   6.344  0.0487  0.2518 -0.4017
 4360SOL    HW114521   3.724   5.908   6.320  0.2905  0.7826  0.2198
 4360SOL    HW214522   3.625   5.888   6.433 -0.3901  0.1253 -0.4788
 4361SOL     OW14523   3.146   4.809  11.219  0.1415  0.0383 -0.1541
 4361SOL    HW114524   3.157   4.871  11.291  0.5061  0.2499 -0.3885
 4361SOL    HW214525   3.113   4.862  11.146 -1.1003 -0.3329  0.1129
 4362SOL     OW14526   6.576   6.879   4.092 -0.3210  0.3705  0.1585
 4362SOL    HW114527   6.580   6.785   4.075 -1.8086  0.3688 -0.3130
 4362SOL    HW214528   6.647   6.895   4.154 -0.3282 -1.1393  0.6025
 4363SOL     OW14529   3.775   0.137  11.162  0.2938 -0.6205 -0.1342
 4363SOL    HW114530   3.760   0.226  11.130  1.7254 -0.0039  0.8194
 4363SOL    HW214531   3.732   0.135  11.248  0.0586 -0.9271 -0.2598
 4364SOL     OW14532   3.634   1.817   3.164  0.1546  0.4439 -0.6153
 4364SOL    HW114533   3.556   1.791   3.114 -1.1421 -0.2225  1.6538
 4364SOL    HW214534   3.684   1.737   3.175  0.7779  0.7168 -1.3615
 4365SOL     OW14535   5.460   3.658   4.160 -0.4248  0.5182  0.2198
 4365SOL    HW114536   5.420   3.648   4.246 -2.2891 -1.3555 -0.7827
 4365SOL    HW214537   5.505   3.575   4.145 -0.1975  0.7938 -0.6675
 4366SOL     OW14538   2.697   2.101   7.694  0.4861 -0.3920  0.0068
 4366SOL    HW114539   2.694   2.197   7.698 -0.3786 -0.4152  0.0523
 4366SOL    HW214540   2.731   2.081   7.607 -1.4721 -0.0468 -0.8914
 4367SOL     OW14541   2.642   2.510   3.410 -0.3876  0.2909 -0.0475
 4367SOL    HW114542   2.660   2.583   3.351  1.4131 -0.4560 -0.4820
 4367SOL    HW214543   2.587   2.451   3.358 -3.0765  1.9116  0.7810
 4368SOL     OW14544   0.596   1.893   5.242 -0.0647 -0.5200 -0.0434
 4368SOL    HW114545   0.672   1.888   5.300  0.0244  0.1097 -0.0926
 4368SOL    HW214546   0.620   1.960   5.178 -0.9148  0.1545  0.3250
 4369SOL     OW14547   0.750   5.832   4.175 -0.2022  0.5882 -0.1994
 4369SOL    HW114548   0.827   5.783   4.205  0.1782  1.0167 -0.4439
 4369SOL    HW214549   0.735   5.800   4.086  1.1315  2.1287 -1.0294
 4370SOL     OW14550   4.800   1.795  12.297 -0.2990 -0.4543 -0.2644
 4370SOL    HW114551   4.709   1.795  12.327  0.3792 -0.0370  2.0246
 4370SOL    HW214552   4.838   1.718  12.339  0.8610  0.5017  0.5068
 4371SOL     OW14553   3.696   7.687   4.478  0.3916  0.2326  0.4565
 4371SOL    HW114554   3.768   7.693   4.415 -0.6389 -3.4548 -1.3901
 4371SOL    HW214555   3.620   7.720   4.430  0.1621  0.4343  0.9591
 4372SOL     OW14556   5.087   6.860  11.934  0.2788  0.6144  0.1729
 4372SOL    HW114557   5.027   6.847  11.860  2.1182  0.2074 -1.3233
 4372SOL    HW214558   5.152   6.922  11.902  0.1607  1.7991  2.0876
 4373SOL     OW14559   5.016   7.882  12.037  0.4595 -0.2337 -0.0303
 4373SOL    HW114560   4.940   7.823  12.033 -1.1318  1.7424 -0.2445
 4373SOL    HW214561   5.023   7.905  12.130  2.1076 -1.9085  0.3477
 4374SOL     OW14562   3.444   6.448  11.708 -0.4292  0.3383  0.1926
 4374SOL    HW114563   3.349   6.435  11.699 -0.3969  0.8787 -1.1848
 4374SOL    HW214564   3.474   6.466  11.619  1.0003  0.0560  0.5925
 4375SOL     OW14565   4.111   1.913   8.702  0.0706  0.2257  0.1850
 4375SOL    HW114566   4.030   1.870   8.729  0.2089  0.0247  0.2702
 4375SOL    HW214567   4.115   1.992   8.756  0.3222 -0.1475  0.7105
 4376SOL     OW14568   2.384   7.835   4.758  0.1608 -0.4174  0.1111
 4376SOL    HW114569   2.318   7.791   4.812  0.2573  0.2814  0.8264
 4376SOL    HW214570   2.333   7.885   4.694 -0.0129  0.2056  0.7300
 4377SOL     OW14571   7.075   7.754   1.604 -0.1705 -0.3521 -0.7025
 4377SOL    HW114572   7.048   7.779   1.516 -2.3087  2.1043  0.5185
 4377SOL    HW214573   7.049   7.662   1.612 -2.0201  0.0170 -1.9196
 4378SOL     OW14574   2.258   6.461  10.341 -0.7545 -0.1255 -0.2452
 4378SOL    HW114575   2.336   6.503  10.377 -0.2578 -0.1243 -1.2807
 4378SOL    HW214576   2.259   6.373  10.380 -0.1466 -0.1747 -0.3490
 4379SOL     OW14577   7.724   0.393   2.662  0.0296 -0.5587 -0.1183
 4379SOL    HW114578   7.640   0.436   2.646  0.7667  0.9609 -0.0783
 4379SOL    HW214579   7.759   0.375   2.575  0.3099  0.1520 -0.1600
 4380SOL     OW14580   2.143   4.546   3.860 -0.9185  0.4703  0.3206
 4380SOL    HW114581   2.058   4.588   3.874 -0.1131  1.9056  1.2075
 4380SOL    HW214582   2.205   4.601   3.909  0.6218 -0.1620 -0.8281
 4381SOL     OW14583   2.809   2.010   5.350  0.2114 -0.1780 -0.1449
 4381SOL    HW114584   2.868   1.978   5.418  2.0331  0.4972 -1.3538
 4381SOL    HW214585   2.822   1.951   5.276 -0.1512  0.3424 -0.6396
 4382SOL     OW14586   3.147   3.191   1.554 -0.0041  0.1073 -0.0041
 4382SOL    HW114587   3.168   3.133   1.481  0.8468 -0.2889  0.5326
 4382SOL    HW214588   3.091   3.139   1.612  0.7626 -0.1963  0.4798
 4383SOL     OW14589   7.625   1.263   9.946  0.0429 -0.2505 -0.1678
 4383SOL    HW114590   7.588   1.287  10.031  0.0993 -1.6706  0.2833
 4383SOL    HW214591   7.625   1.168   9.946  1.6945 -0.2842 -1.0552
 4384SOL     OW14592   5.515   0.686   9.835 -0.0800  0.3178 -0.6350
 4384SOL    HW114593   5.565   0.664   9.756 -1.0214  0.0384 -1.1632
 4384SOL    HW214594   5.582   0.697   9.903  0.6957 -0.1428 -1.3011
 4385SOL     OW14595   3.814   7.493   9.856  0.1050  0.1649  0.6025
 4385SOL    HW114596   3.719   7.494   9.870 -0.3744 -1.7961 -1.8515
 4385SOL    HW214597   3.846   7.427   9.918 -0.2835  0.0194  0.6556
 4386SOL     OW14598   3.365   0.723   1.891 -0.1976  0.4545 -0.1278
 4386SOL    HW114599   3.297   0.660   1.867  0.3431 -0.4663  0.6680
 4386SOL    HW214600   3.336   0.759   1.975 -0.1538  0.7483 -0.2368
 4387SOL     OW14601   7.136   3.622   7.121 -0.8052 -0.6089 -0.6401
 4387SOL    HW114602   7.063   3.673   7.156 -0.6334 -0.5079 -0.4266
 4387SOL    HW214603   7.174   3.677   7.053  0.2229  0.1431  0.5023
 4388SOL     OW14604   5.999   7.820   1.439 -0.2947 -0.3980  0.0511
 4388SOL    HW114605   6.011   7.767   1.518 -0.2828 -1.1425 -0.4406
 4388SOL    HW214606   5.909   7.802   1.411 -1.0421  1.4976  1.0570
 4389SOL     OW14607   1.627   5.234   8.802  0.3967 -0.3682  0.1471
 4389SOL    HW114608   1.645   5.232   8.896  1.9195 -0.4635 -0.1250
 4389SOL    HW214609   1.639   5.143   8.773  1.5296 -0.0560 -0.4031
 4390SOL     OW14610   2.855   2.404   3.081  0.0795 -0.3116  0.1917
 4390SOL    HW114611   2.766   2.372   3.098 -0.2097 -0.6645 -1.7842
 4390SOL    HW214612   2.867   2.393   2.987  2.4397 -0.8197  0.4851
 4391SOL     OW14613   7.087   6.297  11.982  0.1705 -0.4040 -0.3016
 4391SOL    HW114614   7.128   6.383  11.994 -1.1682  0.0327  1.7769
 4391SOL    HW214615   7.020   6.312  11.916 -0.3188  0.2986  0.3281
 4392SOL     OW14616   0.083   6.685   5.441 -0.2371  0.3006  0.5025
 4392SOL    HW114617  -0.008   6.671   5.412  0.4516  0.3929 -1.9891
 4392SOL    HW214618   0.134   6.675   5.361  1.8799  1.1385  1.6890
 4393SOL     OW14619   5.290   1.939   4.132 -0.1664 -0.1625 -0.4009
 4393SOL    HW114620   5.268   1.880   4.205 -1.8033  2.8943  1.8069
 4393SOL    HW214621   5.213   1.936   4.075 -0.2304 -0.2152 -0.3130
 4394SOL     OW14622   4.457   6.125   6.393 -0.5459 -0.3948  0.3505
 4394SOL    HW114623   4.395   6.127   6.466 -0.1451  0.2050  0.6904
 4394SOL    HW214624   4.459   6.215   6.361  0.7108 -0.2244  0.8425
 4395SOL     OW14625   0.399   3.882   8.524  0.5733 -0.4435  0.3799
 4395SOL    HW114626   0.358   3.818   8.466 -2.3513  1.1657  0.4785
 4395SOL    HW214627   0.395   3.841   8.611 -1.2979 -0.2098  0.4511
 4396SOL     OW14628   2.280   6.300   5.190 -0.1239  0.0876  0.5516
 4396SOL    HW114629   2.290   6.210   5.221 -0.6589 -0.9586 -2.0716
 4396SOL    HW214630   2.279   6.353   5.270 -2.4071 -2.4569  2.4127
 4397SOL     OW14631   7.527   0.262   4.365 -0.5033 -0.6607 -0.4860
 4397SOL    HW114632   7.478   0.238   4.286 -1.5493 -0.7124  0.1627
 4397SOL    HW214633   7.521   0.357   4.369 -0.6041 -0.6727 -0.3672
 4398SOL     OW14634   1.247   0.585  11.162 -0.1112  0.5115  0.1164
 4398SOL    HW114635   1.308   0.659  11.169  0.6206  0.0245 -0.8499
 4398SOL    HW214636   1.291   0.513  11.207  0.5107 -0.1202 -1.4464
 4399SOL     OW14637   3.651   6.675   1.393 -0.4658 -0.2600  0.1937
 4399SOL    HW114638   3.660   6.768   1.414 -1.8318 -0.1108  0.1802
 4399SOL    HW214639   3.602   6.673   1.311 -0.5986 -1.0027  0.2805
 4400SOL     OW14640   1.073   3.237  10.659 -0.1105  0.6146 -0.2919
 4400SOL    HW114641   0.986   3.261  10.691 -1.6070 -2.3714 -1.7004
 4400SOL    HW214642   1.059   3.154  10.613  3.0013  1.4277 -3.0506
 4401SOL     OW14643   1.126   5.276  11.179 -0.0786 -0.4621  0.2902
 4401SOL    HW114644   1.112   5.304  11.088  0.1900  1.4271  0.7982
 4401SOL    HW214645   1.211   5.232  11.177 -0.0774 -0.4457 -0.3806
 4402SOL     OW14646   2.295   6.418   8.803  0.1613 -0.5618  0.4610
 4402SOL    HW114647   2.382   6.456   8.797  0.4855 -1.1721  1.2093
 4402SOL    HW214648   2.241   6.487   8.841  0.2028 -0.0167 -0.4482
 4403SOL     OW14649   7.925   6.605   5.039  0.1282 -0.1526  0.9494
 4403SOL    HW114650   7.907   6.511   5.039  0.3630 -0.2378 -1.2158
 4403SOL    HW214651   7.842   6.646   5.015  0.7538 -0.0592 -1.2824
 4404SOL     OW14652   5.751   7.406   9.099  0.3071  0.1385 -0.4914
 4404SOL    HW114653   5.668   7.450   9.082  0.1431 -0.6957 -1.9199
 4404SOL    HW214654   5.818   7.467   9.067  0.1644  0.0710 -0.9134
 4405SOL     OW14655   6.778   4.007   1.204 -0.4710  0.3767  0.0102
 4405SOL    HW114656   6.787   3.978   1.113 -1.3440 -0.2423  0.1066
 4405SOL    HW214657   6.749   4.098   1.197 -0.3365  0.3953 -0.3241
 4406SOL     OW14658   0.916   4.985   6.295 -0.2124  1.0003 -0.2221
 4406SOL    HW114659   0.849   4.969   6.361 -0.1366  2.1915  0.1721
 4406SOL    HW214660   0.885   5.063   6.248  0.4818  1.0593 -0.5977
 4407SOL     OW14661   3.489   1.061   3.211  0.0681  0.3344  0.1537
 4407SOL    HW114662   3.393   1.061   3.216 -0.0545 -0.0682 -1.5553
 4407SOL    HW214663   3.513   0.969   3.224  0.0990  0.1787 -0.9332
 4408SOL     OW14664   0.059   0.903   4.590  0.1332  0.6207  0.2051
 4408SOL    HW114665  -0.036   0.912   4.582  0.0415 -0.5206 -0.2965
 4408SOL    HW214666   0.071   0.849   4.669  0.3364  0.4764  0.0775
 4409SOL     OW14667   0.772   0.528   9.791  0.4980  0.0025 -0.2931
 4409SOL    HW114668   0.850   0.528   9.847  0.7337 -0.5370 -0.6067
 4409SOL    HW214669   0.796   0.471   9.718 -0.1973 -0.1725 -0.3893
 4410SOL     OW14670   0.501   0.026   7.347  0.2408  0.1052 -0.2615
 4410SOL    HW114671   0.591   0.007   7.374 -0.1005  0.5336  1.3070
 4410SOL    HW214672   0.501   0.119   7.325  0.0647  0.2615  0.3627
 4411SOL     OW14673   5.924   4.745   5.166 -0.2694 -0.3815  0.0162
 4411SOL    HW114674   5.833   4.776   5.167 -0.7582 -1.7487  0.5819
 4411SOL    HW214675   5.975   4.818   5.202 -1.3845 -0.2592  1.4260
 4412SOL     OW14676   7.314   5.786   9.697  0.0897  0.1732 -0.1785
 4412SOL    HW114677   7.400   5.744   9.688 -0.0901 -0.7536  1.8794
 4412SOL    HW214678   7.259   5.719   9.739 -0.5237  2.0409  2.1767
 4413SOL     OW14679   5.527   6.906   8.523 -0.7885  0.2986  0.2517
 4413SOL    HW114680   5.609   6.896   8.572 -0.0634  0.8171 -0.8159
 4413SOL    HW214681   5.463   6.933   8.588 -0.7692 -2.5622  1.6276
 4414SOL     OW14682   2.029   7.162   4.838 -0.4337  0.0919 -0.5266
 4414SOL    HW114683   2.024   7.202   4.924 -0.0273  0.1722 -0.5393
 4414SOL    HW214684   1.941   7.127   4.822 -0.4180 -0.2341  0.0703
 4415SOL     OW14685   3.747   4.310   3.204  0.2052  0.1747  0.3627
 4415SOL    HW114686   3.810   4.244   3.233  0.3175  0.3923  0.6190
 4415SOL    HW214687   3.713   4.349   3.285 -0.6902 -0.3356  0.2501
 4416SOL     OW14688   3.877   0.116   2.506  0.7044  0.7002 -0.4177
 4416SOL    HW114689   3.941   0.175   2.466  0.2565  0.6804 -1.1791
 4416SOL    HW214690   3.800   0.122   2.450 -0.0407  0.8733  0.5963
 4417SOL     OW14691   3.590   1.880  11.887 -0.1190 -0.3322 -0.3064
 4417SOL    HW114692   3.539   1.961  11.887  1.5592  0.8054  1.1729
 4417SOL    HW214693   3.654   1.892  11.818  0.7954  0.0862  0.5920
 4418SOL     OW14694   2.160   0.948   5.907  0.3080  0.5079  0.0243
 4418SOL    HW114695   2.202   0.898   5.836 -1.1961 -0.4357 -0.2484
 4418SOL    HW214696   2.068   0.954   5.881  0.0591  1.6628  1.0747
 4419SOL     OW14697   1.680   3.506  11.872 -0.0605  0.5125  0.3989
 4419SOL    HW114698   1.609   3.556  11.831  0.7587 -0.2341 -2.0908
 4419SOL    HW214699   1.654   3.415  11.862  0.1769  0.3055  1.5806
 4420SOL     OW14700   4.784   3.842  11.811 -0.2981  0.0203 -0.0668
 4420SOL    HW114701   4.844   3.788  11.862  1.4056  1.6669 -0.2289
 4420SOL    HW214702   4.741   3.780  11.752  1.3300 -1.2163 -0.0384
 4421SOL     OW14703   0.691   6.348   7.703 -0.5340 -0.2863 -0.0423
 4421SOL    HW114704   0.746   6.396   7.641 -0.5764 -0.8275 -0.5041
 4421SOL    HW214705   0.664   6.270   7.655 -1.4682 -0.1740  0.2725
 4422SOL     OW14706   2.339   1.879   2.657  0.4670 -0.4332  0.2389
 4422SOL    HW114707   2.307   1.796   2.621 -0.1466 -0.3147  0.5056
 4422SOL    HW214708   2.334   1.941   2.584  0.7859 -0.5897  0.0808
 4423SOL     OW14709   5.952   6.899   8.277 -0.1322  0.2065  0.2623
 4423SOL    HW114710   6.046   6.920   8.273 -0.1870  0.3192 -0.4128
 4423SOL    HW214711   5.909   6.984   8.275 -0.2352  0.1869  1.2198
 4424SOL     OW14712   5.719   7.483   8.787 -0.7410  0.4512 -0.1185
 4424SOL    HW114713   5.681   7.417   8.729  0.6563 -1.4256  0.9818
 4424SOL    HW214714   5.800   7.509   8.744 -0.6818  0.5420  0.0453
 4425SOL     OW14715   1.232   0.798   1.863 -0.1062  0.6742  0.3555
 4425SOL    HW114716   1.145   0.774   1.831  0.1029  1.3027 -0.7426
 4425SOL    HW214717   1.216   0.868   1.927 -0.3741  1.2750 -0.3560
 4426SOL     OW14718   7.279   5.190   0.765  0.1799 -0.2997 -0.1564
 4426SOL    HW114719   7.363   5.229   0.790  0.6606 -0.5462 -1.2871
 4426SOL    HW214720   7.214   5.242   0.811  0.9496 -0.1607  0.8201
 4427SOL     OW14721   3.946   0.257   1.065  0.3647  0.1452 -0.0459
 4427SOL    HW114722   4.010   0.279   0.997  0.6405 -0.0933  0.1349
 4427SOL    HW214723   3.883   0.329   1.063  0.9650  0.6766  0.1777
 4428SOL     OW14724   0.550   5.092   2.282  0.2041 -0.1115 -0.1676
 4428SOL    HW114725   0.590   5.160   2.228  0.5053 -0.8773 -0.9380
 4428SOL    HW214726   0.623   5.033   2.304 -0.4518 -1.5844 -1.6850
 4429SOL     OW14727   1.529   4.852   7.516  0.4358  0.0573 -0.2159
 4429SOL    HW114728   1.501   4.815   7.433  1.1734  0.2664 -0.5610
 4429SOL    HW214729   1.457   4.911   7.542 -0.1668 -0.6433 -0.2834
 4430SOL     OW14730   0.719   6.764   7.939  0.2563  0.5046  0.0885
 4430SOL    HW114731   0.662   6.836   7.911 -0.8503 -0.6017 -0.6519
 4430SOL    HW214732   0.798   6.774   7.886 -0.3524  0.5455 -0.8480
 4431SOL     OW14733   2.481   6.945   2.566  0.2638  0.1682  0.2493
 4431SOL    HW114734   2.550   6.882   2.544 -0.5121 -0.0929 -1.6775
 4431SOL    HW214735   2.421   6.942   2.491 -1.2022  1.2806  1.3148
 4432SOL     OW14736   0.280   1.043   6.535  0.0637  0.2764 -0.2119
 4432SOL    HW114737   0.197   0.997   6.537 -0.0402  0.4800  0.1538
 4432SOL    HW214738   0.323   1.010   6.456  0.2032 -0.8016  0.2991
 4433SOL     OW14739   0.333   5.544   5.682  0.2964  0.7160  0.1280
 4433SOL    HW114740   0.378   5.461   5.669 -0.2566  0.4529 -0.1403
 4433SOL    HW214741   0.374   5.581   5.760 -1.2558 -1.0859  1.9285
 4434SOL     OW14742   2.965   3.377   3.084  0.7621 -0.4292 -0.2624
 4434SOL    HW114743   2.970   3.372   3.179 -0.8520 -1.8021 -0.2094
 4434SOL    HW214744   3.035   3.321   3.052  1.8976  0.7484  0.0663
 4435SOL     OW14745   2.716   4.593   4.751 -0.5453  0.1224  0.1674
 4435SOL    HW114746   2.708   4.619   4.660 -0.3951  1.4222  0.5048
 4435SOL    HW214747   2.771   4.661   4.791 -0.0955 -0.7570  1.0861
 4436SOL     OW14748   2.472   6.863   0.531 -0.1920 -0.0683  0.1110
 4436SOL    HW114749   2.387   6.818   0.532 -0.4972  0.4950  0.7686
 4436SOL    HW214750   2.466   6.926   0.603 -0.3567  2.0516 -1.6630
 4437SOL     OW14751   2.921   3.654   1.563  0.2140 -0.3346 -0.4410
 4437SOL    HW114752   2.992   3.716   1.548 -0.2074  0.7895  1.7410
 4437SOL    HW214753   2.862   3.700   1.624 -0.4912 -2.6034  0.6850
 4438SOL     OW14754   5.823   4.204   6.417 -0.1404  0.5205 -0.7713
 4438SOL    HW114755   5.824   4.114   6.447 -1.1705  0.1064 -1.8734
 4438SOL    HW214756   5.770   4.251   6.482  0.6789  0.4134 -0.0175
 4439SOL     OW14757   3.536   4.697   2.206 -0.2294  0.1976  0.0422
 4439SOL    HW114758   3.549   4.763   2.138 -2.5427 -0.0084 -0.6723
 4439SOL    HW214759   3.500   4.746   2.280  2.5169  0.4684  1.3339
 4440SOL     OW14760   3.020   4.100  10.229  0.1740 -0.5135 -0.1380
 4440SOL    HW114761   3.000   4.194  10.221 -0.1822 -0.7063 -2.0382
 4440SOL    HW214762   3.093   4.086  10.168  0.5151 -1.4047  0.4531
 4441SOL     OW14763   2.316   2.617   6.774  0.3606  0.0264  0.4141
 4441SOL    HW114764   2.367   2.543   6.808 -0.4337 -1.1560 -0.8556
 4441SOL    HW214765   2.227   2.582   6.765 -0.3243  1.5343  0.9560
 4442SOL     OW14766   4.855   4.065   5.317  0.2102  0.3192 -0.4143
 4442SOL    HW114767   4.883   4.157   5.322  2.8528 -0.4596  0.3492
 4442SOL    HW214768   4.932   4.018   5.285 -0.6360 -1.8512  0.5675
 4443SOL     OW14769   0.188   4.941  11.264  0.2464 -0.5292  0.9446
 4443SOL    HW114770   0.182   4.864  11.321  2.5496 -1.7120 -0.2594
 4443SOL    HW214771   0.249   4.999  11.308  0.5245 -0.5709  0.6156
 4444SOL     OW14772   5.194   4.110   3.872 -0.0276 -0.5978  0.0005
 4444SOL    HW114773   5.286   4.136   3.861  0.1403  0.2541  2.7535
 4444SOL    HW214774   5.145   4.191   3.861 -0.5134 -1.0746 -1.5958
 4445SOL     OW14775   5.079   1.126   8.786 -0.0615  0.3729  0.3197
 4445SOL    HW114776   5.113   1.039   8.807  0.7877  0.3754 -0.9287
 4445SOL    HW214777   5.000   1.108   8.734  1.2184  0.2857 -1.6836
 4446SOL     OW14778   4.356   6.417   1.334  0.0862 -0.2851  0.5234
 4446SOL    HW114779   4.267   6.384   1.348 -1.3340  2.8639 -0.0329
 4446SOL    HW214780   4.361   6.431   1.239  1.5804 -1.3464  0.4234
 4447SOL     OW14781   7.459   6.135   8.224 -0.8861 -0.6453  0.1886
 4447SOL    HW114782   7.387   6.094   8.272 -0.0784  0.3591  2.3959
 4447SOL    HW214783   7.416   6.183   8.153 -2.1544 -2.1087 -0.0861
 4448SOL     OW14784   1.236   1.200   4.454  0.3723 -0.0221 -0.1221
 4448SOL    HW114785   1.329   1.184   4.465  0.5251  1.1678  0.4513
 4448SOL    HW214786   1.217   1.273   4.513 -1.1059 -0.8395  0.4667
 4449SOL     OW14787   1.075   2.419   3.544  0.4732 -0.0924  0.3374
 4449SOL    HW114788   0.982   2.436   3.558  0.6695 -0.0117  1.6665
 4449SOL    HW214789   1.118   2.500   3.572  0.9367 -0.0577 -0.4603
 4450SOL     OW14790   6.013   2.697   1.916  0.1920 -0.2014 -0.3048
 4450SOL    HW114791   6.069   2.708   1.993 -0.6413 -1.1580  0.4756
 4450SOL    HW214792   5.945   2.764   1.927 -1.2979 -1.8339  1.1190
 4451SOL     OW14793   1.310   1.175  12.201  1.1039 -0.4894 -0.0870
 4451SOL    HW114794   1.229   1.153  12.247  0.8065  0.5734 -0.0633
 4451SOL    HW214795   1.309   1.271  12.196  2.3523 -0.4560 -0.0949
 4452SOL     OW14796   1.799   3.760   4.907  0.1611 -0.5142  0.3545
 4452SOL    HW114797   1.838   3.673   4.898  0.1124 -0.4206 -0.9256
 4452SOL    HW214798   1.709   3.749   4.876  0.4713  0.2135 -0.8581
 4453SOL     OW14799   4.353   5.889   4.112  0.1073  0.0454 -0.1071
 4453SOL    HW114800   4.416   5.953   4.145 -0.6425  0.3354  0.7860
 4453SOL    HW214801   4.269   5.918   4.146 -0.7353  0.3961 -2.3317
 4454SOL     OW14802   5.254   5.875   0.654  0.3148 -0.0083 -0.4675
 4454SOL    HW114803   5.200   5.867   0.732  0.6108 -0.7705 -0.3348
 4454SOL    HW214804   5.308   5.796   0.653  1.8970  1.0193 -0.2505
 4455SOL     OW14805   7.529   6.982   8.999 -0.1293  0.1133  0.0053
 4455SOL    HW114806   7.529   7.050   8.931 -1.4062  0.6442  0.4883
 4455SOL    HW214807   7.543   7.030   9.081 -0.0468 -0.3302  0.2554
 4456SOL     OW14808   0.417   1.897   1.677 -0.1097 -0.3102  0.0303
 4456SOL    HW114809   0.380   1.822   1.724  2.8556 -2.6417 -1.0602
 4456SOL    HW214810   0.489   1.927   1.732  0.1732  0.2659 -0.6342
 4457SOL     OW14811   7.390   4.887  11.659 -0.1290 -0.0067 -0.5257
 4457SOL    HW114812   7.475   4.853  11.632 -0.2568 -0.4549 -0.3837
 4457SOL    HW214813   7.327   4.845  11.601 -0.3076 -0.1585 -0.2284
 4458SOL     OW14814   3.345   7.571   5.587  0.0180 -0.3344  0.3812
 4458SOL    HW114815   3.377   7.591   5.498  0.8649  0.2464  0.7998
 4458SOL    HW214816   3.425   7.567   5.640 -0.5366  0.1395  1.2652
 4459SOL     OW14817   1.953   1.482   8.920 -0.1992  0.5718  0.0890
 4459SOL    HW114818   1.954   1.508   9.012 -1.3645 -0.7056  0.5022
 4459SOL    HW214819   1.978   1.562   8.872 -1.1697  1.7221  1.4089
 4460SOL     OW14820   1.353   7.680   7.240 -0.0379  0.6200 -0.1304
 4460SOL    HW114821   1.368   7.772   7.260  0.5572  0.7638 -1.1614
 4460SOL    HW214822   1.405   7.664   7.161  1.4690 -1.0944  1.1086
 4461SOL     OW14823   5.979   4.963   5.832 -0.6297 -0.3744 -0.0538
 4461SOL    HW114824   5.976   4.986   5.739 -0.8254  0.9937  0.2603
 4461SOL    HW214825   6.072   4.959   5.854 -0.5805  0.5180 -0.0522
 4462SOL     OW14826   5.753   6.769   8.108  0.7468  0.5376 -0.1935
 4462SOL    HW114827   5.817   6.803   8.169  1.3622 -0.8421 -0.0298
 4462SOL    HW214828   5.669   6.780   8.153  1.0124  1.0752  0.1811
 4463SOL     OW14829   7.934   2.702   8.141 -0.4465 -0.3232 -0.5712
 4463SOL    HW114830   7.875   2.776   8.130 -0.1084 -0.2896 -2.6051
 4463SOL    HW214831   8.006   2.737   8.194  0.2464  1.1943 -2.3758
 4464SOL     OW14832   0.361   2.648   1.735 -0.4140  0.5331  0.1378
 4464SOL    HW114833   0.272   2.662   1.766 -0.3032 -0.4329  0.9028
 4464SOL    HW214834   0.351   2.632   1.641 -1.1153 -0.2241  0.3311
 4465SOL     OW14835   7.304   0.304   2.767 -0.0877  0.7369 -1.1810
 4465SOL    HW114836   7.337   0.390   2.740  0.8892  0.3484 -1.2597
 4465SOL    HW214837   7.347   0.287   2.851  0.1322  0.1009 -1.4179
 4466SOL     OW14838   6.763   2.102   0.744 -0.4464  0.0791  0.4542
 4466SOL    HW114839   6.683   2.125   0.696  0.2238  2.1793  0.2449
 4466SOL    HW214840   6.831   2.099   0.677 -0.2383 -1.2656  0.6949
 4467SOL     OW14841   5.046   1.043   9.279 -0.1170  0.3398  0.0766
 4467SOL    HW114842   5.015   0.990   9.207 -1.6324  1.1458  0.1045
 4467SOL    HW214843   4.983   1.028   9.350  2.1379 -1.6058  1.8161
 4468SOL     OW14844   1.565   1.681  12.078  0.3450  0.3886 -0.2676
 4468SOL    HW114845   1.549   1.694  12.171  0.0416  0.4226 -0.3229
 4468SOL    HW214846   1.586   1.588  12.069  0.1008  0.3273 -0.2042
 4469SOL     OW14847   7.775   5.081  12.193  0.0069  0.7861  0.4523
 4469SOL    HW114848   7.730   5.092  12.110 -0.8974 -1.5903  0.5307
 4469SOL    HW214849   7.746   5.155  12.247 -0.7983  1.3709 -0.7446
 4470SOL     OW14850   5.698   2.316   0.468  0.1878  0.0694  0.1389
 4470SOL    HW114851   5.628   2.269   0.423 -0.0525 -1.5777  2.0574
 4470SOL    HW214852   5.776   2.260   0.456  0.4597  0.3626  0.4989
 4471SOL     OW14853   3.378   7.523   2.440  0.2249  0.0593  0.5744
 4471SOL    HW114854   3.360   7.614   2.418 -2.2560  0.0445  2.1869
 4471SOL    HW214855   3.394   7.480   2.355 -1.8811  1.3463 -0.5428
 4472SOL     OW14856   7.156   2.952   2.890 -0.2149 -0.2812  0.3066
 4472SOL    HW114857   7.074   2.937   2.938 -1.7866  1.1996 -1.6987
 4472SOL    HW214858   7.140   3.032   2.840  1.8604 -0.8370 -1.4146
 4473SOL     OW14859   7.774   1.457  11.696  0.3630  0.3520  0.1245
 4473SOL    HW114860   7.760   1.540  11.650  1.4360 -0.1424 -1.1372
 4473SOL    HW214861   7.840   1.479  11.763  2.2000  0.1262 -1.5246
 4474SOL     OW14862   5.276   2.273  10.350  0.1131 -0.6511 -0.4093
 4474SOL    HW114863   5.216   2.198  10.344 -1.5282  0.5020  0.6096
 4474SOL    HW214864   5.224   2.347  10.319  0.5255  0.6204  1.7495
 4475SOL     OW14865   0.824   2.135  11.160  0.0953  0.0160  0.6022
 4475SOL    HW114866   0.785   2.092  11.084  0.9467  2.2579 -1.2269
 4475SOL    HW214867   0.750   2.177  11.204 -0.4843 -1.7508  1.4369
 4476SOL     OW14868   2.285   4.427   6.189  0.2459 -0.0071 -0.3148
 4476SOL    HW114869   2.359   4.455   6.245  1.1878 -0.7209 -1.1701
 4476SOL    HW214870   2.218   4.399   6.251 -0.0075  2.2217  0.5487
 4477SOL     OW14871   7.419   3.955   7.712 -0.6170  0.1556  0.0615
 4477SOL    HW114872   7.365   3.887   7.672 -1.0346 -0.0884  1.0253
 4477SOL    HW214873   7.449   4.008   7.638 -0.5816 -0.8527 -0.6696
 4478SOL     OW14874   7.227   3.227   2.518 -0.0729  0.3377 -0.0690
 4478SOL    HW114875   7.316   3.197   2.499  0.9771  1.7770  2.1898
 4478SOL    HW214876   7.231   3.322   2.510 -0.9103  0.5758  1.8430
 4479SOL     OW14877   2.281   3.336  11.587  0.5069 -0.1200 -0.4815
 4479SOL    HW114878   2.223   3.286  11.645 -1.2378  2.2855 -0.0122
 4479SOL    HW214879   2.366   3.290  11.593 -0.7247 -2.4459  0.5615
 4480SOL     OW14880   6.649   6.916   4.988  0.0734  0.0055  0.1372
 4480SOL    HW114881   6.722   6.966   4.951 -0.6717  0.2391 -1.0732
 4480SOL    HW214882   6.583   6.983   5.009  0.4248 -0.1306  1.8342
 4481SOL     OW14883   6.958   7.768   8.796 -0.2809  0.2262 -0.1106
 4481SOL    HW114884   6.944   7.674   8.805  0.1676  0.1917  0.2674
 4481SOL    HW214885   7.053   7.778   8.791 -0.3790  0.4893 -2.2123
 4482SOL     OW14886   7.134   3.467  11.650  0.1357 -0.0247 -0.1194
 4482SOL    HW114887   7.197   3.520  11.602  1.6624 -0.1125  1.6857
 4482SOL    HW214888   7.150   3.487  11.742 -1.0378 -1.6635  0.4995
 4483SOL     OW14889   4.237   4.571  12.060 -0.1557  0.2899  0.0015
 4483SOL    HW114890   4.243   4.665  12.046  0.7207  0.4601  1.3388
 4483SOL    HW214891   4.181   4.539  11.988 -0.7850  1.8656 -0.2458
 4484SOL     OW14892   6.864   7.662   2.160 -0.4121 -0.1200 -0.9226
 4484SOL    HW114893   6.868   7.618   2.245 -2.0064  0.0522 -0.7297
 4484SOL    HW214894   6.814   7.601   2.104  1.2413 -0.5756 -1.9841
 4485SOL     OW14895   1.905   4.555   8.735  0.2152 -0.3588  0.5688
 4485SOL    HW114896   1.819   4.592   8.716  0.8549  0.4304 -0.9092
 4485SOL    HW214897   1.889   4.461   8.746 -1.4834  0.1746  4.6038
 4486SOL     OW14898   1.107   1.740   0.741  0.0691 -0.4351 -0.2729
 4486SOL    HW114899   1.047   1.713   0.811  0.9507 -3.2751 -0.4952
 4486SOL    HW214900   1.194   1.719   0.774  0.6754  0.2939 -1.3482
 4487SOL     OW14901   1.592   1.535   4.843 -0.1160 -0.3620  0.6224
 4487SOL    HW114902   1.626   1.500   4.925  1.6960  1.7192  0.8488
 4487SOL    HW214903   1.504   1.563   4.863 -0.5863 -2.0858  1.1586
 4488SOL     OW14904   0.475   5.783   9.398 -0.6080 -0.0974  0.2976
 4488SOL    HW114905   0.562   5.819   9.380 -1.3157 -0.0569 -4.1910
 4488SOL    HW214906   0.438   5.843   9.463  2.1841  0.6235  1.4071
 4489SOL     OW14907   7.512   5.739   1.081  0.0940 -0.4504  0.2860
 4489SOL    HW114908   7.489   5.679   1.152 -0.9709 -0.1898  0.1722
 4489SOL    HW214909   7.466   5.820   1.102  0.1248 -0.2303 -0.4732
 4490SOL     OW14910   5.842   0.241   8.987  0.2731 -0.4227 -0.2557
 4490SOL    HW114911   5.901   0.195   8.929  0.3392 -1.0641  0.3159
 4490SOL    HW214912   5.758   0.242   8.940  0.9071  1.2615 -1.4613
 4491SOL     OW14913   3.412   4.011   0.146 -0.3013  0.0584  0.2450
 4491SOL    HW114914   3.348   4.076   0.173  1.8153  2.3118  0.1555
 4491SOL    HW214915   3.479   4.012   0.214  1.6745  0.8157 -1.5929
 4492SOL     OW14916   7.701   1.849   9.116 -0.0634  0.0909 -0.1287
 4492SOL    HW114917   7.671   1.758   9.123 -0.2638  0.0869 -0.9444
 4492SOL    HW214918   7.626   1.896   9.080  0.5603  0.2663 -1.2528
 4493SOL     OW14919   5.040   2.279   8.055 -0.6031  0.1216  0.4590
 4493SOL    HW114920   5.095   2.257   8.130 -0.2334 -0.1393  0.1219
 4493SOL    HW214921   4.958   2.310   8.092 -0.1148  0.8181  0.9811
 4494SOL     OW14922   2.850   6.911   7.873  0.0718 -0.5688 -0.2430
 4494SOL    HW114923   2.846   6.816   7.875 -1.6556 -0.6208 -2.2266
 4494SOL    HW214924   2.792   6.939   7.944 -2.3531 -1.0960 -1.9084
 4495SOL     OW14925   7.731   2.409   0.173 -0.1523 -0.7104 -0.1110
 4495SOL    HW114926   7.812   2.458   0.188 -0.7097 -0.2357  1.5936
 4495SOL    HW214927   7.692   2.450   0.096  1.3915 -1.2002 -1.1963
 4496SOL     OW14928   7.588   4.580   5.734  0.5606 -0.1448 -0.8084
 4496SOL    HW114929   7.564   4.515   5.668 -1.0743 -0.7960  0.3756
 4496SOL    HW214930   7.560   4.542   5.817  0.8377  1.4799  0.0689
 4497SOL     OW14931   7.103   7.193  11.681  0.3268 -0.5801  0.0775
 4497SOL    HW114932   7.091   7.275  11.635 -1.2679 -1.9436 -2.1313
 4497SOL    HW214933   7.095   7.215  11.774  0.4947  1.7839 -0.4285
 4498SOL     OW14934   1.780   0.430   6.666 -0.2550  0.0250  1.0767
 4498SOL    HW114935   1.824   0.453   6.584  0.8737 -1.9242  1.0721
 4498SOL    HW214936   1.732   0.349   6.645 -1.2749  0.3813  1.9440
 4499SOL     OW14937   4.210   4.917   1.448 -0.4613 -0.3453 -0.1878
 4499SOL    HW114938   4.294   4.916   1.494 -0.8016 -1.2714  0.4357
 4499SOL    HW214939   4.218   4.849   1.381 -0.1064  0.7409 -1.2861
 4500SOL     OW14940   1.311   5.393   7.269 -0.6106 -0.1046 -0.0520
 4500SOL    HW114941   1.304   5.448   7.346 -1.9360  2.2350 -1.6954
 4500SOL    HW214942   1.402   5.363   7.268  0.4626  2.7843  0.5394
 4501SOL     OW14943   7.862   7.245   1.545 -0.2039  0.3598  0.1287
 4501SOL    HW114944   7.780   7.266   1.589 -0.1572  1.2759 -0.2047
 4501SOL    HW214945   7.925   7.307   1.583  0.0961  0.3550 -0.3590
 4502SOL     OW14946   1.735   5.352   0.363  0.3636  0.4792 -0.2963
 4502SOL    HW114947   1.790   5.274   0.352  1.5372  1.4170 -1.3503
 4502SOL    HW214948   1.679   5.331   0.437  2.4618 -0.3795  1.1575
 4503SOL     OW14949   1.358   3.275   3.415 -0.6115  0.0962 -0.4015
 4503SOL    HW114950   1.417   3.247   3.484  0.3201 -0.6233 -1.4526
 4503SOL    HW214951   1.276   3.295   3.460 -0.2526 -1.0230  0.8077
 4504SOL     OW14952   6.998   7.156   9.169 -0.0589  0.2794 -0.1645
 4504SOL    HW114953   6.991   7.060   9.171 -0.2495  0.2973  0.3496
 4504SOL    HW214954   7.087   7.173   9.140 -0.1381 -0.0495 -0.6167
 4505SOL     OW14955   1.632   4.043  10.063 -0.5147 -0.2562 -0.2881
 4505SOL    HW114956   1.677   4.005   9.988  0.7927  0.9746 -0.1711
 4505SOL    HW214957   1.682   4.123  10.084 -1.0131 -0.3938  1.6834
 4506SOL     OW14958   2.713   7.574   2.474 -0.0130 -0.5398 -0.2524
 4506SOL    HW114959   2.771   7.605   2.544 -1.3950  0.4674  0.4913
 4506SOL    HW214960   2.659   7.507   2.515 -0.9520  0.1767 -0.2830
 4507SOL     OW14961   4.104   0.171   5.450 -0.7591  0.1006 -0.1075
 4507SOL    HW114962   4.095   0.153   5.544  0.3203  1.6712  0.3401
 4507SOL    HW214963   4.023   0.217   5.427 -0.8464  0.0809  0.1545
 4508SOL     OW14964   7.693   3.917   7.333 -0.3490  0.1266 -0.0868
 4508SOL    HW114965   7.613   3.966   7.352 -0.6485 -1.2914  2.9373
 4508SOL    HW214966   7.743   3.920   7.414  0.4308 -2.9854 -0.3170
 4509SOL     OW14967   1.326   2.313  11.141  0.5667  0.0474  0.1741
 4509SOL    HW114968   1.411   2.355  11.132  0.4733  0.0540 -0.7390
 4509SOL    HW214969   1.295   2.300  11.051  0.0053 -0.7754  0.4689
 4510SOL     OW14970   1.674   0.540   8.613 -0.5248  0.8690 -0.0124
 4510SOL    HW114971   1.701   0.505   8.698 -1.6764  1.6473  0.7013
 4510SOL    HW214972   1.598   0.488   8.588 -0.2628  0.7243 -0.5186
 4511SOL     OW14973   4.256   0.568   6.618  0.7217 -0.3108  0.4637
 4511SOL    HW114974   4.231   0.569   6.526  0.2655 -0.8487  0.5811
 4511SOL    HW214975   4.243   0.658   6.648  0.4789 -0.2294  0.1099
 4512SOL     OW14976   2.321   4.289   6.919 -0.4076 -0.4385 -0.1427
 4512SOL    HW114977   2.395   4.337   6.884 -0.2420 -0.1073  0.6437
 4512SOL    HW214978   2.360   4.221   6.974 -0.6545 -1.1548 -0.8179
 4513SOL     OW14979   5.865   2.495   2.317  0.7347  0.0970  0.6205
 4513SOL    HW114980   5.807   2.454   2.381 -0.5273 -2.1232 -1.7801
 4513SOL    HW214981   5.827   2.582   2.302 -2.3241 -1.3806 -1.0897
 4514SOL     OW14982   6.529   0.130   9.727  0.5314 -0.0020 -0.1479
 4514SOL    HW114983   6.457   0.083   9.685  1.3135 -1.6673  0.3197
 4514SOL    HW214984   6.498   0.149   9.815 -0.5266  2.1700 -0.8923
 4515SOL     OW14985   0.699   0.110   0.287 -0.4462  0.0283  0.6948
 4515SOL    HW114986   0.782   0.116   0.239 -0.8790  1.2110  0.0354
 4515SOL    HW214987   0.725   0.097   0.378  0.3992 -1.8682  0.2170
 4516SOL     OW14988   3.427   1.451   7.219  0.3000  0.0981  0.6099
 4516SOL    HW114989   3.368   1.450   7.294 -0.7883  0.4342 -0.2168
 4516SOL    HW214990   3.414   1.538   7.180  1.3715  0.1867  0.4239
 4517SOL     OW14991   5.775   2.535   1.626 -0.0089 -0.2731  0.1756
 4517SOL    HW114992   5.712   2.548   1.556  0.6917 -1.2108 -0.6680
 4517SOL    HW214993   5.859   2.524   1.581  0.9131  1.5890  1.2830
 4518SOL     OW14994   3.247   3.014   8.252  0.2819 -0.3828  0.2805
 4518SOL    HW114995   3.282   3.068   8.181 -1.3846 -1.6819 -1.6667
 4518SOL    HW214996   3.196   3.075   8.306  0.4036  0.3948 -0.4652
 4519SOL     OW14997   3.391   2.395   5.016  0.2656  0.1457  0.0228
 4519SOL    HW114998   3.450   2.460   4.979  0.2521  0.3256  0.3216
 4519SOL    HW214999   3.358   2.434   5.097  0.5119 -0.3694  0.3750
 4520SOL     OW15000   7.690   5.959   0.968  0.7249  0.1353 -0.7206
 4520SOL    HW115001   7.679   5.937   1.061  2.2762  0.5323 -0.4254
 4520SOL    HW215002   7.680   5.875   0.923  1.4677 -0.3380 -0.0479
 4521SOL     OW15003   5.710   4.828   6.065 -0.3528 -0.4416  0.7116
 4521SOL    HW115004   5.797   4.789   6.078  0.7109  1.4256 -0.3372
 4521SOL    HW215005   5.720   4.918   6.097 -2.3158 -0.5597  1.7953
 4522SOL     OW15006   3.254   0.029   0.812 -0.2571 -0.1453 -0.6567
 4522SOL    HW115007   3.328   0.015   0.753 -0.9565 -1.0628 -1.3334
 4522SOL    HW215008   3.231  -0.058   0.844  0.7014  0.3946  1.7620
 4523SOL     OW15009   1.800   1.738   7.152  0.0396  0.2330  0.1873
 4523SOL    HW115010   1.886   1.700   7.171 -0.0328 -0.2804 -0.4705
 4523SOL    HW215011   1.802   1.755   7.058 -0.3907  0.7156  0.2646
 4524SOL     OW15012   0.663   4.912   8.955 -0.1024 -0.1309 -0.3289
 4524SOL    HW115013   0.664   4.945   9.045  0.7540 -0.7389 -0.1053
 4524SOL    HW215014   0.587   4.954   8.915 -0.2485  0.4690  0.5564
 4525SOL     OW15015   6.035   5.628   0.312 -0.0304  0.0960 -0.3476
 4525SOL    HW115016   6.050   5.549   0.261  0.1848 -0.6308  0.8003
 4525SOL    HW215017   6.121   5.650   0.348 -0.2806  0.2640  0.1598
 4526SOL     OW15018   4.106   3.088   7.671 -0.8585 -0.0773  0.4694
 4526SOL    HW115019   4.179   3.126   7.720 -1.6391  0.7491  1.0381
 4526SOL    HW215020   4.081   3.011   7.721 -0.4638 -0.2850  0.3470
 4527SOL     OW15021   0.079   6.836   7.564 -0.0253  0.2560  0.0141
 4527SOL    HW115022   0.149   6.795   7.614 -0.1128 -0.0681 -0.1304
 4527SOL    HW215023   0.120   6.914   7.526  0.4086 -0.2412 -0.5377
 4528SOL     OW15024   1.629   5.428   2.566 -0.4706 -0.2682  0.3518
 4528SOL    HW115025   1.725   5.425   2.573 -0.5738 -1.4656  1.7636
 4528SOL    HW215026   1.605   5.512   2.604 -0.0207 -0.3816  0.9160
 4529SOL     OW15027   3.439   6.360   4.471 -0.2332 -0.3097  0.4476
 4529SOL    HW115028   3.405   6.432   4.525  1.8612  0.9421  0.2348
 4529SOL    HW215029   3.497   6.312   4.530  0.6497 -0.0345 -0.1789
 4530SOL     OW15030   6.807   3.760   1.712  0.5100  0.0475 -0.4933
 4530SOL    HW115031   6.792   3.772   1.618  1.4368  1.3581 -0.4976
 4530SOL    HW215032   6.846   3.673   1.719 -0.9142 -0.6810 -1.1466
 4531SOL     OW15033   6.342   0.068   8.524 -0.2041 -0.1649 -0.5347
 4531SOL    HW115034   6.379   0.145   8.568 -0.5416 -1.1951  1.7161
 4531SOL    HW215035   6.399   0.053   8.449  0.8096  1.3249 -0.1022
 4532SOL     OW15036   7.210   4.143   4.394 -0.8350  0.3581  0.5435
 4532SOL    HW115037   7.168   4.216   4.349 -0.3490 -0.5211 -1.5028
 4532SOL    HW215038   7.284   4.121   4.337 -0.3647 -1.0502  1.6555
 4533SOL     OW15039   4.709   6.525   4.761 -0.3721  0.5434 -0.0239
 4533SOL    HW115040   4.619   6.556   4.773 -0.7670  0.0564 -1.5037
 4533SOL    HW215041   4.703   6.430   4.773  0.1146  0.5984  0.7059
 4534SOL     OW15042   0.257   3.001  11.408 -0.3426  0.1844 -0.7885
 4534SOL    HW115043   0.263   2.915  11.450 -1.4418 -0.2130 -1.4017
 4534SOL    HW215044   0.332   3.050  11.442 -0.2903 -0.6673  0.3604
 4535SOL     OW15045   7.233   6.489   4.331  0.0332  0.2960  0.0789
 4535SOL    HW115046   7.163   6.426   4.347  0.0407  0.7894  2.3609
 4535SOL    HW215047   7.304   6.462   4.389  2.1674 -0.6961 -2.7895
 4536SOL     OW15048   1.357   7.756  12.311 -0.9414  0.0789  0.0624
 4536SOL    HW115049   1.391   7.776  12.398 -0.4417  1.1710 -0.3582
 4536SOL    HW215050   1.428   7.707  12.269 -1.6299 -1.4764  0.6281
 4537SOL     OW15051   0.020   1.237  12.181  0.3921 -0.4638  0.1248
 4537SOL    HW115052   0.096   1.216  12.235  0.3151  1.1362  0.9150
 4537SOL    HW215053   0.024   1.332  12.170 -3.6658  0.4594  3.7872
 4538SOL     OW15054   4.136   1.783   3.069 -0.0442 -0.8042 -0.2897
 4538SOL    HW115055   4.221   1.745   3.046  0.0973 -0.4656 -0.3327
 4538SOL    HW215056   4.072   1.727   3.024  0.0876 -1.7392  0.6569
 4539SOL     OW15057   7.918   6.514   6.305  0.2914 -0.5849  0.1076
 4539SOL    HW115058   7.874   6.494   6.387  0.6001 -0.3021  0.3506
 4539SOL    HW215059   7.925   6.431   6.259  0.7066 -0.8686  0.6686
 4540SOL     OW15060   1.429   3.183   6.561 -0.2718  0.4429  0.5753
 4540SOL    HW115061   1.395   3.271   6.574  1.7009  1.5261 -1.0765
 4540SOL    HW215062   1.368   3.143   6.499 -0.9687  0.7516  1.0469
 4541SOL     OW15063   7.444   2.066   6.470 -0.0789  0.3609 -0.1831
 4541SOL    HW115064   7.427   1.996   6.533  0.2988 -0.7711 -1.3076
 4541SOL    HW215065   7.517   2.115   6.508 -1.4363  1.2144  1.4385
 4542SOL     OW15066   2.115   5.151  11.175  0.2405 -0.1625  0.1807
 4542SOL    HW115067   2.119   5.238  11.216 -1.1311  0.0191 -0.0254
 4542SOL    HW215068   2.127   5.168  11.082  1.3374 -0.3611  0.2700
 4543SOL     OW15069   2.307   0.555  10.129  0.1226  0.0820  0.7163
 4543SOL    HW115070   2.309   0.555  10.224 -0.4443  0.1111  0.7313
 4543SOL    HW215071   2.266   0.471  10.106  0.1180  0.1420  0.5024
 4544SOL     OW15072   2.826   1.131   3.674 -0.0635  0.3706  0.0133
 4544SOL    HW115073   2.837   1.225   3.689  0.0616  0.2051  1.0031
 4544SOL    HW215074   2.778   1.100   3.751  1.0170 -0.6027  0.3144
 4545SOL     OW15075   7.049   2.878  10.419 -0.1246 -0.8203 -0.5991
 4545SOL    HW115076   7.021   2.968  10.403  1.0776 -0.2163  0.4581
 4545SOL    HW215077   6.989   2.845  10.485  1.0058  0.1514  0.9863
 4546SOL     OW15078   7.713   6.090  10.641  0.5470  0.2013 -0.0652
 4546SOL    HW115079   7.724   5.995  10.633 -0.3770  0.1362 -0.8368
 4546SOL    HW215080   7.658   6.101  10.718 -0.1333  0.0352 -0.5174
 4547SOL     OW15081   7.596   4.783  10.501 -0.6035 -0.5245 -0.6433
 4547SOL    HW115082   7.534   4.792  10.574  0.0415  0.7288 -0.2220
 4547SOL    HW215083   7.554   4.721  10.442 -1.6172 -0.7760  0.3010
 4548SOL     OW15084   7.735   0.028   8.337  0.1781  0.3281 -0.2940
 4548SOL    HW115085   7.703   0.118   8.347  2.2301  1.3948 -2.2556
 4548SOL    HW215086   7.782   0.029   8.253  0.1779 -2.6346 -0.4412
 4549SOL     OW15087   0.359   3.984   0.238  0.2797 -0.6432  0.2198
 4549SOL    HW115088   0.396   4.053   0.183 -0.1930 -0.4342  0.1574
 4549SOL    HW215089   0.306   4.031   0.303 -0.9053 -0.9756 -0.4668
 4550SOL     OW15090   5.263   3.766  12.408 -0.6167  0.2029  0.2494
 4550SOL    HW115091   5.215   3.848  12.410 -1.1294 -0.0432 -1.0099
 4550SOL    HW215092   5.332   3.780  12.343 -0.8738 -0.4515 -0.1746
 4551SOL     OW15093   5.024   1.374   0.817 -0.0003  0.2168  0.2123
 4551SOL    HW115094   4.987   1.292   0.848 -1.3576  0.4257 -0.7365
 4551SOL    HW215095   5.087   1.349   0.749 -0.3020 -0.0482  0.0286
 4552SOL     OW15096   5.590   7.301   5.539 -0.3666  0.7197  0.4490
 4552SOL    HW115097   5.552   7.316   5.625 -0.2045  1.0459  0.4686
 4552SOL    HW215098   5.631   7.215   5.545 -0.4856  0.6779  0.6504
 4553SOL     OW15099   2.570   0.583   3.403 -0.0427  0.2310 -0.4615
 4553SOL    HW115100   2.663   0.577   3.382 -0.0122 -1.5492  0.0101
 4553SOL    HW215101   2.559   0.669   3.443  1.6564 -0.0786  0.7370
 4554SOL     OW15102   5.360   3.493   1.089 -0.4506 -0.3062 -0.3708
 4554SOL    HW115103   5.421   3.478   1.161 -1.4745 -1.7871  0.2439
 4554SOL    HW215104   5.328   3.582   1.103  0.4014 -0.0766  0.1950
 4555SOL     OW15105   5.542   6.556   8.866 -0.1908  0.1938  0.4342
 4555SOL    HW115106   5.447   6.564   8.872 -0.3537 -0.4749 -0.9287
 4555SOL    HW215107   5.562   6.473   8.909 -0.3506 -0.1684 -0.1750
 4556SOL     OW15108   5.184   1.988   2.419 -0.5132 -0.0274  0.2726
 4556SOL    HW115109   5.236   2.068   2.406  0.8219 -1.0937 -1.2242
 4556SOL    HW215110   5.229   1.943   2.491  0.1390 -0.5162 -0.4239
 4557SOL     OW15111   7.624   6.875  10.482 -0.0528 -0.1367 -0.2195
 4557SOL    HW115112   7.615   6.796  10.536 -2.4659 -0.2196 -0.6409
 4557SOL    HW215113   7.652   6.943  10.544  2.6775 -1.3808  0.0370
 4558SOL     OW15114   0.194   2.420   0.382  0.3533 -1.2983  0.1309
 4558SOL    HW115115   0.234   2.507   0.375 -0.5019 -0.9875 -1.1581
 4558SOL    HW215116   0.196   2.401   0.476 -3.0488  1.8453  1.0780
 4559SOL     OW15117   1.370   1.856  11.058  0.1833 -0.6249  0.1099
 4559SOL    HW115118   1.425   1.806  10.997  1.3652 -0.7298  1.2197
 4559SOL    HW215119   1.331   1.925  11.004  1.0800 -0.7962 -0.7995
 4560SOL     OW15120   1.561   2.164   3.295  0.4917 -0.1841 -0.1478
 4560SOL    HW115121   1.542   2.192   3.205 -0.4772 -2.3226 -0.6671
 4560SOL    HW215122   1.649   2.127   3.290  0.3704 -0.4576 -0.2516
 4561SOL     OW15123   0.647   1.718  11.161  0.4091  0.0559  0.0347
 4561SOL    HW115124   0.609   1.800  11.131  1.6916  0.6930  0.0646
 4561SOL    HW215125   0.630   1.656  11.091 -2.0144 -0.1258  0.7112
 4562SOL     OW15126   2.038   5.288   2.468  0.4147  0.2762  0.1983
 4562SOL    HW115127   1.981   5.256   2.398  0.9910  0.9156 -0.5892
 4562SOL    HW215128   1.978   5.323   2.533 -0.1761 -1.2424  0.5117
 4563SOL     OW15129   1.039   3.753   1.151  0.7329 -0.1481  0.2746
 4563SOL    HW115130   1.065   3.822   1.212 -2.3303  1.9579 -0.5168
 4563SOL    HW215131   0.985   3.694   1.203 -1.7338  1.5516 -0.1533
 4564SOL     OW15132   2.832   3.415   3.741  0.3758  0.3370 -0.1343
 4564SOL    HW115133   2.914   3.465   3.748 -0.0457  1.1263 -0.6100
 4564SOL    HW215134   2.795   3.417   3.829  1.0388 -0.3345  0.1683
 4565SOL     OW15135   6.324   4.122   7.052  0.2194  0.2666 -0.4996
 4565SOL    HW115136   6.368   4.205   7.033  2.5039 -0.2932  1.7375
 4565SOL    HW215137   6.395   4.058   7.057 -0.9114 -0.9188  2.2393
 4566SOL     OW15138   0.085   4.938  12.214 -0.2319  0.7070  0.1165
 4566SOL    HW115139  -0.009   4.944  12.194 -0.5408 -1.6951  0.6136
 4566SOL    HW215140   0.127   4.921  12.130 -0.4570  0.0734  0.1258
 4567SOL     OW15141   3.352   3.207   6.142  0.2301  0.4588  0.2512
 4567SOL    HW115142   3.268   3.251   6.137 -0.2625 -0.4918 -0.0934
 4567SOL    HW215143   3.392   3.221   6.057 -0.5064 -0.8479 -0.3414
 4568SOL     OW15144   2.477   2.158   4.279 -0.3191 -0.0629 -0.0001
 4568SOL    HW115145   2.489   2.253   4.282 -2.0263  0.1815  1.7558
 4568SOL    HW215146   2.385   2.147   4.253 -0.3940 -1.1813  0.6801
 4569SOL     OW15147   5.093   4.053   7.171  0.3436  0.2257 -0.6376
 4569SOL    HW115148   5.025   4.121   7.178 -1.1149 -1.3362  1.9257
 4569SOL    HW215149   5.154   4.073   7.242  0.6664 -0.3416 -0.7495
 4570SOL     OW15150   6.696   3.332  11.946  0.2443  0.1629 -0.4882
 4570SOL    HW115151   6.773   3.366  11.991 -0.9304  0.7601  1.1512
 4570SOL    HW215152   6.706   3.237  11.950  1.0950  0.2308 -0.7029
 4571SOL     OW15153   4.063   6.651   1.513 -0.2487 -0.1594 -0.2172
 4571SOL    HW115154   4.096   6.652   1.603  1.4497 -1.1452 -0.7827
 4571SOL    HW215155   3.973   6.620   1.521 -0.6677  1.2668  1.2603
 4572SOL     OW15156   1.588   5.630   6.117  0.4832  0.0479 -0.1494
 4572SOL    HW115157   1.677   5.635   6.083  0.9991  0.5598  1.2040
 4572SOL    HW215158   1.568   5.719   6.144 -0.2675 -0.1606  0.0065
 4573SOL     OW15159   1.507   4.940   5.468 -0.1064 -0.1438 -0.5351
 4573SOL    HW115160   1.592   4.969   5.435 -1.1938  3.1573 -0.7344
 4573SOL    HW215161   1.503   4.973   5.558 -0.5246 -1.8345  0.1106
 4574SOL     OW15162   5.612   6.031   3.233 -0.3683 -0.5437 -0.1346
 4574SOL    HW115163   5.569   6.106   3.192  1.2378 -0.0024 -0.9108
 4574SOL    HW215164   5.584   6.034   3.324 -1.2234  0.3269 -0.4100
 4575SOL     OW15165   6.252   7.100   1.543  0.2726  0.5845 -0.0273
 4575SOL    HW115166   6.328   7.042   1.551  1.9540  2.5621 -0.7719
 4575SOL    HW215167   6.240   7.111   1.448 -1.5226 -0.3345  0.0392
 4576SOL     OW15168   7.756   2.926   1.654 -0.0250  0.6428  0.1774
 4576SOL    HW115169   7.751   2.859   1.722 -2.0363  0.6574  0.0851
 4576SOL    HW215170   7.667   2.932   1.619  0.6544  1.6431 -1.4901
 4577SOL     OW15171   1.469   3.465   7.487 -0.7978 -0.5205  0.3110
 4577SOL    HW115172   1.389   3.414   7.501 -1.4816  0.6885  0.9480
 4577SOL    HW215173   1.470   3.528   7.559  2.2096 -2.2612  2.0208
 4578SOL     OW15174   3.008   1.250   6.073  0.0360  0.2322 -0.2547
 4578SOL    HW115175   2.960   1.231   5.992  0.8888 -0.5572 -0.5935
 4578SOL    HW215176   2.960   1.203   6.141  1.0259 -1.6366 -0.7895
 4579SOL     OW15177   3.071   5.568   9.376 -0.0191 -0.2193 -0.1938
 4579SOL    HW115178   2.984   5.579   9.336 -0.2210 -0.6906  0.1093
 4579SOL    HW215179   3.130   5.556   9.301 -0.0696  1.0133 -0.4469
 4580SOL     OW15180   1.368   5.135  11.145  0.0632  0.0683  0.7967
 4580SOL    HW115181   1.346   5.051  11.186 -1.8970  0.4328  0.5998
 4580SOL    HW215182   1.429   5.112  11.075  1.8658 -0.8094  2.5590
 4581SOL     OW15183   6.538   6.359   8.173  0.1892 -0.1229  0.4465
 4581SOL    HW115184   6.502   6.413   8.244  2.1285  0.9514  0.6924
 4581SOL    HW215185   6.615   6.407   8.143 -1.2854  0.2105 -3.4010
 4582SOL     OW15186   2.964   0.212   6.375  0.0218 -0.4573  0.5620
 4582SOL    HW115187   3.003   0.135   6.333  1.6911  0.7651 -0.2132
 4582SOL    HW215188   2.989   0.203   6.468  0.1948 -0.8544  0.4819
 4583SOL     OW15189   6.739   1.335   3.083 -0.2364  0.3601  0.2033
 4583SOL    HW115190   6.673   1.310   3.147 -0.5878 -0.7363 -0.5493
 4583SOL    HW215191   6.704   1.304   2.999  2.7017 -3.5084  0.1261
 4584SOL     OW15192   6.359   1.680   2.625  0.0103 -0.1793 -0.5558
 4584SOL    HW115193   6.431   1.648   2.571  0.8964  0.3551  0.2685
 4584SOL    HW215194   6.325   1.602   2.670 -1.8164 -0.9458 -2.9958
 4585SOL     OW15195   5.115   6.078   8.135 -0.2335 -0.1677  0.3843
 4585SOL    HW115196   5.027   6.048   8.158 -1.1616  1.2598 -1.0502
 4585SOL    HW215197   5.159   6.000   8.101 -0.8488 -0.9530  1.3412
 4586SOL     OW15198   1.878   3.127   1.166  0.0976  0.4750 -0.4664
 4586SOL    HW115199   1.884   3.178   1.086  0.4017 -1.5250 -1.8072
 4586SOL    HW215200   1.787   3.136   1.195 -0.5022 -0.1390 -2.0468
 4587SOL     OW15201   7.677   7.531   7.758 -0.2269 -0.1993  0.6224
 4587SOL    HW115202   7.593   7.486   7.749 -0.3821  0.0964  0.5773
 4587SOL    HW215203   7.662   7.596   7.827 -0.9066  1.8182 -1.3189
 4588SOL     OW15204   4.626   0.270   2.494  0.2633 -0.3754  0.0825
 4588SOL    HW115205   4.606   0.347   2.441 -0.2117 -1.4335 -1.3375
 4588SOL    HW215206   4.573   0.200   2.456 -0.3134 -1.1425  2.1578
 4589SOL     OW15207   7.546   5.000   9.207 -0.2205 -0.3344 -0.3021
 4589SOL    HW115208   7.609   5.030   9.273 -0.3582  0.3379 -0.4755
 4589SOL    HW215209   7.560   4.905   9.203  0.2177 -0.3003  0.2467
 4590SOL     OW15210   7.397   6.414   7.836 -0.5358 -0.8718 -0.2084
 4590SOL    HW115211   7.351   6.335   7.805  0.2206 -1.9048  1.2073
 4590SOL    HW215212   7.369   6.424   7.927 -2.2141  1.7428 -0.8966
 4591SOL     OW15213   5.878   5.910  10.982 -0.2294  0.3588  0.2346
 4591SOL    HW115214   5.918   5.823  10.982  1.6108  1.1716  0.8479
 4591SOL    HW215215   5.815   5.907  11.053 -0.1948 -0.4708  0.2416
 4592SOL     OW15216   1.575   6.875   9.105  0.2991  0.4715 -0.2508
 4592SOL    HW115217   1.628   6.805   9.143  0.2759  0.8707  0.5179
 4592SOL    HW215218   1.632   6.915   9.039  0.2900 -0.3054 -0.7475
 4593SOL     OW15219   0.244   5.604  12.339  0.1567 -0.0754  0.1583
 4593SOL    HW115220   0.246   5.528  12.281 -0.2814  0.5364 -0.6678
 4593SOL    HW215221   0.213   5.569  12.423 -1.4987 -0.5553 -0.6150
 4594SOL     OW15222   4.013   4.309   9.472  0.1084 -0.3676  0.0939
 4594SOL    HW115223   4.088   4.364   9.449  1.0259 -0.8244  1.8149
 4594SOL    HW215224   4.038   4.221   9.444 -0.2844 -0.3479 -0.3418
 4595SOL     OW15225   0.720   5.743   0.056  0.2185  0.0878  0.4938
 4595SOL    HW115226   0.638   5.747   0.006  0.7447  2.1895 -0.3047
 4595SOL    HW215227   0.753   5.654   0.042 -1.0749 -0.2574 -0.5450
 4596SOL     OW15228   2.495   7.943   7.384  0.1675 -0.1955 -0.5184
 4596SOL    HW115229   2.496   8.029   7.342  0.2856  1.4017  2.4381
 4596SOL    HW215230   2.405   7.912   7.375 -0.0323  0.5300 -1.0908
 4597SOL     OW15231   3.676   2.312  11.750 -0.0237 -0.0963  0.3758
 4597SOL    HW115232   3.622   2.251  11.699  1.1648 -0.6363 -0.2680
 4597SOL    HW215233   3.629   2.321  11.833 -0.3284 -1.7618  0.4305
 4598SOL     OW15234   6.035   3.293   8.841  0.5628  0.1529 -0.2806
 4598SOL    HW115235   6.025   3.199   8.831 -0.1257  0.1949 -0.0864
 4598SOL    HW215236   6.129   3.309   8.836  0.6624 -0.5115 -0.5812
 4599SOL     OW15237   6.422   0.359  12.468  0.9934  0.8748  0.0268
 4599SOL    HW115238   6.504   0.310  12.460  0.8690  0.5737  0.5770
 4599SOL    HW215239   6.408   0.396  12.380  0.1768 -1.5270 -0.9567
 4600SOL     OW15240   4.869   7.521  12.391 -0.2017  0.3534  0.1064
 4600SOL    HW115241   4.797   7.459  12.375 -1.5515  1.9910 -0.4374
 4600SOL    HW215242   4.837   7.578  12.461  0.8265  0.7464  0.2741
 4601SOL     OW15243   2.457   1.394   1.121 -0.1534 -0.0211 -0.0179
 4601SOL    HW115244   2.476   1.309   1.162 -2.8511  0.2803  2.1795
 4601SOL    HW215245   2.531   1.449   1.144  0.3800 -1.0592  0.8326
 4602SOL     OW15246   1.290   0.251   1.639 -0.4503  0.0108  0.1550
 4602SOL    HW115247   1.285   0.189   1.712 -0.8429 -0.0545  0.0757
 4602SOL    HW215248   1.208   0.237   1.590 -0.1049 -0.0864 -0.4083
 4603SOL     OW15249   1.344   0.744   4.877 -1.2548 -0.2186  0.1100
 4603SOL    HW115250   1.397   0.812   4.918  1.0746 -1.9967  0.2920
 4603SOL    HW215251   1.271   0.729   4.937 -0.5418  0.5399  1.1830
 4604SOL     OW15252   2.518   2.852  10.950  0.5337  0.1564 -0.3007
 4604SOL    HW115253   2.511   2.947  10.952  1.2406  0.2192 -0.6887
 4604SOL    HW215254   2.428   2.822  10.935 -0.1351  0.6638  2.1422
 4605SOL     OW15255   5.840   5.473   1.991 -0.4804  0.3085  0.0198
 4605SOL    HW115256   5.780   5.414   2.037  0.6353 -2.9429 -2.2959
 4605SOL    HW215257   5.924   5.461   2.034  0.0676 -1.0301 -1.3218
 4606SOL     OW15258   4.231   2.544  12.116  0.2516 -0.5342 -0.0739
 4606SOL    HW115259   4.146   2.547  12.159  1.2046  1.9860  1.8731
 4606SOL    HW215260   4.220   2.595  12.035  0.1001  0.4921  0.5854
 4607SOL     OW15261   0.087   1.476   6.245 -0.2210  0.0565 -0.1692
 4607SOL    HW115262   0.028   1.546   6.273 -0.2914  0.4941 -1.3151
 4607SOL    HW215263   0.108   1.428   6.325 -1.9831 -0.0127  0.3027
 4608SOL     OW15264   6.764   2.121   0.311 -0.1997  0.1740 -0.2846
 4608SOL    HW115265   6.791   2.030   0.328 -0.9599 -0.1281 -0.6277
 4608SOL    HW215266   6.770   2.130   0.216  0.8099  0.8003 -0.1749
 4609SOL     OW15267   3.625   5.663   7.551 -0.4181  0.1551 -0.7135
 4609SOL    HW115268   3.676   5.731   7.595 -0.2612 -1.1322  1.2637
 4609SOL    HW215269   3.668   5.651   7.467  0.2376  1.6993 -0.6287
 4610SOL     OW15270   0.142   5.375   2.959  0.6865  0.3640 -0.0289
 4610SOL    HW115271   0.094   5.298   2.929 -1.1287  1.0808  0.9239
 4610SOL    HW215272   0.163   5.423   2.878  1.3877 -0.8306 -0.5838
 4611SOL     OW15273   2.964   5.005   9.739  0.2560 -0.0382  0.0098
 4611SOL    HW115274   2.907   4.977   9.811 -0.1991 -0.0815 -0.3687
 4611SOL    HW215275   2.930   4.960   9.662  0.1977  0.6939 -0.4007
 4612SOL     OW15276   3.588   6.995   7.608 -0.7852 -0.4833 -0.3254
 4612SOL    HW115277   3.650   6.928   7.635  1.1239  1.4303  0.4111
 4612SOL    HW215278   3.526   7.003   7.681 -1.7269 -2.1380 -0.8986
 4613SOL     OW15279   6.984   6.313   6.835  0.3319  0.1242 -0.0829
 4613SOL    HW115280   6.894   6.279   6.831  1.3088 -2.5763 -1.9929
 4613SOL    HW215281   7.030   6.250   6.890  1.8482 -0.7974 -2.2887
 4614SOL     OW15282   1.101   4.302   3.174 -0.3394  0.1735  0.5831
 4614SOL    HW115283   1.143   4.272   3.255  0.4527  0.3392  0.2428
 4614SOL    HW215284   1.131   4.392   3.163 -0.4395  0.1508  0.1024
 4615SOL     OW15285   7.043   7.965   9.433 -0.3237 -0.3556 -0.3392
 4615SOL    HW115286   7.120   7.923   9.396 -2.0445 -2.9994 -1.2271
 4615SOL    HW215287   7.041   7.934   9.524  0.2153  0.6550  0.0433
 4616SOL     OW15288   4.166   4.605   3.011  0.2403  0.5816 -0.6108
 4616SOL    HW115289   4.194   4.523   2.969  2.0540  0.4446  0.7078
 4616SOL    HW215290   4.237   4.624   3.073 -2.1307  0.8827  2.2076
 4617SOL     OW15291   6.552   6.893   1.885  0.0087  0.3812  0.2833
 4617SOL    HW115292   6.627   6.946   1.858  0.3443  1.2586  2.6488
 4617SOL    HW215293   6.590   6.813   1.920 -0.1003  0.8221  1.4766
 4618SOL     OW15294   5.733   1.297   2.341  0.1785 -0.3080 -0.1262
 4618SOL    HW115295   5.717   1.203   2.335 -0.5433 -0.3863  2.0155
 4618SOL    HW215296   5.762   1.310   2.432  2.3135  1.2818 -0.9633
 4619SOL     OW15297   0.256   5.567   9.572  0.6436  0.0732  0.5510
 4619SOL    HW115298   0.189   5.543   9.508  1.4256 -0.6227 -0.0254
 4619SOL    HW215299   0.241   5.507   9.645  0.6296 -0.0826  0.4224
 4620SOL     OW15300   5.349   3.851  11.979  0.1656 -0.0015 -0.1442
 4620SOL    HW115301   5.297   3.908  11.922 -1.3866 -2.0600 -0.9347
 4620SOL    HW215302   5.425   3.827  11.926  0.5100  0.8288 -0.0335
 4621SOL     OW15303   7.548   7.823  10.907 -0.4802 -0.4999  0.2717
 4621SOL    HW115304   7.512   7.881  10.974  0.4237  0.5043 -0.0931
 4621SOL    HW215305   7.633   7.797  10.941 -0.0132  0.0164 -0.4654
 4622SOL     OW15306   7.495   3.018   9.167  0.1610 -0.3309  0.2376
 4622SOL    HW115307   7.479   2.981   9.079 -0.2489  0.2079  0.0785
 4622SOL    HW215308   7.410   3.012   9.211 -0.1470  1.1991 -0.0919
 4623SOL     OW15309   6.189   0.347   7.374 -0.4765  0.4640 -0.2896
 4623SOL    HW115310   6.232   0.298   7.444  1.2613  0.7829 -1.0712
 4623SOL    HW215311   6.132   0.283   7.331  0.0312 -0.2794  0.1148
 4624SOL     OW15312   3.705   4.914  12.049  0.1285  0.4968 -0.1520
 4624SOL    HW115313   3.659   4.832  12.063 -1.3247  1.2272 -0.4313
 4624SOL    HW215314   3.708   4.924  11.954 -1.1505  1.5093 -0.1196
 4625SOL     OW15315   3.250   5.259   8.633 -0.3712  0.0540  0.6068
 4625SOL    HW115316   3.275   5.220   8.550 -1.4398 -0.0883  0.3471
 4625SOL    HW215317   3.155   5.249   8.638 -0.3114 -0.0715  1.9127
 4626SOL     OW15318   0.601   7.111   6.201  0.1792 -0.2191 -0.4190
 4626SOL    HW115319   0.579   7.140   6.290 -0.3934  0.6293 -0.8252
 4626SOL    HW215320   0.693   7.085   6.206  0.7080  1.6218 -0.0092
 4627SOL     OW15321   2.195   7.566   9.108  0.1104  0.5315 -0.0937
 4627SOL    HW115322   2.136   7.595   9.039 -1.3776  2.1666  1.7333
 4627SOL    HW215323   2.173   7.474   9.122 -2.4566  1.1970  0.8321
 4628SOL     OW15324   2.417   2.337   7.614  0.2056 -0.1243 -0.3029
 4628SOL    HW115325   2.503   2.336   7.573 -0.1581  1.2417 -1.1704
 4628SOL    HW215326   2.358   2.365   7.545 -0.6532  0.7134  0.7399
 4629SOL     OW15327   5.420   2.886  10.015  0.0894  0.5626  0.2035
 4629SOL    HW115328   5.377   2.896   9.931 -0.1011 -0.3652  0.1803
 4629SOL    HW215329   5.459   2.971  10.033 -2.5347  1.7650  0.6852
 4630SOL     OW15330   3.247   1.187   3.706  0.2615  0.1005  0.0158
 4630SOL    HW115331   3.212   1.112   3.755  0.5810 -1.2365 -1.7250
 4630SOL    HW215332   3.212   1.264   3.751  2.2140 -0.9095  3.6789
 4631SOL     OW15333   2.740   0.014   3.137 -0.3783  0.1645 -0.0123
 4631SOL    HW115334   2.819  -0.009   3.088 -1.3445 -1.2175 -0.9777
 4631SOL    HW215335   2.684  -0.064   3.132 -1.0329  0.3903  2.2802
 4632SOL     OW15336   3.626   5.992   6.055 -0.3647 -0.6168 -0.2544
 4632SOL    HW115337   3.685   6.060   6.086  0.2206 -1.3354  0.2260
 4632SOL    HW215338   3.575   5.968   6.132 -2.5474  1.1896 -0.9993
 4633SOL     OW15339   0.152   6.358   0.954  0.0540 -0.4326  0.7036
 4633SOL    HW115340   0.212   6.374   1.027 -0.6617  2.1172  0.8121
 4633SOL    HW215341   0.207   6.364   0.876  0.0704  1.5559  0.8223
 4634SOL     OW15342   0.175   3.354   7.603  0.6870 -0.1508 -0.1244
 4634SOL    HW115343   0.266   3.326   7.612  1.0236  0.8049 -0.3838
 4634SOL    HW215344   0.136   3.290   7.543  1.2023 -0.5334 -0.0603
 4635SOL     OW15345   4.866   1.764   8.068 -0.0266 -0.2309 -0.2061
 4635SOL    HW115346   4.782   1.783   8.025  0.1163  0.1832 -0.3087
 4635SOL    HW215347   4.910   1.849   8.071  0.1322 -0.3335  0.4088
 4636SOL     OW15348   2.676   4.568  10.923 -0.0080  0.1855 -0.4663
 4636SOL    HW115349   2.723   4.644  10.958 -2.3616  1.3245  0.5338
 4636SOL    HW215350   2.662   4.511  10.999 -0.5360  0.0696 -0.6414
 4637SOL     OW15351   6.719   3.768  12.307  0.1329 -0.5360  0.3682
 4637SOL    HW115352   6.770   3.841  12.272  1.1079 -1.8747 -1.1106
 4637SOL    HW215353   6.629   3.802  12.311  0.6141  0.8613  0.0970
 4638SOL     OW15354   7.865   2.540   6.759 -0.2067 -0.2038  0.4004
 4638SOL    HW115355   7.801   2.598   6.718  0.2903 -1.1843 -1.9428
 4638SOL    HW215356   7.938   2.597   6.782 -0.1372  0.2626 -0.9261
 4639SOL     OW15357   5.317   7.649   7.556 -0.0146 -0.2227  0.0076
 4639SOL    HW115358   5.346   7.709   7.487  0.7374  0.4859  0.9039
 4639SOL    HW215359   5.222   7.645   7.547 -0.2255  2.0754  0.6455
 4640SOL     OW15360   6.609   5.635  11.296 -0.1821 -0.2023 -0.3058
 4640SOL    HW115361   6.613   5.652  11.202 -1.7255  0.4328 -0.2836
 4640SOL    HW215362   6.517   5.647  11.319  0.1258 -0.5684  1.2547
 4641SOL     OW15363   3.173   1.657   8.828  0.0147 -0.0253 -0.1090
 4641SOL    HW115364   3.244   1.717   8.808 -0.0220  0.4376  1.0620
 4641SOL    HW215365   3.214   1.571   8.836 -0.0230 -0.3213 -2.4435
 4642SOL     OW15366   0.026   5.012   3.007  0.0363  0.6149 -0.5484
 4642SOL    HW115367   0.086   5.059   2.949  0.5297  0.1869 -0.3972
 4642SOL    HW215368  -0.061   5.030   2.972  0.2818  0.9418 -0.9965
 4643SOL     OW15369   7.952   1.063   0.188 -0.3102 -0.1127 -0.7663
 4643SOL    HW115370   7.990   1.105   0.111  1.4407 -3.4799 -1.9336
 4643SOL    HW215371   7.995   1.106   0.262  1.1022  0.4014 -1.8435
 4644SOL     OW15372   3.122   0.460   1.557 -0.2156  0.1711  0.0770
 4644SOL    HW115373   3.184   0.388   1.550  0.6562  0.7851  1.0763
 4644SOL    HW215374   3.038   0.423   1.529  0.2583 -1.1435  0.3304
 4645SOL     OW15375   7.338   1.570   4.863 -0.0170 -0.3589  0.0130
 4645SOL    HW115376   7.409   1.571   4.928 -0.7077 -1.1612  0.8008
 4645SOL    HW215377   7.281   1.643   4.889 -0.0032 -0.3320 -0.0316
 4646SOL     OW15378   2.244   0.334   9.262 -0.0730 -0.4544 -0.2181
 4646SOL    HW115379   2.318   0.282   9.231  0.0778 -1.3799  1.5514
 4646SOL    HW215380   2.278   0.381   9.338 -0.6450  1.1068 -0.8714
 4647SOL     OW15381   3.729   1.583   8.863  0.4353  0.2846 -0.1934
 4647SOL    HW115382   3.696   1.559   8.776  0.9101  0.2079 -0.3560
 4647SOL    HW215383   3.651   1.590   8.917  0.2383 -1.5611 -0.1513
 4648SOL     OW15384   0.086   4.998   3.596 -0.2629 -0.0339 -0.2499
 4648SOL    HW115385   0.095   5.057   3.521  1.6928  0.3708  0.2443
 4648SOL    HW215386   0.137   5.040   3.665  0.1778 -1.7219  0.4908
 4649SOL     OW15387   6.475   5.669   6.098  0.2069 -0.0919  0.4658
 4649SOL    HW115388   6.563   5.636   6.078 -0.0282 -0.7132  0.4097
 4649SOL    HW215389   6.473   5.676   6.193  0.3918  0.1290  0.4521
 4650SOL     OW15390   2.182   0.067   8.703 -0.0229  0.1390 -0.5017
 4650SOL    HW115391   2.133   0.124   8.762  1.1633  1.4386 -0.7328
 4650SOL    HW215392   2.251   0.123   8.667 -0.3300 -0.7886 -2.6538
 4651SOL     OW15393   7.542   3.232   4.781  0.2464  0.1856  0.5214
 4651SOL    HW115394   7.631   3.196   4.775 -0.2756 -0.9612 -1.4926
 4651SOL    HW215395   7.549   3.321   4.746  0.7243  0.3818  1.1031
 4652SOL     OW15396   2.406   7.514   9.857 -0.2750  0.2407  0.3644
 4652SOL    HW115397   2.456   7.445   9.812 -1.0929 -0.7785  0.9779
 4652SOL    HW215398   2.316   7.481   9.857 -0.3583  0.3676  2.4459
 4653SOL     OW15399   0.157   5.481   0.078 -0.3047 -0.0089 -0.5254
 4653SOL    HW115400   0.104   5.402   0.070  0.3725 -0.5514  0.2702
 4653SOL    HW215401   0.130   5.520   0.161 -1.4929  1.2583 -1.4655
 4654SOL     OW15402   0.638   0.662   0.953  0.2657  0.0168  0.1222
 4654SOL    HW115403   0.628   0.600   1.025 -2.4336  0.3909  0.1923
 4654SOL    HW215404   0.600   0.618   0.877  0.0419  0.8495 -0.2678
 4655SOL     OW15405   6.769   6.094   5.894 -0.2596 -0.2139 -0.5778
 4655SOL    HW115406   6.807   6.170   5.939 -4.0791  1.3111  0.5199
 4655SOL    HW215407   6.739   6.129   5.810 -0.6537 -0.9239 -0.7385
 4656SOL     OW15408   5.243   1.735   6.164 -0.2171 -0.6263  0.1778
 4656SOL    HW115409   5.302   1.694   6.102  1.1022 -0.0323  1.0004
 4656SOL    HW215410   5.214   1.815   6.121  0.7909 -0.1542  0.3555
 4657SOL     OW15411   1.394   5.584   7.998 -0.4407  0.4005 -0.4871
 4657SOL    HW115412   1.431   5.500   8.028 -0.1200 -0.4245 -2.9490
 4657SOL    HW215413   1.306   5.562   7.969 -1.2623  1.4595  1.0867
 4658SOL     OW15414   5.364   3.129   5.924 -0.2024 -0.6144  0.3717
 4658SOL    HW115415   5.381   3.200   5.861 -1.1220 -1.6121 -1.0824
 4658SOL    HW215416   5.444   3.123   5.976  0.2451  0.8572 -0.1004
 4659SOL     OW15417   2.592   3.839   9.188  0.2903 -0.6338 -0.2548
 4659SOL    HW115418   2.605   3.880   9.274  0.1113 -0.1095 -0.4744
 4659SOL    HW215419   2.675   3.851   9.143  0.7101 -1.7578  0.1861
 4660SOL     OW15420   7.736   0.273   7.676  0.0322  0.0069  0.1026
 4660SOL    HW115421   7.809   0.294   7.618 -0.4464  0.6990 -0.2624
 4660SOL    HW215422   7.730   0.347   7.736  0.6337 -0.7784  1.1770
 4661SOL     OW15423   2.039   5.510   3.326  0.4183 -0.1457  0.0748
 4661SOL    HW115424   1.998   5.439   3.277  1.3805 -0.4915 -0.2455
 4661SOL    HW215425   1.966   5.555   3.369 -0.3540 -0.3440 -0.9967
 4662SOL     OW15426   1.955   3.049   3.778 -0.3735  0.0833 -0.0494
 4662SOL    HW115427   2.015   2.985   3.818 -1.3260 -0.9364 -0.2058
 4662SOL    HW215428   1.901   2.997   3.719 -0.9263  1.1113 -0.4670
 4663SOL     OW15429   1.829   6.424   9.675  0.4372  0.1978 -0.0178
 4663SOL    HW115430   1.811   6.382   9.759 -0.4570  0.6128  0.0044
 4663SOL    HW215431   1.787   6.366   9.611 -1.8684  1.6210  0.1004
 4664SOL     OW15432   2.081   6.847  11.497 -0.6715  0.2688  0.1402
 4664SOL    HW115433   2.023   6.915  11.463 -0.2459  0.3134 -0.5251
 4664SOL    HW215434   2.072   6.775  11.435  1.3075  0.9398 -1.0196
 4665SOL     OW15435   6.230   6.357   2.536  0.4637  0.7419  0.3103
 4665SOL    HW115436   6.225   6.435   2.482  2.8780  1.7551  1.3933
 4665SOL    HW215437   6.298   6.377   2.601 -0.1057 -1.5846  1.7492
 4666SOL     OW15438   6.152   6.123   5.155  0.2199 -0.0789 -0.3052
 4666SOL    HW115439   6.061   6.102   5.178 -0.2586  2.2534  0.1940
 4666SOL    HW215440   6.145   6.201   5.100  1.8933 -0.4983 -1.1736
 4667SOL     OW15441   1.797   6.046   4.757  0.3631 -0.2988 -0.5420
 4667SOL    HW115442   1.874   5.990   4.751 -0.1122 -0.8852 -1.3701
 4667SOL    HW215443   1.783   6.078   4.668 -2.0105 -2.5042 -1.0715
 4668SOL     OW15444   0.529   6.984  12.279  0.6465 -1.0140  0.2739
 4668SOL    HW115445   0.512   6.906  12.226  1.7178 -0.6056 -0.7126
 4668SOL    HW215446   0.569   6.950  12.359  0.8095 -1.5055 -0.0082
 4669SOL     OW15447   0.217   6.933   9.931 -0.1555 -0.0892  0.4218
 4669SOL    HW115448   0.169   6.871   9.986  1.5922 -1.5855  0.3485
 4669SOL    HW215449   0.208   6.898   9.842  2.6689 -1.6182  0.6263
 4670SOL     OW15450   0.449   4.777   8.250  0.3148  0.4001  0.2623
 4670SOL    HW115451   0.419   4.687   8.235 -0.9070  0.8881 -0.3900
 4670SOL    HW215452   0.528   4.767   8.303  1.4311 -1.1836 -1.5193
 4671SOL     OW15453   5.792   7.733   0.251 -0.1541  0.2085 -0.1447
 4671SOL    HW115454   5.746   7.811   0.221 -0.5230  0.0333 -0.0472
 4671SOL    HW215455   5.797   7.743   0.346  0.2713  0.3645 -0.1805
 4672SOL     OW15456   7.846   3.675   3.039 -0.0628 -0.0452 -0.3928
 4672SOL    HW115457   7.939   3.650   3.048 -0.0889 -0.8958 -2.0199
 4672SOL    HW215458   7.803   3.594   3.012 -0.8149  0.9083 -2.2232
 4673SOL     OW15459   0.678   0.480   5.211 -0.3672 -0.1928  0.4765
 4673SOL    HW115460   0.627   0.419   5.264 -0.9334 -0.1729 -0.0366
 4673SOL    HW215461   0.699   0.432   5.131 -1.0435  0.3582 -0.0480
 4674SOL     OW15462   0.147   5.596   3.105 -0.5888  0.3964  0.0173
 4674SOL    HW115463   0.149   5.505   3.074  0.0040 -0.2221  1.7270
 4674SOL    HW215464   0.236   5.628   3.091 -0.4767  0.3048  0.4912
 4675SOL     OW15465   3.628   6.455   3.980 -0.3601 -0.2866 -0.2052
 4675SOL    HW115466   3.593   6.409   4.057 -2.8742 -0.7892 -1.5628
 4675SOL    HW215467   3.566   6.526   3.965  0.4300  0.1597 -1.4303
 4676SOL     OW15468   2.031   7.322   2.852  0.5602 -0.2322  0.0190
 4676SOL    HW115469   2.126   7.326   2.863  0.8265 -0.8936 -1.7367
 4676SOL    HW215470   2.017   7.344   2.760 -1.1354  1.4532  0.6038
 4677SOL     OW15471   4.265   6.975   3.870 -0.0691  0.0094  0.4183
 4677SOL    HW115472   4.198   7.025   3.917 -0.7831 -0.3926 -0.1425
 4677SOL    HW215473   4.304   7.039   3.810 -0.5886  0.0300  0.1004
 4678SOL     OW15474   0.335   1.120   4.991  0.1108 -0.0490 -0.4690
 4678SOL    HW115475   0.311   1.141   5.081  2.2524 -1.0890  0.4002
 4678SOL    HW215476   0.396   1.189   4.965  1.7157 -1.2824 -0.0797
 4679SOL     OW15477   5.281   3.687   8.814 -0.0444 -0.0572  0.1709
 4679SOL    HW115478   5.207   3.627   8.824 -0.8403  0.8762  0.0185
 4679SOL    HW215479   5.347   3.636   8.766 -1.9693  0.1760 -2.9934
 4680SOL     OW15480   0.378   1.798   2.806 -0.4045 -0.0741  0.1334
 4680SOL    HW115481   0.321   1.857   2.856 -0.3788 -0.3382  0.4733
 4680SOL    HW215482   0.324   1.768   2.733 -0.8312 -0.6311  0.6689
 4681SOL     OW15483   0.727   1.113   7.050  0.2473 -0.1782 -0.1486
 4681SOL    HW115484   0.635   1.122   7.077  0.3603 -1.8483  0.9451
 4681SOL    HW215485   0.723   1.101   6.955 -0.7609 -1.0533 -0.0200
 4682SOL     OW15486   3.788   3.072  11.746  0.2822 -0.5428  0.4218
 4682SOL    HW115487   3.725   3.105  11.810 -0.1304  0.1346 -0.3157
 4682SOL    HW215488   3.835   3.150  11.717 -0.6648 -0.5796 -1.3069
 4683SOL     OW15489   0.895   5.750   6.965 -0.1371  0.5899  0.2940
 4683SOL    HW115490   0.877   5.683   7.030 -0.7354  0.5190  0.0688
 4683SOL    HW215491   0.947   5.816   7.011  2.0003 -0.8416  0.0524
 4684SOL     OW15492   7.568   6.261   6.022 -0.1354 -0.0834 -0.2296
 4684SOL    HW115493   7.584   6.343   6.070 -1.5978  0.4806 -0.6352
 4684SOL    HW215494   7.487   6.227   6.060 -1.5153  0.5320 -2.4164
 4685SOL     OW15495   7.486   6.762   4.127  0.2104  0.0496 -0.2889
 4685SOL    HW115496   7.483   6.849   4.167  0.5914 -0.0359 -0.0662
 4685SOL    HW215497   7.454   6.775   4.038 -0.8831  0.1996  0.1101
 4686SOL     OW15498   7.904   5.123   2.564 -0.1740  0.3494  0.0517
 4686SOL    HW115499   7.907   5.196   2.503  0.0028  2.8919  2.8673
 4686SOL    HW215500   7.840   5.063   2.527  0.2741  1.5048 -2.7916
 4687SOL     OW15501   7.082   0.033   4.000 -0.1577  0.1623 -0.0244
 4687SOL    HW115502   7.021   0.086   4.052  1.0776 -1.3066  3.1983
 4687SOL    HW215503   7.152   0.093   3.975 -0.8034  0.9165 -0.0403
 4688SOL     OW15504   5.686   2.557  11.930  0.5457 -0.3250 -0.1731
 4688SOL    HW115505   5.734   2.583  12.009 -0.9869  0.0884  0.6654
 4688SOL    HW215506   5.620   2.626  11.919 -0.0719 -1.0512 -1.0849
 4689SOL     OW15507   5.640   5.911   2.969  0.6502 -0.7133 -0.2177
 4689SOL    HW115508   5.654   5.936   3.061  0.7866  1.0397 -0.6815
 4689SOL    HW215509   5.729   5.895   2.936  0.7027 -0.1590 -0.3516
 4690SOL     OW15510   2.742   5.583   1.692  0.7856 -0.2510  0.1411
 4690SOL    HW115511   2.700   5.499   1.709  1.6937 -0.5908  0.8091
 4690SOL    HW215512   2.706   5.612   1.608 -0.1092 -0.9329  0.2812
 4691SOL     OW15513   0.109   0.123   8.392 -0.0340  0.0836 -0.1781
 4691SOL    HW115514   0.043   0.187   8.366  0.3714  0.4066 -0.4231
 4691SOL    HW215515   0.059   0.047   8.420 -0.5134  0.3861 -0.2053
 4692SOL     OW15516   5.531   5.660   6.972  0.0536 -0.2936  0.1953
 4692SOL    HW115517   5.578   5.686   6.893  0.1988  0.4114  0.5034
 4692SOL    HW215518   5.439   5.677   6.953  0.2271  1.3152  0.7064
 4693SOL     OW15519   6.436   5.135   5.952  0.1044  0.1843  0.3342
 4693SOL    HW115520   6.480   5.219   5.938 -1.4042  1.1781  1.3665
 4693SOL    HW215521   6.505   5.077   5.985  1.2851  0.8301 -0.8799
 4694SOL     OW15522   3.866   1.065   3.207  0.0555  0.1516 -0.3195
 4694SOL    HW115523   3.878   1.054   3.301  0.4660 -1.9465 -0.5623
 4694SOL    HW215524   3.771   1.073   3.196 -0.0931 -0.7426  0.2005
 4695SOL     OW15525   5.800   3.834   7.396  0.0406  0.2347  0.1998
 4695SOL    HW115526   5.768   3.826   7.307  1.2140  0.7973 -0.2975
 4695SOL    HW215527   5.725   3.866   7.446 -0.9275 -1.0675 -0.3592
 4696SOL     OW15528   2.426   4.254   5.706 -0.7453 -0.1288  0.0631
 4696SOL    HW115529   2.458   4.279   5.792 -0.6908 -0.7216  0.2156
 4696SOL    HW215530   2.502   4.265   5.648 -0.7105  0.0086  0.1348
 4697SOL     OW15531   5.208   5.512   0.018 -0.0573 -0.3189 -0.4884
 4697SOL    HW115532   5.235   5.599   0.049  0.6642 -0.4042 -0.8847
 4697SOL    HW215533   5.175   5.527  -0.070 -0.9132 -0.2899 -0.1797
 4698SOL     OW15534   7.415   7.372  11.768 -0.4934 -0.4508  0.3796
 4698SOL    HW115535   7.340   7.369  11.828  0.6948  1.0721  2.0727
 4698SOL    HW215536   7.455   7.457  11.784 -0.2287  0.1367 -2.8364
 4699SOL     OW15537   5.584   5.274   5.884 -0.4637  0.6771  0.4357
 4699SOL    HW115538   5.665   5.273   5.833  1.0944 -1.4052  2.7848
 4699SOL    HW215539   5.576   5.365   5.914 -0.5224  1.5418 -1.9855
 4700SOL     OW15540   0.968   3.583   9.913  0.9038 -0.4528  0.4252
 4700SOL    HW115541   1.026   3.628   9.975  2.5063 -0.5357 -0.9428
 4700SOL    HW215542   0.940   3.651   9.852  0.3046 -0.5978  0.5338
 4701SOL     OW15543   2.792   0.069  10.449  0.4892  0.5700  0.5388
 4701SOL    HW115544   2.696   0.074  10.457  0.0190 -0.6308 -2.8766
 4701SOL    HW215545   2.822   0.046  10.537 -2.4005  0.2253  1.5463
 4702SOL     OW15546   2.765   7.057   1.260 -0.1484  0.1457 -0.1997
 4702SOL    HW115547   2.777   7.128   1.324 -0.7877  0.5031 -0.4658
 4702SOL    HW215548   2.846   7.007   1.265  0.1145  0.6073  0.3539
 4703SOL     OW15549   1.068   3.867   7.976  0.0514  0.0905  0.5059
 4703SOL    HW115550   1.064   3.773   7.990  0.5426  0.0581  0.4546
 4703SOL    HW215551   0.978   3.897   7.988 -0.3630 -0.5651 -0.7951
 4704SOL     OW15552   4.527   7.810   9.235  0.1625 -0.2024  0.3692
 4704SOL    HW115553   4.575   7.744   9.185 -2.2990 -3.2244  1.6514
 4704SOL    HW215554   4.569   7.810   9.321  0.7644  0.6790  0.0866
 4705SOL     OW15555   6.579   6.657   1.338  0.3519  0.0086 -0.5389
 4705SOL    HW115556   6.591   6.564   1.355  0.9021  0.4898  2.0942
 4705SOL    HW215557   6.501   6.662   1.282  0.4468 -2.0155 -0.9016
 4706SOL     OW15558   6.384   3.561  12.330 -0.1394  0.4415  0.3132
 4706SOL    HW115559   6.471   3.540  12.365 -0.0463 -0.2488 -0.2983
 4706SOL    HW215560   6.364   3.487  12.272 -1.1796  0.5506  0.5292
 4707SOL     OW15561   4.725   5.100   4.816 -0.3927 -0.4624 -0.2771
 4707SOL    HW115562   4.718   5.024   4.759 -0.7927  1.0929 -2.4696
 4707SOL    HW215563   4.811   5.093   4.856  0.0807 -1.4361 -1.4252
 4708SOL     OW15564   6.666   0.302   8.121 -0.8931 -0.0244  0.4307
 4708SOL    HW115565   6.728   0.360   8.078 -2.1023 -0.1721 -1.6908
 4708SOL    HW215566   6.621   0.357   8.185 -0.2186  0.6764  0.3091
 4709SOL     OW15567   1.918   3.815  11.559  0.0164  0.1147  0.7595
 4709SOL    HW115568   1.918   3.762  11.639  1.0714 -0.3850  0.4435
 4709SOL    HW215569   1.988   3.777  11.505 -1.2414 -0.1226 -0.7761
 4710SOL     OW15570   0.823   0.275   0.880  0.0892  0.7865 -0.2698
 4710SOL    HW115571   0.764   0.290   0.954  0.2170  0.7276 -0.1543
 4710SOL    HW215572   0.863   0.360   0.864  0.1534  0.7716 -0.1900
 4711SOL     OW15573   1.067   3.341   9.854 -0.3520 -0.0599  0.2573
 4711SOL    HW115574   1.037   3.429   9.879  1.7253  0.5851  0.6902
 4711SOL    HW215575   1.081   3.347   9.760  1.9513  0.8474  0.5928
 4712SOL     OW15576   0.254   7.933   7.532 -1.0360 -0.1745 -0.1837
 4712SOL    HW115577   0.315   7.938   7.459 -0.6648  0.2136  0.1497
 4712SOL    HW215578   0.309   7.924   7.610 -1.4379 -0.9769  0.0202
 4713SOL     OW15579   4.829   4.752   5.366  0.7439  0.1356  0.3892
 4713SOL    HW115580   4.737   4.742   5.390  0.5148 -0.8759 -0.8220
 4713SOL    HW215581   4.847   4.678   5.308  1.8186  1.3279 -0.8528
 4714SOL     OW15582   1.081   5.269   2.058 -0.3000 -0.0793 -0.7121
 4714SOL    HW115583   1.040   5.350   2.027 -0.5914 -0.0032 -0.1505
 4714SOL    HW215584   1.159   5.298   2.105  0.8281 -0.2700 -2.4112
 4715SOL     OW15585   0.663   6.682   6.707  0.6279 -0.5030 -0.6892
 4715SOL    HW115586   0.752   6.715   6.691  1.3714 -1.1406  1.6869
 4715SOL    HW215587   0.606   6.743   6.661  2.1133  2.1994  0.8391
 4716SOL     OW15588   2.145   2.433   3.651  0.0815 -0.3052 -0.4671
 4716SOL    HW115589   2.199   2.512   3.651  0.8903 -0.7989 -2.4969
 4716SOL    HW215590   2.151   2.400   3.740  1.6899  0.6239 -0.1900
 4717SOL     OW15591   4.294   7.283   5.893 -0.1157 -0.8564  0.0751
 4717SOL    HW115592   4.355   7.210   5.902  0.0388 -0.6360  0.9926
 4717SOL    HW215593   4.209   7.243   5.879  0.0965 -1.1917 -0.2594
 4718SOL     OW15594   5.060   2.664   9.970 -0.2756  0.0872 -0.0362
 4718SOL    HW115595   5.115   2.701   9.901 -0.8218  1.8857  0.4256
 4718SOL    HW215596   5.007   2.738  10.000 -0.7928 -0.8937  1.5896
 4719SOL     OW15597   5.914   5.462   7.689 -0.6100 -0.0629  0.1117
 4719SOL    HW115598   5.917   5.402   7.763 -0.1541 -0.1347  0.0380
 4719SOL    HW215599   5.927   5.548   7.727  1.0230 -0.2240 -0.0248
 4720SOL     OW15600   6.722   1.573   0.806  0.0262  0.4158  0.2536
 4720SOL    HW115601   6.711   1.522   0.886 -0.7420  1.1157  0.6155
 4720SOL    HW215602   6.803   1.622   0.820  1.0332 -1.0284 -0.3014
 4721SOL     OW15603   2.850   1.802   5.903 -0.1275  0.2104 -0.2216
 4721SOL    HW115604   2.794   1.737   5.947  0.6374 -0.4059 -0.1376
 4721SOL    HW215605   2.931   1.755   5.883 -0.0450  0.7908 -1.3231
 4722SOL     OW15606   6.918   7.148   6.912 -0.3161 -0.1451 -0.6186
 4722SOL    HW115607   6.843   7.119   6.860 -1.7356  1.2809  0.5588
 4722SOL    HW215608   6.902   7.113   6.999  1.3922 -1.4222 -0.7671
 4723SOL     OW15609   3.820   7.906   3.091 -0.3572 -0.3170 -0.1968
 4723SOL    HW115610   3.789   7.996   3.101 -2.1488 -0.9150 -0.1540
 4723SOL    HW215611   3.742   7.854   3.074  0.5519 -1.9850  0.4156
 4724SOL     OW15612   6.267   1.954   3.691 -0.1245 -0.2835  0.4257
 4724SOL    HW115613   6.186   1.909   3.714 -0.4669  0.3700  0.5239
 4724SOL    HW215614   6.260   1.971   3.597  0.6388 -1.6759  0.0868
 4725SOL     OW15615   3.887   2.633  10.020 -0.0462  0.2874 -0.8598
 4725SOL    HW115616   3.805   2.586  10.036 -0.4260  0.5512 -1.9111
 4725SOL    HW215617   3.942   2.571   9.973  0.3889  0.0901 -0.0992
 4726SOL     OW15618   7.052   0.636   2.646 -0.2801 -0.1122 -0.0545
 4726SOL    HW115619   7.126   0.579   2.626 -0.3376 -0.3827  0.4960
 4726SOL    HW215620   7.035   0.683   2.564  0.3072 -0.2659 -0.2655
 4727SOL     OW15621   5.250   6.639  11.747 -0.0126 -0.1987 -0.1407
 4727SOL    HW115622   5.245   6.691  11.667 -0.8636  1.5870  1.0232
 4727SOL    HW215623   5.320   6.680  11.798  0.1875 -1.0149  0.2564
 4728SOL     OW15624   4.243   4.142   8.381  0.0767  0.5928 -0.1883
 4728SOL    HW115625   4.242   4.111   8.291 -0.7182  2.5109 -0.8892
 4728SOL    HW215626   4.321   4.196   8.386 -0.5031  1.4377 -0.0905
 4729SOL     OW15627   3.988   5.644   0.883 -0.3671 -0.1753 -0.4185
 4729SOL    HW115628   4.005   5.734   0.913  0.4325  0.0165 -1.4078
 4729SOL    HW215629   4.055   5.591   0.926  0.0346 -0.0763 -0.9063
 4730SOL     OW15630   1.634   7.875   3.851 -0.7286  0.1455 -0.4597
 4730SOL    HW115631   1.603   7.964   3.869  0.2586  0.7637 -1.6535
 4730SOL    HW215632   1.599   7.855   3.765 -0.7841 -0.5471 -0.2764
 4731SOL     OW15633   4.387   0.974   4.386 -0.1556 -0.0118  0.3784
 4731SOL    HW115634   4.451   0.913   4.349 -0.6780 -0.3364 -0.0029
 4731SOL    HW215635   4.433   1.015   4.459  0.6210  0.0500 -0.1262
 4732SOL     OW15636   5.430   2.781   4.372 -0.2690 -0.1920 -0.7086
 4732SOL    HW115637   5.352   2.773   4.426  0.7255 -0.9454  0.6716
 4732SOL    HW215638   5.440   2.875   4.358 -1.0296 -0.0477 -0.3313
 4733SOL     OW15639   0.805   3.160   9.148 -0.3398 -0.9103 -0.6777
 4733SOL    HW115640   0.850   3.077   9.158  1.6185  0.0068 -1.3197
 4733SOL    HW215641   0.773   3.159   9.057  0.0486 -0.8084 -0.8180
 4734SOL     OW15642   7.756   3.714   7.140  0.6230 -0.3141 -0.1107
 4734SOL    HW115643   7.729   3.754   7.222  1.1195 -0.0654 -0.0655
 4734SOL    HW215644   7.743   3.782   7.074  1.1559 -0.1817 -0.0844
 4735SOL     OW15645   4.482   7.387   6.890  0.6482  0.1338 -0.2696
 4735SOL    HW115646   4.501   7.362   6.980  0.3618  2.8505  0.6582
 4735SOL    HW215647   4.406   7.335   6.865  0.7983 -0.7333  1.0207
 4736SOL     OW15648   1.336   0.880   2.464 -0.1275 -0.1853  0.5712
 4736SOL    HW115649   1.257   0.888   2.409 -0.0861 -1.0746  0.3689
 4736SOL    HW215650   1.407   0.908   2.407 -0.1286 -0.7654  0.2745
 4737SOL     OW15651   4.308   4.056   9.285 -0.1447  0.0771  0.1906
 4737SOL    HW115652   4.226   4.083   9.326 -0.4674 -1.9986  0.9901
 4737SOL    HW215653   4.336   3.979   9.333  1.7809  0.1412 -0.7147
 4738SOL     OW15654   3.539   7.780   7.456  0.0243 -0.0654  0.0444
 4738SOL    HW115655   3.522   7.690   7.429 -0.8248  0.1807 -0.2937
 4738SOL    HW215656   3.626   7.778   7.495  0.0973 -0.9895 -0.1473
 4739SOL     OW15657   6.564   4.811   6.658  0.0719  0.1452  0.4395
 4739SOL    HW115658   6.547   4.898   6.695 -0.0238 -0.7479  2.7024
 4739SOL    HW215659   6.481   4.765   6.669  0.4965 -0.6169  0.5028
 4740SOL     OW15660   7.574   3.215   5.477  0.0193 -0.3681  0.2773
 4740SOL    HW115661   7.653   3.211   5.424  0.1779 -1.0152  0.5461
 4740SOL    HW215662   7.506   3.247   5.418  0.1405 -1.2834 -0.3766
 4741SOL     OW15663   2.333   4.899   8.863  0.0341 -0.4003 -0.2091
 4741SOL    HW115664   2.347   4.932   8.775 -1.1803  0.3449 -0.1476
 4741SOL    HW215665   2.289   4.971   8.909 -0.6960 -1.3083  0.5607
 4742SOL     OW15666   0.628   4.600   1.158  0.2697 -0.1609  0.8794
 4742SOL    HW115667   0.555   4.540   1.173  0.2364 -0.2560  0.3503
 4742SOL    HW215668   0.595   4.685   1.186 -0.3452 -0.0472 -0.1650
 4743SOL     OW15669   2.361   2.150   9.364 -0.2013 -0.4407  0.2120
 4743SOL    HW115670   2.349   2.200   9.445 -1.6593 -0.4581  0.0337
 4743SOL    HW215671   2.325   2.207   9.296 -0.0840 -0.9320 -0.2645
 4744SOL     OW15672   5.138   1.716  11.519 -0.3353 -0.6154 -0.0569
 4744SOL    HW115673   5.128   1.799  11.565  0.9591 -0.8139  0.6015
 4744SOL    HW215674   5.054   1.671  11.534 -0.6397  0.1108  0.4895
 4745SOL     OW15675   0.402   0.957   2.451  0.2417  0.1428  0.0915
 4745SOL    HW115676   0.419   1.042   2.491  0.2433  0.3636 -0.3759
 4745SOL    HW215677   0.474   0.944   2.389  0.3049 -0.2500  0.2440
 4746SOL     OW15678   3.909   6.298   7.702 -0.1864  0.1982  0.0797
 4746SOL    HW115679   3.902   6.335   7.614 -0.3890  0.3875  0.1729
 4746SOL    HW215680   3.824   6.319   7.743 -1.0553 -1.9671 -0.4809
 4747SOL     OW15681   2.735   5.701   3.552 -0.3554  0.6314 -0.4494
 4747SOL    HW115682   2.768   5.664   3.633  1.5126  1.0129 -0.9945
 4747SOL    HW215683   2.643   5.675   3.549 -0.0521 -0.7142  1.0084
 4748SOL     OW15684   0.026   0.343   1.640 -0.2759 -0.0826 -0.1049
 4748SOL    HW115685   0.107   0.348   1.691  0.4642 -0.4272 -1.2112
 4748SOL    HW215686   0.052   0.372   1.552 -1.1699 -0.9869 -0.6786
 4749SOL     OW15687   2.939   7.844   6.754 -0.1815 -0.2040 -0.0710
 4749SOL    HW115688   2.901   7.777   6.697 -0.4329  0.0384 -0.1900
 4749SOL    HW215689   2.890   7.924   6.733  0.3679  0.1025 -0.1983
 4750SOL     OW15690   5.196   0.048  10.135  0.2676  0.4922 -0.1930
 4750SOL    HW115691   5.207   0.143  10.123 -0.2217  0.4938 -0.6818
 4750SOL    HW215692   5.101   0.035  10.130  0.2299  0.1469  1.1990
 4751SOL     OW15693   4.446   6.288   5.329  0.5610 -0.0069 -0.3878
 4751SOL    HW115694   4.468   6.349   5.258 -1.0824  0.4173 -0.5725
 4751SOL    HW215695   4.427   6.345   5.404  2.9844 -0.4622  0.6872
 4752SOL     OW15696   6.894   2.758   5.908 -0.8911  0.5467 -0.4312
 4752SOL    HW115697   6.946   2.699   5.963 -1.6652  0.3687  0.1308
 4752SOL    HW215698   6.954   2.830   5.888  0.2257 -0.6427 -1.5346
 4753SOL     OW15699   0.550   3.597  11.560  0.3419  0.3260 -0.0063
 4753SOL    HW115700   0.514   3.572  11.645 -0.3612  0.3773 -0.2775
 4753SOL    HW215701   0.483   3.570  11.497  1.7771 -1.7589 -0.7720
 4754SOL     OW15702   0.288   0.438   6.937  0.5420 -0.5546  0.2394
 4754SOL    HW115703   0.346   0.373   6.976  1.7868 -0.5503 -1.4697
 4754SOL    HW215704   0.301   0.516   6.990  0.2886 -1.2254  1.3118
 4755SOL     OW15705   2.011   5.549   0.790  0.3419  0.0621  0.0069
 4755SOL    HW115706   2.004   5.461   0.755  1.6687  0.5451 -1.6119
 4755SOL    HW215707   2.007   5.538   0.885  0.8320 -1.7696 -0.1531
 4756SOL     OW15708   1.989   1.628   1.080  0.3646 -0.0193 -0.6056
 4756SOL    HW115709   2.020   1.706   1.128  0.8520 -0.4833 -0.1500
 4756SOL    HW215710   1.909   1.657   1.037 -0.4726  0.2217  1.0496
 4757SOL     OW15711   5.745   4.502   3.124 -0.3748  0.2182  0.1622
 4757SOL    HW115712   5.754   4.568   3.193  1.3430 -1.0135  1.2020
 4757SOL    HW215713   5.827   4.453   3.127 -0.7078 -0.5900 -2.0392
 4758SOL     OW15714   0.185   5.837   4.522  0.2066 -0.3576 -0.4159
 4758SOL    HW115715   0.114   5.889   4.483 -0.2361 -1.0752 -0.5779
 4758SOL    HW215716   0.151   5.748   4.525  0.6761 -0.5227  0.5481
 4759SOL     OW15717   3.878   2.271   6.826 -0.3253  0.4281  0.2546
 4759SOL    HW115718   3.783   2.276   6.811 -0.1314  0.9774 -0.9235
 4759SOL    HW215719   3.887   2.266   6.921 -1.5091  1.2954  0.4367
 4760SOL     OW15720   1.353   5.108   8.094  0.8193 -0.0788  0.1818
 4760SOL    HW115721   1.360   5.026   8.144 -0.3670  0.6562  1.6277
 4760SOL    HW215722   1.269   5.100   8.049  1.4458 -0.3236 -0.9615
 4761SOL     OW15723   1.790   6.091   8.933  0.2938  0.2009  0.2474
 4761SOL    HW115724   1.857   6.082   9.000  0.9820  0.9215 -0.3366
 4761SOL    HW215725   1.708   6.071   8.978  1.0856 -3.5217  0.3661
 4762SOL     OW15726   4.107   6.322   2.326 -0.0403  0.2690  0.0702
 4762SOL    HW115727   4.039   6.258   2.348  1.1554 -0.9688  0.3812
 4762SOL    HW215728   4.117   6.375   2.405 -0.2197  0.0579  0.2365
 4763SOL     OW15729   6.739   3.575   2.030 -0.6703  0.1101  0.0636
 4763SOL    HW115730   6.753   3.628   1.951 -3.7255  1.2034  0.0956
 4763SOL    HW215731   6.770   3.630   2.102 -2.3236  1.2762 -0.0478
 4764SOL     OW15732   0.427   4.731   0.911 -0.0233  0.8167  0.1309
 4764SOL    HW115733   0.348   4.766   0.951 -0.8910  0.4905 -1.2312
 4764SOL    HW215734   0.425   4.638   0.931  0.3727  0.9151  0.6512
 4765SOL     OW15735   3.910   2.186   3.086 -0.4292  0.0710 -0.1205
 4765SOL    HW115736   3.860   2.219   3.160  0.8235 -0.1053  0.8371
 4765SOL    HW215737   3.931   2.096   3.108  0.4093  0.1753 -0.4253
 4766SOL     OW15738   6.640   1.711   8.344  0.1645  0.4230  0.1010
 4766SOL    HW115739   6.578   1.649   8.306  0.8588 -0.3776  0.2274
 4766SOL    HW215740   6.685   1.749   8.268  1.5177 -1.1407  0.0623
 4767SOL     OW15741   2.515   1.565   5.815 -0.1902 -0.3452 -0.9456
 4767SOL    HW115742   2.437   1.615   5.839  1.2719  1.0888  1.2917
 4767SOL    HW215743   2.504   1.481   5.859  0.4810  0.6990  1.4033
 4768SOL     OW15744   2.691   7.529   8.637 -0.6076 -0.3403  0.5616
 4768SOL    HW115745   2.720   7.464   8.700 -0.3809 -2.1434 -1.2931
 4768SOL    HW215746   2.743   7.510   8.558 -1.8325  0.9337 -0.6056
 4769SOL     OW15747   1.140   3.720   2.786 -0.1236 -0.1846 -0.5306
 4769SOL    HW115748   1.103   3.745   2.701 -0.8741  1.5200  0.2446
 4769SOL    HW215749   1.229   3.691   2.766 -0.5297 -0.5147 -1.9757
 4770SOL     OW15750   5.070   1.171   7.235  0.1922 -0.4964  0.8387
 4770SOL    HW115751   5.063   1.177   7.330  2.1042 -1.4544  1.0952
 4770SOL    HW215752   5.146   1.224   7.213  0.1015 -0.7312 -0.0846
 4771SOL     OW15753   5.471   6.806   7.438 -0.4083 -0.5795 -0.4994
 4771SOL    HW115754   5.400   6.835   7.496 -1.2611 -0.9630 -1.3258
 4771SOL    HW215755   5.544   6.863   7.460 -1.0102 -0.0848  0.2852
 4772SOL     OW15756   2.971   1.737   4.008  0.5980  0.4364  0.3678
 4772SOL    HW115757   2.915   1.659   4.007  1.0634  0.0956 -0.4404
 4772SOL    HW215758   2.969   1.766   4.099  0.3656 -0.4987  0.6808
 4773SOL     OW15759   3.100   5.127   8.039  0.2012 -0.1713 -0.4005
 4773SOL    HW115760   3.147   5.210   8.035  0.7310 -0.4119  0.4969
 4773SOL    HW215761   3.007   5.152   8.038  0.3523  0.3879 -0.7707
 4774SOL     OW15762   4.380   6.651   2.135 -0.9191  0.1104 -0.3098
 4774SOL    HW115763   4.465   6.690   2.116 -0.9071  0.1092 -0.2569
 4774SOL    HW215764   4.368   6.585   2.066  0.0721 -1.3701  0.8627
 4775SOL     OW15765   2.387   2.012   6.655 -0.1399  0.6100 -0.1733
 4775SOL    HW115766   2.479   2.024   6.633  0.0381  0.2087  0.3508
 4775SOL    HW215767   2.352   1.958   6.585 -0.2193  1.5831 -0.9080
 4776SOL     OW15768   3.301   6.049   5.920 -0.1802 -0.0272 -0.9416
 4776SOL    HW115769   3.326   6.066   6.010 -0.8239  0.0424 -0.7693
 4776SOL    HW215770   3.359   5.979   5.891  1.3537  1.2545 -1.1114
 4777SOL     OW15771   7.812   5.287   0.249 -0.0397 -0.4399 -0.1400
 4777SOL    HW115772   7.898   5.247   0.263  0.9590  1.5005 -0.3804
 4777SOL    HW215773   7.770   5.230   0.184  2.0905 -0.0781 -1.9704
 4778SOL     OW15774   0.531   3.495   9.959  0.0548 -0.2645  0.4505
 4778SOL    HW115775   0.583   3.503  10.040 -0.6041  0.4359  0.8238
 4778SOL    HW215776   0.596   3.498   9.889  0.5434  0.5592  0.9121
 4779SOL     OW15777   3.906   3.437   1.589 -0.1103  0.0600 -0.0265
 4779SOL    HW115778   3.983   3.434   1.646 -0.7768  1.7275  1.0331
 4779SOL    HW215779   3.932   3.493   1.516  0.4801 -1.4436 -1.0279
 4780SOL     OW15780   4.478   1.283   1.944 -0.5819 -0.2552 -0.0738
 4780SOL    HW115781   4.503   1.191   1.940 -0.2591 -0.2684  1.5292
 4780SOL    HW215782   4.389   1.283   1.979 -0.7889  0.0192 -0.5923
 4781SOL     OW15783   6.303   5.524   3.285 -0.2045  0.5854 -0.7118
 4781SOL    HW115784   6.207   5.523   3.288 -0.2693  2.1165  3.0659
 4781SOL    HW215785   6.327   5.435   3.260 -2.7124 -1.1803  2.3254
 4782SOL     OW15786   4.339   1.001   5.331  0.1049 -0.2694 -0.3924
 4782SOL    HW115787   4.252   1.012   5.292  0.5764  1.6847 -1.0543
 4782SOL    HW215788   4.395   0.978   5.257  0.3574 -0.3267 -0.1844
 4783SOL     OW15789   4.785   6.323   3.117 -0.0810 -0.4658 -0.3548
 4783SOL    HW115790   4.791   6.329   3.212 -1.2083 -1.0609 -0.2258
 4783SOL    HW215791   4.808   6.233   3.097  0.1040 -0.3554 -0.6464
 4784SOL     OW15792   6.140   0.513   0.298  0.3059 -0.2212 -0.5160
 4784SOL    HW115793   6.176   0.599   0.317  1.1608 -0.6959  0.0543
 4784SOL    HW215794   6.216   0.455   0.293 -0.3778 -1.4217  1.6133
 4785SOL     OW15795   1.123   6.217   7.472  0.0596  0.0680 -0.2838
 4785SOL    HW115796   1.130   6.221   7.568 -2.4496  0.2640 -0.0288
 4785SOL    HW215797   1.212   6.204   7.442  0.8357 -0.7140  2.1187
 4786SOL     OW15798   0.330   3.425   8.684  0.0426  0.5344  0.1838
 4786SOL    HW115799   0.250   3.411   8.734  0.8774 -0.8357  1.2024
 4786SOL    HW215800   0.333   3.520   8.669 -0.4357  0.9416  2.4151
 4787SOL     OW15801   1.644   4.293   1.986 -0.3257  0.1807  0.2455
 4787SOL    HW115802   1.581   4.310   2.055  0.3106 -0.6196  1.0465
 4787SOL    HW215803   1.677   4.380   1.962  0.1271  0.4066  1.6127
 4788SOL     OW15804   2.631   1.325   0.702 -0.2489 -0.3995 -0.0806
 4788SOL    HW115805   2.596   1.293   0.786  0.1870  0.5133  0.4523
 4788SOL    HW215806   2.714   1.279   0.692 -0.4578 -0.7617 -0.1840
 4789SOL     OW15807   6.084   5.463   0.531 -0.0714  0.1757 -0.4244
 4789SOL    HW115808   6.046   5.546   0.503  1.2583  0.1849 -2.3249
 4789SOL    HW215809   6.105   5.477   0.624 -0.0140  1.8972 -0.6656
 4790SOL     OW15810   7.315   2.211   1.883  0.9485  0.4559  0.3289
 4790SOL    HW115811   7.265   2.191   1.963 -0.0264  1.0241 -0.1144
 4790SOL    HW215812   7.391   2.153   1.887  0.1140 -0.6474  0.9008
 4791SOL     OW15813   6.934   7.400   7.018  0.0472  0.3073  0.6168
 4791SOL    HW115814   6.936   7.314   6.976 -2.2773  0.6319 -0.2797
 4791SOL    HW215815   6.995   7.454   6.967 -1.3858  0.2040 -1.2854
 4792SOL     OW15816   1.641   2.971   9.280 -0.6532 -0.0696 -0.2301
 4792SOL    HW115817   1.623   2.986   9.188 -0.4048  0.4344 -0.1964
 4792SOL    HW215818   1.648   3.058   9.318 -0.4276 -0.2731  0.2006
 4793SOL     OW15819   5.566   6.154  12.100  0.4372 -0.6459  0.6501
 4793SOL    HW115820   5.594   6.111  12.020  2.0834  0.3258  0.6524
 4793SOL    HW215821   5.473   6.170  12.089  0.3162 -1.9767 -0.3679
 4794SOL     OW15822   7.756   3.957  10.333 -0.2064 -0.8797  0.4610
 4794SOL    HW115823   7.718   3.978  10.247 -0.6537 -1.5160  0.4933
 4794SOL    HW215824   7.700   4.003  10.395 -1.1745 -2.0923  0.5310
 4795SOL     OW15825   2.492   2.336   9.610 -0.2833  0.2176 -0.0437
 4795SOL    HW115826   2.412   2.348   9.558  0.1454 -0.3330 -0.8512
 4795SOL    HW215827   2.466   2.359   9.699 -1.6944 -1.1908 -0.0359
 4796SOL     OW15828   0.795   5.032   5.983 -0.1099 -0.4526  0.5412
 4796SOL    HW115829   0.762   5.062   5.898 -0.1101  1.1580  1.0784
 4796SOL    HW215830   0.717   5.020   6.036 -0.0525 -0.3355  0.6538
 4797SOL     OW15831   2.699   0.343   1.135 -0.1610  0.3712  0.0437
 4797SOL    HW115832   2.697   0.390   1.051  1.1382  0.6061  0.1335
 4797SOL    HW215833   2.722   0.254   1.111  0.1561  0.4257  0.1512
 4798SOL     OW15834   1.749   6.186  12.294  0.0230 -0.4165 -0.1796
 4798SOL    HW115835   1.705   6.116  12.342 -0.1109 -0.4101 -0.2935
 4798SOL    HW215836   1.731   6.167  12.202 -0.7752  0.2730 -0.1752
 4799SOL     OW15837   5.813   3.169   2.665 -0.2766  0.0213  0.0923
 4799SOL    HW115838   5.839   3.258   2.644  0.2784 -0.1032  0.2297
 4799SOL    HW215839   5.722   3.162   2.634 -0.6000  0.8718  0.7981
 4800SOL     OW15840   2.478   5.573   0.899  0.1552 -0.0780 -0.3483
 4800SOL    HW115841   2.393   5.529   0.902 -0.2183  0.6363 -0.2443
 4800SOL    HW215842   2.458   5.662   0.869  0.6915  0.5089  0.9304
 4801SOL     OW15843   4.848   3.242  12.282  0.0452  0.7118 -0.0289
 4801SOL    HW115844   4.887   3.178  12.341 -0.4682 -1.2364 -1.6877
 4801SOL    HW215845   4.914   3.310  12.273  0.9562  0.0211  1.1671
 4802SOL     OW15846   7.604   5.036  10.093  0.7555 -0.3816 -0.0207
 4802SOL    HW115847   7.603   5.113  10.036  0.4344 -0.6590 -0.3867
 4802SOL    HW215848   7.673   5.055  10.157 -0.3185  0.9084  0.8360
 4803SOL     OW15849   0.920   6.955   4.915  0.0962  0.3297  0.2347
 4803SOL    HW115850   1.014   6.965   4.902  0.2766  0.1272  1.2659
 4803SOL    HW215851   0.883   6.955   4.827  1.3294 -2.3287 -0.3752
 4804SOL     OW15852   4.949   7.738   4.544 -0.4258  0.1513  0.3555
 4804SOL    HW115853   4.985   7.822   4.517  0.1113 -0.4232 -0.7882
 4804SOL    HW215854   5.012   7.704   4.607  1.2600 -0.9584 -1.8129
 4805SOL     OW15855   3.626   1.258   3.375 -0.1003 -0.1309  0.1675
 4805SOL    HW115856   3.554   1.215   3.330 -1.0868  0.9288  0.6733
 4805SOL    HW215857   3.613   1.235   3.467  0.1291  0.1836  0.2779
 4806SOL     OW15858   3.732   7.823  10.739 -0.9910 -0.5524  0.4797
 4806SOL    HW115859   3.753   7.894  10.800  1.2909  0.2185 -1.0674
 4806SOL    HW215860   3.765   7.854  10.655 -0.7717 -3.0801 -0.4365
 4807SOL     OW15861   5.910   5.436   2.497 -0.2622 -0.3129  0.1120
 4807SOL    HW115862   5.859   5.507   2.534  0.2554 -0.0635  0.3554
 4807SOL    HW215863   5.969   5.478   2.434  0.2876 -0.4753  0.5093
 4808SOL     OW15864   0.669   7.737  11.805 -0.0731 -0.2544  0.1916
 4808SOL    HW115865   0.661   7.682  11.883 -1.5476  1.2319  1.1483
 4808SOL    HW215866   0.747   7.703  11.760  0.7877 -1.1969  2.2554
 4809SOL     OW15867   4.690   4.624   8.749  0.3999  0.1635 -0.6199
 4809SOL    HW115868   4.654   4.636   8.662 -1.2105 -0.0813 -0.0239
 4809SOL    HW215869   4.754   4.695   8.759 -1.1063  1.6558 -1.1401
 4810SOL     OW15870   4.895   1.392   6.066  0.2475 -0.3326 -0.0486
 4810SOL    HW115871   4.829   1.454   6.036 -0.2732 -1.1174 -0.5552
 4810SOL    HW215872   4.973   1.445   6.083 -0.2615  0.4817 -0.2619
 4811SOL     OW15873   0.322   6.544   4.883  0.3304  0.0235 -0.0856
 4811SOL    HW115874   0.346   6.613   4.944 -0.0692  0.1292 -0.0471
 4811SOL    HW215875   0.259   6.490   4.931  1.0551 -0.6918  0.0828
 4812SOL     OW15876   0.108   4.173   7.338 -0.0356 -0.0285 -0.0079
 4812SOL    HW115877   0.143   4.226   7.410  3.4188 -1.9070 -0.1045
 4812SOL    HW215878   0.081   4.236   7.272 -1.3678  1.6853  2.0488
 4813SOL     OW15879   6.148   7.765   0.615 -0.0230 -0.2891  0.4802
 4813SOL    HW115880   6.124   7.825   0.686 -0.5391 -0.4060  0.4091
 4813SOL    HW215881   6.131   7.678   0.651  0.1514 -0.3681  0.3709
 4814SOL     OW15882   7.922   4.841   5.716 -0.1238 -0.1231  0.4130
 4814SOL    HW115883   7.840   4.856   5.763  0.1538 -2.7011  1.9415
 4814SOL    HW215884   7.894   4.811   5.629 -0.7085  1.4267  0.0408
 4815SOL     OW15885   3.133   6.978   4.356 -0.4581  0.4356 -0.1228
 4815SOL    HW115886   3.149   6.927   4.436 -1.9215 -1.9530 -1.2128
 4815SOL    HW215887   3.078   7.050   4.384  0.0746  0.3444  1.2194
 4816SOL     OW15888   0.797   4.713   4.257  0.1599 -0.6646  0.2374
 4816SOL    HW115889   0.736   4.747   4.192 -1.0530 -0.9591  1.1712
 4816SOL    HW215890   0.870   4.774   4.257 -0.5865  0.2517 -0.2345
 4817SOL     OW15891   2.100   7.158   0.770  0.4224  0.2104  0.5272
 4817SOL    HW115892   2.120   7.204   0.852 -0.0558 -2.6396  2.4122
 4817SOL    HW215893   2.006   7.175   0.756  0.2368 -0.1576  1.2299
 4818SOL     OW15894   5.933   5.726   0.951 -0.0174 -0.6014 -0.5201
 4818SOL    HW115895   5.959   5.812   0.916  0.6576 -0.8501 -0.6494
 4818SOL    HW215896   5.906   5.745   1.041 -0.5085 -0.1569 -0.7541
 4819SOL     OW15897   7.262   3.740   8.049 -0.2171  0.1433  0.2383
 4819SOL    HW115898   7.282   3.814   8.107 -2.8000  0.8530  0.3596
 4819SOL    HW215899   7.304   3.762   7.966  2.1564 -0.1074  1.2721
 4820SOL     OW15900   3.209   7.958   8.047 -0.0769 -0.1594  0.3187
 4820SOL    HW115901   3.266   8.035   8.057 -0.5668  0.9684 -3.7652
 4820SOL    HW215902   3.266   7.890   8.012 -0.1157 -1.0341  1.8545
 4821SOL     OW15903   6.260   7.321   6.483  0.0218 -0.3856 -0.1159
 4821SOL    HW115904   6.272   7.322   6.389  0.9385  1.6985 -0.0295
 4821SOL    HW215905   6.167   7.302   6.495  0.0296 -1.3478 -1.3872
 4822SOL     OW15906   0.382   4.815  10.778  0.3734 -0.0810 -0.2023
 4822SOL    HW115907   0.419   4.730  10.753  0.2709  0.2124 -1.4249
 4822SOL    HW215908   0.355   4.804  10.869  0.0144 -1.4775 -0.4553
 4823SOL     OW15909   4.307   3.219   7.798  0.3596 -0.2600 -0.5956
 4823SOL    HW115910   4.273   3.207   7.887  0.8583  2.3591  0.0633
 4823SOL    HW215911   4.402   3.211   7.808  0.2973 -3.2491 -1.6034
 4824SOL     OW15912   0.086   4.623  11.121 -0.3378 -0.2281  0.1218
 4824SOL    HW115913   0.035   4.660  11.049 -0.5450  0.4423  0.6018
 4824SOL    HW215914   0.170   4.598  11.082 -0.7655 -0.6755 -0.5258
 4825SOL     OW15915   6.587   7.101   8.133 -0.3121  0.6096  0.0762
 4825SOL    HW115916   6.559   7.122   8.222 -1.1939  3.2496 -0.7137
 4825SOL    HW215917   6.651   7.030   8.143  0.4944  1.6050  2.9148
 4826SOL     OW15918   5.094   7.026   3.759 -0.1781 -0.6030  0.1967
 4826SOL    HW115919   5.065   7.050   3.671  1.1015 -0.2370 -0.1390
 4826SOL    HW215920   5.105   7.110   3.804 -0.1049 -0.7640  0.4842
 4827SOL     OW15921   0.816   1.670   5.227 -0.0363 -0.3188 -0.5519
 4827SOL    HW115922   0.873   1.684   5.151  1.6014 -0.8422  0.5313
 4827SOL    HW215923   0.864   1.709   5.300 -1.1214 -0.7005  0.3840
 4828SOL     OW15924   2.562   5.321   4.731 -0.0704  0.2398  0.0342
 4828SOL    HW115925   2.594   5.287   4.814 -1.9182 -0.8281  0.3921
 4828SOL    HW215926   2.466   5.315   4.738 -0.3544 -2.7946 -3.2041
 4829SOL     OW15927   1.405   5.972   4.309  0.0873  0.2997 -0.0156
 4829SOL    HW115928   1.474   5.929   4.258 -1.2124 -1.4683 -0.3917
 4829SOL    HW215929   1.451   6.035   4.364  1.8387  0.1730 -1.2683
 4830SOL     OW15930   4.918   5.365   6.782 -0.4462  0.1934 -0.0353
 4830SOL    HW115931   4.828   5.334   6.779 -1.3647  2.7227 -1.4722
 4830SOL    HW215932   4.954   5.345   6.695 -0.1100  0.5554  0.0172
 4831SOL     OW15933   4.547   2.364   7.197 -0.0281  0.1787  0.3414
 4831SOL    HW115934   4.582   2.435   7.142  1.3128  1.3925  2.5946
 4831SOL    HW215935   4.598   2.287   7.171 -0.5795  0.2997 -1.2214
 4832SOL     OW15936   2.683   0.305   3.837  0.4483  0.5696  0.4157
 4832SOL    HW115937   2.750   0.245   3.870  0.9395  0.7786 -0.1650
 4832SOL    HW215938   2.721   0.340   3.756 -0.4882  0.4876 -0.0627
 4833SOL     OW15939   0.755   4.276   4.483  0.4242  0.4781  0.3584
 4833SOL    HW115940   0.803   4.215   4.540  2.5999 -1.7966 -3.3971
 4833SOL    HW215941   0.668   4.238   4.475  0.9546 -0.7215  0.0848
 4834SOL     OW15942   1.433   5.768   9.776  0.5750 -0.5090 -0.1718
 4834SOL    HW115943   1.416   5.770   9.870 -1.1706  3.7252 -0.3756
 4834SOL    HW215944   1.518   5.811   9.765  0.1129  0.3232 -0.5779
 4835SOL     OW15945   7.157   2.760  11.007  0.4690 -0.5104  0.4705
 4835SOL    HW115946   7.222   2.739  10.940  0.3530  0.4705  0.0215
 4835SOL    HW215947   7.197   2.831  11.057  0.0998 -0.4963  0.7476
 4836SOL     OW15948   6.949   4.078   5.290  0.1672 -0.7482 -0.1067
 4836SOL    HW115949   6.976   4.044   5.205  0.3688 -1.7354  0.3427
 4836SOL    HW215950   6.893   4.010   5.326 -1.6691  0.5892 -0.3447
 4837SOL     OW15951   2.262   0.228   5.933  0.4809 -0.2621  0.2228
 4837SOL    HW115952   2.211   0.293   5.885  1.3212  0.3880  0.2075
 4837SOL    HW215953   2.341   0.274   5.961  1.8668 -1.6815 -1.1611
 4838SOL     OW15954   2.491   2.050   4.518 -0.3951  0.3590 -0.2077
 4838SOL    HW115955   2.426   1.984   4.540  0.5086 -0.2302  0.7633
 4838SOL    HW215956   2.487   2.056   4.422 -0.9723 -0.5886 -0.2594
 4839SOL     OW15957   0.582   3.090   9.647 -0.1386 -0.6824 -0.4347
 4839SOL    HW115958   0.665   3.059   9.684 -0.5097 -1.7661 -0.4670
 4839SOL    HW215959   0.516   3.030   9.682 -1.0365  0.6382  0.2304
 4840SOL     OW15960   1.259   7.210  11.369 -0.0874 -0.3805  0.0862
 4840SOL    HW115961   1.222   7.249  11.449  1.1371  2.9669 -0.8416
 4840SOL    HW215962   1.182   7.179  11.321 -1.0355 -0.3450  1.4938
 4841SOL     OW15963   7.770   1.591   6.313 -0.0093 -0.2189 -0.4767
 4841SOL    HW115964   7.725   1.574   6.396  1.6756  1.1003  0.7662
 4841SOL    HW215965   7.706   1.639   6.261 -0.3477  0.9680  0.9692
 4842SOL     OW15966   5.040   3.402   2.377 -0.0821 -0.0796 -0.3768
 4842SOL    HW115967   5.069   3.484   2.416  1.2737 -0.0259 -1.4069
 4842SOL    HW215968   5.115   3.343   2.387 -0.4502 -0.6819 -1.0638
 4843SOL     OW15969   6.135   2.890   5.613  0.3079  0.1670 -0.0812
 4843SOL    HW115970   6.080   2.834   5.668 -0.4987  1.0104  0.0062
 4843SOL    HW215971   6.206   2.833   5.583 -1.5314 -1.4519 -1.6128
 4844SOL     OW15972   1.352   0.174   7.669 -0.1133  0.5748 -0.4205
 4844SOL    HW115973   1.411   0.187   7.595 -1.5492  2.0321 -1.3795
 4844SOL    HW215974   1.308   0.259   7.679  0.4806  0.6594  2.5341
 4845SOL     OW15975   2.667   6.046   1.308  0.1738 -0.8091  0.0200
 4845SOL    HW115976   2.622   6.019   1.228 -0.5393 -1.0425  0.4873
 4845SOL    HW215977   2.654   5.972   1.369 -2.7343  0.8718  1.7018
 4846SOL     OW15978   2.367   6.145  12.063  0.4763 -0.7145  0.3016
 4846SOL    HW115979   2.340   6.085  12.132  0.4566 -0.4489  0.5283
 4846SOL    HW215980   2.285   6.177  12.026  0.4498  0.4992  1.3467
 4847SOL     OW15981   7.431   0.563   4.378 -0.2022  0.0825  0.3798
 4847SOL    HW115982   7.336   0.567   4.367 -0.2293 -1.1225 -0.0132
 4847SOL    HW215983   7.444   0.563   4.473 -0.5626  0.8086  0.4307
 4848SOL     OW15984   5.180   3.467   0.503  0.1014  0.1319 -0.0760
 4848SOL    HW115985   5.259   3.460   0.557  0.3457 -2.1531 -0.6379
 4848SOL    HW215986   5.201   3.535   0.438  1.2344  0.2148  0.3624
 4849SOL     OW15987   6.718   4.888   0.516  0.3879  0.1729  0.2015
 4849SOL    HW115988   6.733   4.870   0.423  1.2290 -0.2730  0.4181
 4849SOL    HW215989   6.651   4.957   0.516 -0.8003 -0.9399 -0.6927
 4850SOL     OW15990   1.294   3.668   7.232 -0.4252  0.0101 -0.4797
 4850SOL    HW115991   1.351   3.599   7.198 -0.2684  0.2444 -0.7031
 4850SOL    HW215992   1.246   3.627   7.304 -1.0367 -0.6125 -1.2244
 4851SOL     OW15993   0.982   3.564   9.263  0.2780  0.1047 -0.2384
 4851SOL    HW115994   0.904   3.612   9.236  1.0973  1.9848  0.5899
 4851SOL    HW215995   1.047   3.585   9.197  0.1747 -1.3022 -0.8192
 4852SOL     OW15996   1.251   3.896  10.980 -0.1226  0.7194  0.1913
 4852SOL    HW115997   1.256   3.991  10.969  0.8108  0.7605  0.9184
 4852SOL    HW215998   1.164   3.873  10.945  0.3272  1.5933 -1.6025
 4853SOL     OW15999   0.528   7.440   2.817  0.3066 -0.4323  0.3642
 4853SOL    HW116000   0.597   7.435   2.751  1.8173 -0.8068  1.9051
 4853SOL    HW216001   0.518   7.350   2.849  0.7291 -0.0274  1.7185
 4854SOL     OW16002   4.034   7.373   5.505  0.6919  0.5966 -0.0748
 4854SOL    HW116003   4.072   7.458   5.526  2.0578 -0.0204  0.0548
 4854SOL    HW216004   4.090   7.338   5.435 -1.5519  1.0152 -2.2247
 4855SOL     OW16005   5.968   0.995   6.051  0.0405 -0.4245  0.4466
 4855SOL    HW116006   5.917   1.017   6.130  0.2539 -1.6711  0.9578
 4855SOL    HW216007   5.963   0.900   6.046 -0.3098 -0.3383 -1.3002
 4856SOL     OW16008   0.980   4.910  10.295 -0.2020 -0.1421  0.4409
 4856SOL    HW116009   1.031   4.935  10.218 -1.9022  1.5439 -0.2386
 4856SOL    HW216010   1.025   4.950  10.369 -0.0677  0.5994 -0.0329
 4857SOL     OW16011   7.559   2.467   7.203  0.5753 -0.4880 -0.2964
 4857SOL    HW116012   7.529   2.459   7.112  0.0521  0.9722 -0.2944
 4857SOL    HW216013   7.521   2.550   7.233  2.0237 -0.1710  0.7643
 4858SOL     OW16014   3.764   2.295   0.843 -0.7187  0.3337 -0.1801
 4858SOL    HW116015   3.754   2.226   0.910  1.7844  0.2480  0.2153
 4858SOL    HW216016   3.772   2.376   0.894 -1.5650  0.6434 -0.5369
 4859SOL     OW16017   1.004   0.883   3.604 -0.0352  0.0656 -0.4964
 4859SOL    HW116018   1.091   0.873   3.566 -0.0891 -0.2911 -0.5286
 4859SOL    HW216019   0.945   0.847   3.539 -0.1903  0.1122 -0.3820
 4860SOL     OW16020   7.753   5.714  11.610 -0.5447 -0.8105 -0.0728
 4860SOL    HW116021   7.803   5.695  11.530 -1.0015  0.1022 -0.5907
 4860SOL    HW216022   7.791   5.656  11.676 -0.1018 -1.5197 -0.9261
 4861SOL     OW16023   6.940   3.673   4.335 -0.3055  0.2560 -0.0690
 4861SOL    HW116024   6.904   3.756   4.364  0.0270  0.1203  0.7725
 4861SOL    HW216025   6.881   3.644   4.266 -2.3240 -0.3344  1.7895
 4862SOL     OW16026   6.980   0.721   3.810  0.1099 -0.5706  0.1555
 4862SOL    HW116027   6.887   0.697   3.800 -0.2758  1.1558 -0.7313
 4862SOL    HW216028   6.988   0.745   3.902 -0.0345 -1.8014  0.5098
 4863SOL     OW16029   1.061   7.619   7.823 -0.2457 -0.7073 -0.1643
 4863SOL    HW116030   1.089   7.615   7.915 -0.0161  0.9794 -0.1265
 4863SOL    HW216031   1.127   7.674   7.781 -2.1347  1.3799 -0.5947
 4864SOL     OW16032   2.147   6.511  11.619  0.0893  0.1001  0.5546
 4864SOL    HW116033   2.140   6.568  11.542 -1.0428 -0.6408  0.0801
 4864SOL    HW216034   2.161   6.571  11.692 -3.3476  1.3080  0.4223
 4865SOL     OW16035   2.233   5.074   1.873 -0.4730  0.3325  0.3327
 4865SOL    HW116036   2.183   5.144   1.829  0.1823  0.8502  0.3987
 4865SOL    HW216037   2.236   5.101   1.965  1.3339  1.1747  0.0628
 4866SOL     OW16038   6.692   7.595  11.239  0.0059 -0.1013  0.2031
 4866SOL    HW116039   6.626   7.655  11.205 -0.8676 -0.7096  0.7853
 4866SOL    HW216040   6.735   7.560  11.161 -1.4549 -0.9097 -0.2689
 4867SOL     OW16041   1.299   3.598   4.799 -0.4851 -0.4565  0.2159
 4867SOL    HW116042   1.307   3.646   4.717  0.1372  1.1945  1.1936
 4867SOL    HW216043   1.281   3.508   4.773  0.9587 -0.2288 -1.7571
 4868SOL     OW16044   6.623   3.435   8.863  0.7395  0.4693 -0.2183
 4868SOL    HW116045   6.584   3.522   8.874  0.0829  0.1993 -0.3575
 4868SOL    HW216046   6.567   3.392   8.798 -1.3813 -1.4707  2.6287
 4869SOL     OW16047   3.906   3.321   0.320 -0.0807  0.1142 -0.2449
 4869SOL    HW116048   3.822   3.358   0.348 -0.4388 -1.1647  0.4363
 4869SOL    HW216049   3.944   3.283   0.400  0.7726 -0.0459 -0.7084
 4870SOL     OW16050   5.598   1.644   5.103 -0.0107  0.3777  0.7734
 4870SOL    HW116051   5.552   1.607   5.178 -0.5319  1.7700  1.1709
 4870SOL    HW216052   5.552   1.609   5.027  0.5576 -1.0887  1.0647
 4871SOL     OW16053   6.120   1.532   5.639 -0.7924 -0.0314  0.0169
 4871SOL    HW116054   6.067   1.603   5.674 -2.5633  0.5854 -3.4726
 4871SOL    HW216055   6.074   1.452   5.663 -1.8454  0.3506 -0.6947
 4872SOL     OW16056   5.032   2.203  10.072 -0.2105 -0.7940  0.0852
 4872SOL    HW116057   5.065   2.221   9.984  0.5898 -0.4013  0.4572
 4872SOL    HW216058   4.990   2.284  10.099 -0.4493 -0.9123  0.0766
 4873SOL     OW16059   5.347   0.034  10.386  0.6388 -0.4599 -0.4199
 4873SOL    HW116060   5.287   0.029  10.312 -1.9698  1.5561  1.3798
 4873SOL    HW216061   5.357  -0.057  10.415 -2.2869 -0.8519 -0.3181
 4874SOL     OW16062   4.358   1.903   1.549  0.3564  0.5013 -0.4464
 4874SOL    HW116063   4.309   1.985   1.554 -1.0641 -0.3041 -0.7757
 4874SOL    HW216064   4.292   1.834   1.559  1.6319 -0.6160  0.6773
 4875SOL     OW16065   2.265   2.111   7.648  0.1778 -0.0288  0.4492
 4875SOL    HW116066   2.185   2.157   7.675  0.5695  0.6705  0.4579
 4875SOL    HW216067   2.333   2.179   7.651  0.8662 -0.7309  0.9095
 4876SOL     OW16068   3.749   7.912   4.691  0.1917 -0.6196  0.2724
 4876SOL    HW116069   3.716   7.836   4.644 -0.3489 -0.6495  0.6888
 4876SOL    HW216070   3.677   7.938   4.749  0.7089 -0.3564  0.8081
 4877SOL     OW16071   7.556   3.312   1.670  0.3678 -0.0715 -0.4986
 4877SOL    HW116072   7.514   3.256   1.606 -0.2193  0.0487 -0.2239
 4877SOL    HW216073   7.621   3.361   1.620  0.8205 -0.9173 -0.7576
 4878SOL     OW16074   4.773   2.127   0.490  0.0382 -0.3322 -0.7704
 4878SOL    HW116075   4.853   2.127   0.542  0.1564  0.3639 -0.9414
 4878SOL    HW216076   4.798   2.091   0.406  0.1519 -0.2073 -0.7901
 4879SOL     OW16077   3.283   5.641   0.304 -0.5123 -0.4275 -0.3292
 4879SOL    HW116078   3.332   5.624   0.224 -1.1258 -0.7701 -0.6388
 4879SOL    HW216079   3.347   5.629   0.374  0.5209  1.7847 -0.8376
 4880SOL     OW16080   0.955   6.724   1.344  0.1718  0.1268 -0.0235
 4880SOL    HW116081   0.991   6.811   1.360 -1.0482  0.4717  1.0188
 4880SOL    HW216082   0.963   6.678   1.427  0.7266 -0.7539 -0.5392
 4881SOL     OW16083   3.888   4.593   1.694  0.0567  0.2466 -0.2020
 4881SOL    HW116084   3.911   4.675   1.650  1.0400  0.2166  0.2200
 4881SOL    HW216085   3.973   4.551   1.712 -0.4435 -1.0632 -0.7906
 4882SOL     OW16086   4.426   3.283  12.458  0.5289  0.1599  0.5729
 4882SOL    HW116087   4.475   3.203  12.437  1.5322  0.7288  0.6952
 4882SOL    HW216088   4.468   3.317  12.536  0.4755  1.1101  0.2032
 4883SOL     OW16089   3.170   0.821   1.066  0.1931  0.4773  0.4776
 4883SOL    HW116090   3.213   0.893   1.019 -0.5668  1.0273  0.6079
 4883SOL    HW216091   3.242   0.772   1.106  0.7544  0.8441 -0.0567
 4884SOL     OW16092   3.571   3.749   9.772  0.5024 -0.0917  0.4402
 4884SOL    HW116093   3.653   3.774   9.815  0.0804  0.4281  0.9700
 4884SOL    HW216094   3.551   3.662   9.805  2.0233 -1.2397 -1.4673
 4885SOL     OW16095   1.964   4.078   3.916 -0.4513 -0.5833  0.0933
 4885SOL    HW116096   1.950   4.018   3.843 -1.7329 -1.0209  0.6685
 4885SOL    HW216097   1.991   4.160   3.875  2.1197 -1.7285 -0.6606
 4886SOL     OW16098   2.268   4.202  11.919  0.1763 -0.3461  0.2924
 4886SOL    HW116099   2.265   4.292  11.949 -1.6715 -0.6731  1.2086
 4886SOL    HW216100   2.299   4.208  11.828  1.6081  1.0343  0.8237
 4887SOL     OW16101   1.247   7.755   6.356  0.4512 -0.0961 -0.1196
 4887SOL    HW116102   1.316   7.789   6.412  0.8003  0.0793 -0.6530
 4887SOL    HW216103   1.291   7.695   6.296 -0.0445 -0.9305  0.3259
 4888SOL     OW16104   3.290   0.661   5.229  0.2014 -0.1194  0.1037
 4888SOL    HW116105   3.265   0.752   5.245  0.6682  0.0913 -0.3453
 4888SOL    HW216106   3.211   0.621   5.192  1.1333  1.1600 -3.6801
 4889SOL     OW16107   6.449   0.198   6.998  0.0876 -0.5008 -0.0751
 4889SOL    HW116108   6.391   0.272   6.978 -0.4010 -1.2830 -1.7319
 4889SOL    HW216109   6.484   0.171   6.913 -1.5027 -3.5617  0.1032
 4890SOL     OW16110   2.058   0.986   4.896  0.4220 -0.2921  0.6593
 4890SOL    HW116111   2.045   0.891   4.893 -0.8653 -0.1017 -1.5759
 4890SOL    HW216112   2.146   0.999   4.862 -0.0728 -0.6186 -0.8167
 4891SOL     OW16113   2.841   0.429   4.893 -0.4856  0.1544 -0.1209
 4891SOL    HW116114   2.916   0.488   4.885 -0.5622  0.4172  0.9813
 4891SOL    HW216115   2.830   0.392   4.805  0.5442  0.5843 -0.4426
 4892SOL     OW16116   1.044   1.043   2.694 -0.0173  0.3828  0.0170
 4892SOL    HW116117   1.124   0.990   2.700 -1.3679 -1.7194  0.3806
 4892SOL    HW216118   1.056   1.110   2.761  0.1190 -1.8641  2.4313
 4893SOL     OW16119   5.241   2.530  11.379 -0.2119 -0.1627 -0.0631
 4893SOL    HW116120   5.334   2.522  11.396 -0.4652 -1.2894  0.9827
 4893SOL    HW216121   5.225   2.624  11.372  0.8051  0.1023  0.9499
 4894SOL     OW16122   3.992   3.823  11.350  0.2533  0.0257 -0.6555
 4894SOL    HW116123   4.029   3.859  11.270 -0.3048 -1.3475 -1.5674
 4894SOL    HW216124   3.902   3.802  11.327  0.1922 -0.7199  0.2144
 4895SOL     OW16125   6.523   0.641   1.487  0.6967  0.4074 -0.2327
 4895SOL    HW116126   6.436   0.634   1.448  0.2595 -0.7074  0.8818
 4895SOL    HW216127   6.566   0.559   1.464  1.5752  1.0671 -1.0110
 4896SOL     OW16128   5.130   4.494   2.236  1.0263  0.3503 -0.1531
 4896SOL    HW116129   5.098   4.432   2.301  0.3357  0.0707 -0.7456
 4896SOL    HW216130   5.114   4.451   2.152  0.3007  1.4193 -0.5853
 4897SOL     OW16131   6.572   5.778   7.483 -0.5557  0.2738 -0.2896
 4897SOL    HW116132   6.485   5.813   7.460 -0.6445 -0.2809 -0.8229
 4897SOL    HW216133   6.553   5.693   7.521 -0.2534  0.2509 -0.1929
 4898SOL     OW16134   2.763   6.469   8.564  0.0919  0.3852 -0.0671
 4898SOL    HW116135   2.780   6.383   8.602 -1.5035 -0.1351 -0.4494
 4898SOL    HW216136   2.825   6.476   8.491  0.8343 -0.0493  0.5125
 4899SOL     OW16137   2.560   1.879   0.029 -0.2425 -0.0412 -0.1798
 4899SOL    HW116138   2.531   1.910   0.114  0.0968  0.9389 -0.4111
 4899SOL    HW216139   2.480   1.850  -0.015 -0.4025 -0.6496  0.5026
 4900SOL     OW16140   5.609   2.436   0.988 -0.3395 -0.5658  0.6499
 4900SOL    HW116141   5.592   2.455   0.895 -1.8411 -0.8472  0.8480
 4900SOL    HW216142   5.616   2.341   0.992  0.8551 -0.4949  0.6703
 4901SOL     OW16143   7.925   7.293   6.906  0.4862 -0.2506  0.8716
 4901SOL    HW116144   7.878   7.215   6.935 -0.9846  0.7694  1.3201
 4901SOL    HW216145   7.918   7.354   6.980 -1.3108  1.5428 -0.6748
 4902SOL     OW16146   0.217   1.554   5.213 -0.1677  0.0206 -0.0923
 4902SOL    HW116147   0.136   1.605   5.206  0.4903  1.6446  2.5840
 4902SOL    HW216148   0.281   1.605   5.164 -0.4481 -0.6200 -1.1609
 4903SOL     OW16149   4.375   0.363  10.306  0.1500 -0.0387  0.0689
 4903SOL    HW116150   4.330   0.297  10.360  0.6619 -0.9941 -0.6422
 4903SOL    HW216151   4.323   0.368  10.226  0.4557 -0.0209 -0.1279
 4904SOL     OW16152   2.197   7.894   8.283 -0.0957 -0.5460 -0.0331
 4904SOL    HW116153   2.265   7.957   8.257 -0.5916  0.5764  1.2916
 4904SOL    HW216154   2.234   7.809   8.260  1.1923  0.1184 -0.5654
 4905SOL     OW16155   1.359   7.339   8.362 -0.5129  0.2363 -0.1037
 4905SOL    HW116156   1.454   7.331   8.363 -0.5158  0.2417  0.4314
 4905SOL    HW216157   1.335   7.334   8.269 -0.1977 -2.0961 -0.1150
 4906SOL     OW16158   0.096   3.702   2.713  0.2030  0.0397 -0.0090
 4906SOL    HW116159   0.015   3.739   2.748  0.2021  0.3209 -0.3034
 4906SOL    HW216160   0.118   3.758   2.638  0.6699 -0.0326  0.0699
 4907SOL     OW16161   3.787   1.523  12.255  0.0588 -0.1592  0.9609
 4907SOL    HW116162   3.710   1.562  12.295 -0.2578 -0.4451  0.6403
 4907SOL    HW216163   3.760   1.504  12.165  1.8276  3.8678 -0.6735
 4908SOL     OW16164   7.611   5.536   4.937 -0.0061  0.0062  0.2594
 4908SOL    HW116165   7.694   5.563   4.899 -1.1485  0.8872 -1.7450
 4908SOL    HW216166   7.564   5.492   4.866 -1.0120 -1.0784  1.5277
 4909SOL     OW16167   1.993   6.391   2.622 -0.3472  0.5475 -0.2402
 4909SOL    HW116168   1.930   6.443   2.572  0.2187  1.2838 -0.2054
 4909SOL    HW216169   2.066   6.451   2.639  0.1179 -0.1249  0.2026
 4910SOL     OW16170   6.074   6.427   1.913 -0.2673  0.2333  0.1179
 4910SOL    HW116171   6.055   6.396   2.002  2.2860 -0.0400  0.6470
 4910SOL    HW216172   5.997   6.401   1.862 -0.8707 -1.5587  1.7961
 4911SOL     OW16173   5.406   4.407   7.209 -0.4304  0.0183  0.9218
 4911SOL    HW116174   5.392   4.397   7.303 -1.4360 -0.8484  0.7037
 4911SOL    HW216175   5.415   4.501   7.196  1.1528  0.0653  2.0573
 4912SOL     OW16176   4.588   6.334   5.642 -0.1491  0.7010 -0.2245
 4912SOL    HW116177   4.581   6.260   5.581  1.6423  0.4004 -0.1142
 4912SOL    HW216178   4.547   6.304   5.722  0.1461 -0.0066 -0.3343
 4913SOL     OW16179   3.630   4.326  11.246  0.2347  0.6295  0.6428
 4913SOL    HW116180   3.697   4.301  11.182 -1.4448  0.1316 -1.0332
 4913SOL    HW216181   3.547   4.312  11.200 -1.0916 -0.1173  3.0900
 4914SOL     OW16182   2.935   0.318   7.060  0.3292  0.6720 -0.0269
 4914SOL    HW116183   2.897   0.366   6.987  0.7331  0.7974 -0.1610
 4914SOL    HW216184   2.878   0.242   7.071 -0.9971  1.7750  0.9498
 4915SOL     OW16185   1.795   5.647   2.233  0.2416  0.0127 -0.0028
 4915SOL    HW116186   1.884   5.661   2.267 -0.1463  2.1721  0.2629
 4915SOL    HW216187   1.779   5.554   2.248  1.3444  0.1532  2.7263
 4916SOL     OW16188   2.629   3.385   4.837 -0.6731 -0.0148  0.0874
 4916SOL    HW116189   2.714   3.340   4.839 -1.0108 -0.8249 -1.7265
 4916SOL    HW216190   2.648   3.473   4.869  0.6743 -0.4305  0.5133
 4917SOL     OW16191   0.503   1.041   8.956  0.1484  0.1230  0.3367
 4917SOL    HW116192   0.439   0.970   8.968 -0.8459  1.0993  0.9524
 4917SOL    HW216193   0.578   1.015   9.010 -0.5439 -0.0598  1.2344
 4918SOL     OW16194   5.653   6.295   3.591  0.2664 -0.3488  0.3066
 4918SOL    HW116195   5.732   6.299   3.538 -0.5491  1.8748 -0.8740
 4918SOL    HW216196   5.665   6.217   3.646  1.7408 -2.0218 -2.1746
 4919SOL     OW16197   7.030   6.041   9.369 -0.1979  0.3359  0.2046
 4919SOL    HW116198   6.951   6.031   9.423 -0.6571  1.8712 -0.1222
 4919SOL    HW216199   7.025   5.968   9.306 -0.7271 -0.2754  0.9366
 4920SOL     OW16200   2.670   1.376   4.498  0.2726 -0.2183  0.1278
 4920SOL    HW116201   2.675   1.455   4.552  1.0761 -0.1839  0.0184
 4920SOL    HW216202   2.704   1.306   4.555  2.0677 -0.0087 -0.6268
 4921SOL     OW16203   2.712   2.470   2.203  0.2501  0.1157 -0.0269
 4921SOL    HW116204   2.681   2.390   2.160  2.2769 -0.3177 -0.8231
 4921SOL    HW216205   2.707   2.537   2.136  1.0776  0.0064 -0.2169
 4922SOL     OW16206   4.938   4.975  10.204  0.6516 -0.1288 -0.2089
 4922SOL    HW116207   4.889   5.009  10.279  1.1603 -0.5516  0.3210
 4922SOL    HW216208   5.002   5.044  10.184  1.3929 -0.5717  0.5889
 4923SOL     OW16209   4.589   1.906  10.581  0.2139  0.0115 -0.1625
 4923SOL    HW116210   4.504   1.873  10.556  0.6466  0.8398 -3.1238
 4923SOL    HW216211   4.570   1.977  10.642 -1.1715 -0.2222 -0.2920
 4924SOL     OW16212   7.117   2.917   3.791 -0.1945 -0.5715 -0.3630
 4924SOL    HW116213   7.212   2.921   3.783 -0.1835 -0.5062 -0.2086
 4924SOL    HW216214   7.094   2.995   3.841 -0.4023 -0.1940 -1.0356
 4925SOL     OW16215   2.707   2.419   7.751  0.2500 -0.3451  0.4113
 4925SOL    HW116216   2.701   2.507   7.714 -2.1804 -0.6968 -0.2342
 4925SOL    HW216217   2.779   2.378   7.703 -1.0313  0.1030 -2.0754
 4926SOL     OW16218   7.926   5.371   2.443  0.6809 -0.2397  0.1494
 4926SOL    HW116219   7.934   5.444   2.504 -1.5801 -1.3480  1.9417
 4926SOL    HW216220   7.871   5.404   2.372  1.3829  0.3729 -0.1218
 4927SOL     OW16221   6.917   6.266   4.015  0.2106  0.0093  0.3900
 4927SOL    HW116222   6.905   6.192   4.074 -0.4740 -0.4002 -0.2521
 4927SOL    HW216223   6.933   6.341   4.073  1.4912 -0.7225  1.0325
 4928SOL     OW16224   5.908   3.423   2.626  0.0009 -0.6621 -0.0668
 4928SOL    HW116225   5.888   3.517   2.632 -0.2595 -0.5975 -1.5250
 4928SOL    HW216226   5.993   3.414   2.668 -0.4529  0.0330  1.0669
 4929SOL     OW16227   4.761   0.592  10.027 -0.4504 -0.0723  0.5168
 4929SOL    HW116228   4.763   0.682   9.995 -0.8634  0.2025  1.2148
 4929SOL    HW216229   4.852   0.563  10.025 -0.1030  0.8531  1.5902
 4930SOL     OW16230   6.694   3.930   0.623 -0.3532  0.2580  0.6061
 4930SOL    HW116231   6.693   3.844   0.581 -0.4611  0.7196 -0.3859
 4930SOL    HW216232   6.605   3.964   0.609  0.0848  1.0965 -0.2832
 4931SOL     OW16233   0.079   7.382   1.122  0.0424 -0.0631  0.2836
 4931SOL    HW116234   0.043   7.470   1.112  1.2436  0.3203 -1.0211
 4931SOL    HW216235   0.041   7.332   1.049 -0.9895 -0.7923  1.2738
 4932SOL     OW16236   1.181   0.200   3.322  0.0399 -0.3795  0.5385
 4932SOL    HW116237   1.127   0.279   3.327 -1.0449 -0.9086 -1.6760
 4932SOL    HW216238   1.265   0.231   3.289  0.0314  0.0008  0.8623
 4933SOL     OW16239   1.672   3.612  10.625  0.2923  0.3767 -0.2156
 4933SOL    HW116240   1.708   3.638  10.540  1.3897  1.1643  0.4691
 4933SOL    HW216241   1.743   3.628  10.687 -0.5847  0.0645  0.8932
 4934SOL     OW16242   2.677   1.452   9.290  0.2170  0.4123  0.1782
 4934SOL    HW116243   2.732   1.484   9.217  2.2974 -1.2400  0.9251
 4934SOL    HW216244   2.704   1.506   9.365  0.5411 -0.1479  0.4650
 4935SOL     OW16245   4.593   1.984   3.666 -0.3368  0.1086  0.1373
 4935SOL    HW116246   4.685   1.971   3.642  0.1429  3.1123  0.0048
 4935SOL    HW216247   4.574   2.074   3.641 -3.1053 -0.1628  0.9449
 4936SOL     OW16248   3.457   1.782   4.991 -0.0067  0.1024 -0.2099
 4936SOL    HW116249   3.545   1.808   4.965 -0.0265 -0.0308 -0.4143
 4936SOL    HW216250   3.444   1.823   5.077  0.8418 -1.1392  0.5419
 4937SOL     OW16251   6.105   5.745   4.451  0.1406  0.2808 -0.3315
 4937SOL    HW116252   6.120   5.752   4.357  1.5274  1.2893 -0.0671
 4937SOL    HW216253   6.018   5.704   4.459  0.0538  0.0782 -2.0275
 4938SOL     OW16254   7.575   1.787   5.640  0.2496 -0.5665  0.8096
 4938SOL    HW116255   7.520   1.708   5.640 -0.5542 -0.2267 -2.9632
 4938SOL    HW216256   7.660   1.757   5.607  0.6018 -0.1677  1.3402
 4939SOL     OW16257   4.790   4.301  10.792  0.3269 -0.0052  0.1079
 4939SOL    HW116258   4.806   4.206  10.792  2.0926  0.2599 -0.4640
 4939SOL    HW216259   4.732   4.315  10.717 -3.2210 -1.0293  2.3818
 4940SOL     OW16260   6.690   6.308   0.206  0.3349 -0.2023 -0.0719
 4940SOL    HW116261   6.669   6.218   0.184  0.1068 -0.2432  0.2950
 4940SOL    HW216262   6.698   6.308   0.302  0.2350  0.1840 -0.0613
 4941SOL     OW16263   2.496   4.720   5.290 -0.0475 -0.1293  0.5851
 4941SOL    HW116264   2.407   4.684   5.300 -0.2268 -0.2375 -1.1231
 4941SOL    HW216265   2.497   4.755   5.201  1.0690  1.4995  1.1964
 4942SOL     OW16266   1.704   2.926  11.795  0.0828  0.2466 -0.0206
 4942SOL    HW116267   1.702   2.937  11.890 -1.3544  0.9081 -0.0980
 4942SOL    HW216268   1.685   2.834  11.781  1.1074 -0.0391  0.3329
 4943SOL     OW16269   2.604   3.951   7.254  0.3587  0.1630  0.5029
 4943SOL    HW116270   2.598   3.861   7.223  0.8016  0.4393 -0.4399
 4943SOL    HW216271   2.670   3.991   7.198  0.6651  0.8952  1.3589
 4944SOL     OW16272   6.938   2.739   4.642  0.4639  0.0660  0.3552
 4944SOL    HW116273   6.895   2.666   4.597 -0.2199 -0.1625  1.3354
 4944SOL    HW216274   6.996   2.698   4.706 -1.1196  0.3009  2.0505
 4945SOL     OW16275   0.565   2.210   2.058  0.0673  0.2357  0.5643
 4945SOL    HW116276   0.659   2.229   2.067  0.3864 -1.2808  0.6830
 4945SOL    HW216277   0.545   2.236   1.968  0.8878 -0.4734  0.1547
 4946SOL     OW16278   7.215   5.921  11.676  0.1964 -0.4258  0.3579
 4946SOL    HW116279   7.191   5.835  11.712 -0.5679 -0.7617 -0.9090
 4946SOL    HW216280   7.261   5.964  11.748 -1.0706 -1.1606  1.6579
 4947SOL     OW16281   0.286   7.306   8.187 -0.1974  0.5049 -0.4821
 4947SOL    HW116282   0.281   7.238   8.255  3.8585  0.8951  0.4273
 4947SOL    HW216283   0.280   7.388   8.236  1.1747  0.7769 -0.7399
 4948SOL     OW16284   5.588   1.418   7.589 -0.0447 -0.1389  0.5894
 4948SOL    HW116285   5.650   1.351   7.618  0.3092 -0.9613 -1.8324
 4948SOL    HW216286   5.626   1.500   7.621  3.1723 -0.4433 -1.8764
 4949SOL     OW16287   4.483   0.729  10.819 -0.3337 -0.3211 -0.7287
 4949SOL    HW116288   4.391   0.702  10.823 -0.6352  0.8136  1.3153
 4949SOL    HW216289   4.532   0.648  10.833 -1.1525 -0.4883  1.8406
 4950SOL     OW16290   1.274   2.997  11.350  0.6648 -0.0838 -0.2354
 4950SOL    HW116291   1.363   2.981  11.380  0.9768 -1.0922 -1.6105
 4950SOL    HW216292   1.281   3.002  11.255 -0.6355  0.6799 -0.3205
 4951SOL     OW16293   2.682   0.958  10.584 -0.2858 -0.1021  0.6374
 4951SOL    HW116294   2.754   1.018  10.604 -0.3150 -0.1736  0.9772
 4951SOL    HW216295   2.714   0.904  10.512 -0.8533  1.3619 -0.7586
 4952SOL     OW16296   6.836   7.329   7.472  0.1515 -0.2252  0.1650
 4952SOL    HW116297   6.858   7.278   7.394  0.1443 -0.1746  0.1292
 4952SOL    HW216298   6.886   7.289   7.543  1.8459  1.0692 -0.2580
 4953SOL     OW16299   1.084   4.610   4.566  0.0064 -0.7621  0.0190
 4953SOL    HW116300   0.989   4.616   4.559 -0.0262  0.2827  1.1803
 4953SOL    HW216301   1.106   4.530   4.517 -1.4791 -1.1789 -0.0189
 4954SOL     OW16302   1.912   4.983  10.924  0.4276 -0.3626  0.1427
 4954SOL    HW116303   1.889   4.908  10.979 -0.6408  0.0402  0.2769
 4954SOL    HW216304   1.899   5.059  10.981  1.5253 -0.0536  0.0218
 4955SOL     OW16305   2.613   4.039   7.818  0.4938 -0.1939 -0.5213
 4955SOL    HW116306   2.587   4.019   7.909 -2.0474  1.4604 -0.7916
 4955SOL    HW216307   2.656   3.959   7.788  0.0710 -1.3394  1.6798
 4956SOL     OW16308   0.752   0.335  11.106  0.5237  0.6372  0.2549
 4956SOL    HW116309   0.729   0.255  11.059  0.2212  0.9900 -0.2168
 4956SOL    HW216310   0.750   0.403  11.038  0.7078  1.0514  0.6625
 4957SOL     OW16311   0.075   5.854   3.216 -0.3220  1.1100  0.5137
 4957SOL    HW116312   0.087   5.776   3.161 -2.0573  1.6928 -0.7473
 4957SOL    HW216313   0.017   5.825   3.286 -0.4709  1.1200  0.3936
 4958SOL     OW16314   6.048   5.562   8.027 -0.2721  0.5795 -0.0703
 4958SOL    HW116315   6.007   5.648   8.036 -2.4457 -0.0589 -2.6322
 4958SOL    HW216316   5.979   5.499   8.051  0.5353 -0.4961 -0.4640
 4959SOL     OW16317   0.673   5.601   9.128 -0.3753 -0.4638 -0.0457
 4959SOL    HW116318   0.661   5.506   9.123 -0.5861 -0.4680  0.3920
 4959SOL    HW216319   0.586   5.637   9.112 -0.0882 -0.2926 -1.2891
 4960SOL     OW16320   5.483   5.201   9.945 -0.3968  0.2025 -0.7336
 4960SOL    HW116321   5.398   5.163   9.968 -0.8197  0.7607 -1.3512
 4960SOL    HW216322   5.530   5.205  10.028 -0.7902 -0.5553 -0.4617
 4961SOL     OW16323   6.564   4.656   2.494  0.4280 -0.0867  0.0246
 4961SOL    HW116324   6.609   4.725   2.447  0.4221  0.7516  1.1917
 4961SOL    HW216325   6.515   4.608   2.427 -0.5617  1.8055 -0.6564
 4962SOL     OW16326   7.657   2.466   5.837 -0.2768 -0.2222  0.1960
 4962SOL    HW116327   7.567   2.440   5.815 -0.4972  0.2143  0.5662
 4962SOL    HW216328   7.647   2.544   5.892  0.3058 -0.5545  0.7917
 4963SOL     OW16329   7.533   1.540   8.337  0.4611 -0.1124  0.0484
 4963SOL    HW116330   7.513   1.545   8.244  1.1860 -0.7120 -0.1521
 4963SOL    HW216331   7.452   1.566   8.381 -0.0064 -0.2090 -0.7427
 4964SOL     OW16332   6.414   2.444   0.847  0.5459  0.5016  0.1051
 4964SOL    HW116333   6.487   2.470   0.791  0.7748 -0.5638 -0.1075
 4964SOL    HW216334   6.349   2.408   0.787  0.5145 -0.0386  0.4539
 4965SOL     OW16335   6.904   1.936   4.282  0.4477 -0.0544 -0.6011
 4965SOL    HW116336   6.992   1.904   4.262  1.0547  0.7137  0.6989
 4965SOL    HW216337   6.903   2.025   4.248  0.1448 -0.0801 -0.6615
 4966SOL     OW16338   2.565   1.660   5.384 -0.5202  0.0246 -0.4264
 4966SOL    HW116339   2.558   1.745   5.427 -1.0618 -0.2083 -0.0506
 4966SOL    HW216340   2.651   1.627   5.411 -1.9782 -1.4093  2.9109
 4967SOL     OW16341   6.972   1.212   7.453 -0.1600 -0.4499  0.2027
 4967SOL    HW116342   6.955   1.137   7.510 -2.7175 -0.7230 -0.7825
 4967SOL    HW216343   7.013   1.174   7.375 -2.3667 -1.0814 -0.7336
 4968SOL     OW16344   1.966   5.076   5.081  0.3942  0.1807 -0.3401
 4968SOL    HW116345   1.879   5.113   5.070 -0.3735 -1.0158  1.2698
 4968SOL    HW216346   1.995   5.107   5.167  2.3758  2.0180 -1.5438
 4969SOL     OW16347   5.420   5.490   2.573 -0.5880  0.3628 -0.4838
 4969SOL    HW116348   5.381   5.530   2.651  0.6660  0.9781 -0.1403
 4969SOL    HW216349   5.451   5.565   2.522 -2.2303  0.0197 -2.0689
 4970SOL     OW16350   2.861   5.717   2.641  0.5091  0.0264 -0.4301
 4970SOL    HW116351   2.889   5.744   2.729 -2.0765  0.6057  0.2822
 4970SOL    HW216352   2.922   5.647   2.618  0.7724 -0.7163  2.1825
 4971SOL     OW16353   5.943   1.397   9.831 -0.6475  0.5187 -0.5389
 4971SOL    HW116354   5.954   1.475   9.776  1.5645  0.4443 -0.2516
 4971SOL    HW216355   6.022   1.393   9.885 -0.4024 -2.2425 -0.9553
 4972SOL     OW16356   1.916   1.040  10.962  0.0792  0.0907 -0.2023
 4972SOL    HW116357   1.905   0.982  11.038 -0.0156  0.3313 -0.0317
 4972SOL    HW216358   1.939   0.981  10.891 -1.3595 -0.3300 -0.3535
 4973SOL     OW16359   0.653   1.660   0.340 -0.0477  0.0400  0.3672
 4973SOL    HW116360   0.653   1.716   0.262  2.2894 -0.2055  0.1084
 4973SOL    HW216361   0.576   1.605   0.330 -1.8550  2.4489  0.1157
 4974SOL     OW16362   2.557   3.679   7.087  0.1167 -0.3443 -0.0944
 4974SOL    HW116363   2.539   3.585   7.081  1.5939 -0.6324 -0.4353
 4974SOL    HW216364   2.652   3.686   7.075  0.2833  1.0495  1.6357
 4975SOL     OW16365   0.172   7.303   7.676  0.2875 -0.0025  0.7967
 4975SOL    HW116366   0.264   7.326   7.687  0.2305 -0.2400  1.8237
 4975SOL    HW216367   0.159   7.226   7.731  0.0927 -1.5998 -1.3644
 4976SOL     OW16368   3.968   5.116   1.232  0.2463  0.6103 -0.3427
 4976SOL    HW116369   4.057   5.128   1.264  0.2027 -1.0316  0.5071
 4976SOL    HW216370   3.974   5.047   1.167 -0.3143  0.9664 -0.7853
 4977SOL     OW16371   5.499   6.007   7.572  0.0086  0.0201  0.1671
 4977SOL    HW116372   5.408   6.026   7.550  0.0758 -0.2412 -0.3478
 4977SOL    HW216373   5.539   5.982   7.489  1.1839  2.5395 -0.1172
 4978SOL     OW16374   0.695   7.546   5.311  0.0951 -0.2161 -0.0258
 4978SOL    HW116375   0.712   7.617   5.373  0.7216 -0.6114  0.2576
 4978SOL    HW216376   0.599   7.545   5.302 -0.0080 -0.2126  1.0032
 4979SOL     OW16377   1.770   1.886   2.189  0.1181 -0.3581  0.7171
 4979SOL    HW116378   1.709   1.896   2.261  1.3409  0.3579  1.6993
 4979SOL    HW216379   1.748   1.802   2.150 -1.2857 -0.2397  1.2218
 4980SOL     OW16380   5.133   5.877   5.167 -0.5122 -0.3069  0.1702
 4980SOL    HW116381   5.165   5.832   5.088  0.3277 -0.1701  0.4219
 4980SOL    HW216382   5.125   5.807   5.232  1.1552 -0.0780  0.6736
 4981SOL     OW16383   3.064   1.790   6.127  0.1639  0.6281  0.1565
 4981SOL    HW116384   2.985   1.760   6.171  1.3886 -0.5641  1.6914
 4981SOL    HW216385   3.076   1.880   6.159 -1.4289  1.4498 -1.4141
 4982SOL     OW16386   5.114   0.161   2.447 -0.1725 -0.5807  0.8631
 4982SOL    HW116387   5.147   0.127   2.364 -1.4248 -0.8879  0.4605
 4982SOL    HW216388   5.019   0.155   2.439 -0.4731  2.5765  0.9717
 4983SOL     OW16389   5.626   1.310   5.499 -0.3419 -0.1309 -0.7859
 4983SOL    HW116390   5.554   1.248   5.503 -2.2901  2.0160 -0.7474
 4983SOL    HW216391   5.637   1.341   5.589 -0.0338  0.2857 -0.9618
 4984SOL     OW16392   2.958   5.016   7.333 -0.3801 -0.3526  0.5962
 4984SOL    HW116393   2.926   4.979   7.415 -0.8721 -1.5092 -0.0934
 4984SOL    HW216394   2.941   4.948   7.268  0.1795  0.4664 -0.4330
 4985SOL     OW16395   1.964   6.951   1.400  0.1036 -0.2958 -0.1661
 4985SOL    HW116396   1.911   7.031   1.404  0.1339 -0.2650 -0.3771
 4985SOL    HW216397   1.900   6.880   1.411  0.3008 -0.1987  1.9316
 4986SOL     OW16398   4.365   3.988   0.914  0.4972  0.6321 -0.3138
 4986SOL    HW116399   4.399   4.056   0.855  1.0053 -1.3569 -2.4435
 4986SOL    HW216400   4.290   3.952   0.867  0.0040 -0.0543  0.9555
 4987SOL     OW16401   1.030   4.875   4.340 -0.0964 -0.5667 -0.2538
 4987SOL    HW116402   0.956   4.928   4.370  0.8236  0.8602 -0.3687
 4987SOL    HW216403   1.089   4.872   4.416  1.0660  0.8694 -1.0368
 4988SOL     OW16404   0.156   5.554   7.283 -0.2132 -0.1790  0.1254
 4988SOL    HW116405   0.136   5.594   7.368  1.3617  0.2202  0.3445
 4988SOL    HW216406   0.221   5.612   7.244 -0.7832 -0.4641 -1.2884
 4989SOL     OW16407   4.262   7.857   2.976  0.0980 -0.5305 -0.2687
 4989SOL    HW116408   4.229   7.946   2.989 -2.1825 -1.2759 -0.3562
 4989SOL    HW216409   4.189   7.801   3.005  1.7107 -2.3849  0.4103
 4990SOL     OW16410   1.911   5.681   1.590 -0.1778 -0.2893 -0.3348
 4990SOL    HW116411   1.906   5.632   1.672 -0.8608  1.0943  0.4869
 4990SOL    HW216412   1.872   5.766   1.610  0.6605  0.4831 -1.8005
 4991SOL     OW16413   6.214   0.453   3.881  0.4561 -0.2435  0.1636
 4991SOL    HW116414   6.285   0.422   3.936  0.6481  0.4889  0.3472
 4991SOL    HW216415   6.257   0.506   3.814  0.3315 -1.8945 -1.3020
 4992SOL     OW16416   7.217   6.000   2.230  0.1163 -0.2665  0.5794
 4992SOL    HW116417   7.151   6.017   2.297 -0.2703 -1.8950  0.6502
 4992SOL    HW216418   7.167   5.978   2.151  0.5529 -0.7997  0.4408
 4993SOL     OW16419   6.612   1.557  12.250  0.4396  0.4554  0.3407
 4993SOL    HW116420   6.556   1.506  12.309  1.2814  0.5796  1.2615
 4993SOL    HW216421   6.615   1.644  12.290  1.5921  0.3469  0.4974
 4994SOL     OW16422   1.588   6.133   0.606  0.0001  0.2722  0.3908
 4994SOL    HW116423   1.662   6.119   0.664  0.2162  0.7241  0.2288
 4994SOL    HW216424   1.558   6.222   0.627  0.0019  0.3902 -0.0974
 4995SOL     OW16425   7.546   1.176   9.692  0.2838 -0.1041 -0.4180
 4995SOL    HW116426   7.577   1.236   9.760 -0.2083  1.0484 -1.1654
 4995SOL    HW216427   7.623   1.127   9.665  0.4320 -0.7666  1.1403
 4996SOL     OW16428   1.331   2.246   7.126  0.3170  0.2249  0.4277
 4996SOL    HW116429   1.275   2.304   7.075 -1.5877 -0.9698  1.0453
 4996SOL    HW216430   1.374   2.191   7.061 -2.3220 -1.4939 -0.0493
 4997SOL     OW16431   6.068   4.344   6.407 -0.3622  0.1733 -0.2930
 4997SOL    HW116432   5.983   4.301   6.409 -0.7658  0.9607  0.5089
 4997SOL    HW216433   6.072   4.392   6.490  0.8417  0.1862 -0.3400
 4998SOL     OW16434   2.938   2.554   1.449 -0.0868 -0.3103  0.3305
 4998SOL    HW116435   2.877   2.491   1.487  0.1560 -0.4406  0.5106
 4998SOL    HW216436   2.938   2.534   1.355  1.0509 -1.5344  0.5543
 4999SOL     OW16437   4.871   3.403   6.531  0.4155 -0.7035 -0.1481
 4999SOL    HW116438   4.846   3.424   6.441  0.0212 -0.7799 -0.0589
 4999SOL    HW216439   4.965   3.423   6.536  0.1108  0.8416 -0.1288
 5000SOL     OW16440   6.782   2.149   6.420 -0.3429  0.3976 -0.7094
 5000SOL    HW116441   6.792   2.102   6.337 -0.8994 -0.4285 -0.3215
 5000SOL    HW216442   6.688   2.145   6.438 -0.1514  0.0418  0.2620
 5001SOL     OW16443   1.716   5.739   9.840 -0.3394  0.2567  0.1598
 5001SOL    HW116444   1.727   5.695   9.924 -1.4959  0.1296  0.2523
 5001SOL    HW216445   1.701   5.668   9.778  2.8138  0.1201 -0.6408
 5002SOL     OW16446   3.323   7.412   2.733 -0.5793 -0.2886 -1.1264
 5002SOL    HW116447   3.298   7.468   2.807 -0.3242 -1.9146  0.2590
 5002SOL    HW216448   3.339   7.473   2.661  0.8007  1.5217  0.5959
 5003SOL     OW16449   7.745   0.026   4.338  0.3073 -0.3779 -0.1337
 5003SOL    HW116450   7.715   0.112   4.368  1.5298  0.3550 -0.9318
 5003SOL    HW216451   7.710   0.018   4.250 -0.7510 -1.2217  0.3339
 5004SOL     OW16452   6.367   7.607   9.400  0.3588  0.8165  0.0745
 5004SOL    HW116453   6.403   7.682   9.354  2.1721  0.4188  0.7727
 5004SOL    HW216454   6.313   7.562   9.335 -1.0807  2.8908 -0.2411
 5005SOL     OW16455   4.508   1.430  11.579  0.4723  0.0052 -0.7004
 5005SOL    HW116456   4.562   1.482  11.520  0.4842 -0.6869 -1.3132
 5005SOL    HW216457   4.423   1.474  11.579  0.2804 -0.3370 -1.7466
 5006SOL     OW16458   4.233   1.832   4.040  0.4233 -0.2634  0.2330
 5006SOL    HW116459   4.318   1.858   4.003  0.0896 -0.4562 -0.7064
 5006SOL    HW216460   4.169   1.879   3.987 -0.0628 -0.1521  0.9139
 5007SOL     OW16461   4.757   5.797   4.367 -0.0733  0.3353 -0.4608
 5007SOL    HW116462   4.796   5.815   4.452 -0.0961 -0.6990 -0.2182
 5007SOL    HW216463   4.764   5.880   4.319  2.3527  0.2469 -0.4059
 5008SOL     OW16464   0.935   3.991   3.870  0.2424 -0.5537 -0.0764
 5008SOL    HW116465   0.852   4.018   3.831  0.2056 -0.9858 -0.3054
 5008SOL    HW216466   0.978   4.073   3.894 -0.4579 -0.3414  0.4897
 5009SOL     OW16467   3.394   7.169   9.582 -0.1884 -0.2691 -0.1427
 5009SOL    HW116468   3.338   7.245   9.566 -0.9209 -0.5559  0.9364
 5009SOL    HW216469   3.359   7.130   9.663 -0.0038 -1.9021 -0.8088
 5010SOL     OW16470   2.148   5.009   5.849  0.1058 -0.2916  0.3218
 5010SOL    HW116471   2.074   5.025   5.792  0.3679  3.0891  0.6851
 5010SOL    HW216472   2.109   4.982   5.932 -0.4634 -1.7674 -0.3905
 5011SOL     OW16473   0.454   2.247   8.143 -0.0679  0.1530 -0.1877
 5011SOL    HW116474   0.506   2.275   8.218  0.7600  0.0344 -0.7082
 5011SOL    HW216475   0.404   2.325   8.118  1.7137  1.0285 -1.2087
 5012SOL     OW16476   0.806   4.187  12.381 -0.1158  0.3680  0.1717
 5012SOL    HW116477   0.773   4.125  12.445  0.9720 -0.0019  0.3933
 5012SOL    HW216478   0.898   4.201  12.405  1.0157 -1.5266 -2.5907
 5013SOL     OW16479   0.924   3.627  10.632  0.4257  0.6587 -0.0944
 5013SOL    HW116480   0.959   3.590  10.714 -0.5826 -1.3746 -0.5157
 5013SOL    HW216481   0.947   3.562  10.565 -1.2068  0.8862 -0.9327
 5014SOL     OW16482   0.925   1.959   2.924  0.2288 -0.0684 -0.3466
 5014SOL    HW116483   0.954   2.049   2.938  1.2588 -0.3989 -0.2191
 5014SOL    HW216484   0.867   1.940   2.998  0.8094  0.1686  0.1816
 5015SOL     OW16485   0.892   6.671   6.367 -0.0529 -0.0909  0.0670
 5015SOL    HW116486   0.844   6.589   6.356  0.5137 -0.5811  1.0515
 5015SOL    HW216487   0.826   6.740   6.356 -0.6957 -0.7082  0.0154
 5016SOL     OW16488   5.943   6.495   2.172  0.2719 -0.4529  0.4203
 5016SOL    HW116489   5.963   6.577   2.128 -2.3268  0.9899  1.6903
 5016SOL    HW216490   6.005   6.491   2.245  0.7479  0.1235  0.0566
 5017SOL     OW16491   7.775   7.833  10.213  0.1578  0.0580 -0.1234
 5017SOL    HW116492   7.712   7.843  10.142 -0.2551 -0.3779  0.1792
 5017SOL    HW216493   7.728   7.865  10.291  0.6126  0.5546 -0.0439
 5018SOL     OW16494   3.096   6.402  10.217 -0.3326  0.4203  0.1521
 5018SOL    HW116495   3.144   6.441  10.291 -1.5359  0.6301  0.8645
 5018SOL    HW216496   3.106   6.308  10.228  1.2888  0.4685 -0.6769
 5019SOL     OW16497   7.931   7.423   5.857  0.2126 -0.2989 -0.4027
 5019SOL    HW116498   7.962   7.334   5.874 -2.7319 -1.4073 -0.3839
 5019SOL    HW216499   7.844   7.412   5.819  0.0075  2.5820 -1.0134
 5020SOL     OW16500   2.616   2.615   1.364 -0.2071  0.0206 -0.2515
 5020SOL    HW116501   2.643   2.542   1.419  0.6458 -0.0929 -0.7922
 5020SOL    HW216502   2.689   2.627   1.302 -1.2201  0.0139 -1.4875
 5021SOL     OW16503   7.193   2.848   8.563 -0.0462 -0.0241 -0.6634
 5021SOL    HW116504   7.126   2.801   8.513 -0.6855 -0.4188  0.5222
 5021SOL    HW216505   7.244   2.894   8.497 -0.9643 -0.3915 -1.6634
 5022SOL     OW16506   3.956   7.003   6.611 -0.3839  0.5454 -0.3767
 5022SOL    HW116507   4.051   7.001   6.625 -0.1976 -0.9531 -1.6303
 5022SOL    HW216508   3.946   7.014   6.517 -1.4868  1.1142 -0.2051
 5023SOL     OW16509   7.636   0.969   9.965 -0.7358 -0.7231  0.0844
 5023SOL    HW116510   7.643   0.895   9.905 -0.1115 -0.5176 -0.1093
 5023SOL    HW216511   7.690   0.945  10.040  0.6539  0.1127 -0.6005
 5024SOL     OW16512   7.235   4.692   8.526  0.2889 -0.0152  0.4906
 5024SOL    HW116513   7.190   4.626   8.474 -0.3098  0.3747  0.5021
 5024SOL    HW216514   7.177   4.768   8.524  0.1233 -0.0883  1.9690
 5025SOL     OW16515   3.267   7.713   1.189  0.2535  0.1257 -0.0861
 5025SOL    HW116516   3.173   7.728   1.182  0.2019 -0.3554 -0.5435
 5025SOL    HW216517   3.282   7.695   1.282 -0.3576 -1.2861 -0.2259
 5026SOL     OW16518   4.324   2.608   1.997  0.2349  0.5008  0.2636
 5026SOL    HW116519   4.354   2.589   2.086 -0.0251 -1.5108 -0.0264
 5026SOL    HW216520   4.405   2.618   1.947  0.3843  1.1358  0.6301
 5027SOL     OW16521   3.040   3.567   6.994  0.0700 -0.0552  0.2287
 5027SOL    HW116522   2.996   3.482   7.001 -0.9014  0.2847 -1.1112
 5027SOL    HW216523   3.117   3.550   6.939 -1.5994  0.3348 -2.4481
 5028SOL     OW16524   7.194   7.912   7.625 -0.1830  0.0781 -0.2471
 5028SOL    HW116525   7.123   7.907   7.560  2.0573 -0.1770 -2.8930
 5028SOL    HW216526   7.269   7.943   7.575  2.2377 -2.0411  1.7995
 5029SOL     OW16527   5.860   4.619   8.719 -0.6273 -0.0552 -0.2738
 5029SOL    HW116528   5.798   4.688   8.746 -0.8963  0.9812 -3.1812
 5029SOL    HW216529   5.940   4.667   8.695 -0.5901 -0.7721 -1.6960
 5030SOL     OW16530   2.729   7.940   4.747 -0.3239 -0.4222  0.6270
 5030SOL    HW116531   2.647   7.990   4.745 -1.3730 -2.0686  0.9659
 5030SOL    HW216532   2.705   7.855   4.784  1.2954 -1.3741 -0.3857
 5031SOL     OW16533   2.808   6.036   2.721 -0.2234 -0.5430 -0.1448
 5031SOL    HW116534   2.820   6.015   2.628  1.0148  1.8568 -0.6130
 5031SOL    HW216535   2.857   5.967   2.767  2.7732  0.4922 -1.5108
 5032SOL     OW16536   2.810   1.669   0.689 -0.1844 -0.0280 -0.1528
 5032SOL    HW116537   2.722   1.631   0.687  0.2476 -1.2456  1.4152
 5032SOL    HW216538   2.850   1.642   0.607 -1.3643  0.8124 -1.0269
 5033SOL     OW16539   3.019   4.840  11.628  0.0019 -0.1696 -0.2249
 5033SOL    HW116540   3.084   4.884  11.573  0.7912  0.5174  1.1887
 5033SOL    HW216541   3.055   4.752  11.642  0.2981 -0.0071  0.0273
 5034SOL     OW16542   2.498   0.050   6.335 -0.2200 -0.0297 -0.4400
 5034SOL    HW116543   2.413   0.007   6.328  0.6856 -1.7613 -1.4872
 5034SOL    HW216544   2.542   0.004   6.407 -0.3832  1.3222  0.5696
 5035SOL     OW16545   1.273   3.841   3.044  0.0681  0.3817 -0.4575
 5035SOL    HW116546   1.210   3.808   2.980  0.1003  0.1320 -0.3614
 5035SOL    HW216547   1.357   3.840   2.998  0.0567  0.4082 -0.4794
 5036SOL     OW16548   1.376   2.034  12.104 -0.6754  0.3883  0.1291
 5036SOL    HW116549   1.317   2.107  12.123 -3.1423 -1.5911  0.6061
 5036SOL    HW216550   1.338   1.959  12.150  1.0435 -1.5069 -1.3099
 5037SOL     OW16551   7.798   2.272   8.083  0.1517  0.2703 -0.0074
 5037SOL    HW116552   7.735   2.310   8.144 -0.1495 -1.0452  0.5265
 5037SOL    HW216553   7.807   2.182   8.111  0.1431 -0.3265 -1.8041
 5038SOL     OW16554   5.599   0.190   8.820  0.5942 -0.1518 -0.0788
 5038SOL    HW116555   5.671   0.134   8.794  1.8436  1.2120  0.3041
 5038SOL    HW216556   5.579   0.242   8.742 -0.0396 -0.5883 -0.2112
 5039SOL     OW16557   2.770   5.832   5.038 -0.5695 -0.3066 -0.1630
 5039SOL    HW116558   2.774   5.748   4.992  2.8067  0.2589 -1.1695
 5039SOL    HW216559   2.763   5.897   4.968  1.4037  0.3957  0.2233
 5040SOL     OW16560   1.576   5.435   4.270 -0.6199 -0.0630 -0.3579
 5040SOL    HW116561   1.514   5.452   4.341 -0.6444  1.7942 -0.7706
 5040SOL    HW216562   1.653   5.398   4.314 -0.7759  0.7040  0.6018
 5041SOL     OW16563   4.637   5.770   1.452 -0.1641 -0.1030 -0.1243
 5041SOL    HW116564   4.690   5.839   1.491 -0.6767  0.2180  0.0143
 5041SOL    HW216565   4.675   5.758   1.364  0.8585 -0.6856  0.3756
 5042SOL     OW16566   4.566   2.866   9.446  0.3125 -0.7861  0.5741
 5042SOL    HW116567   4.600   2.930   9.509 -0.5046 -0.3014  0.5301
 5042SOL    HW216568   4.481   2.901   9.419  0.0732 -1.6435  0.1787
 5043SOL     OW16569   0.261   4.710   0.364 -0.2751  0.0800 -0.5085
 5043SOL    HW116570   0.323   4.724   0.436  0.6201 -0.1151 -1.2307
 5043SOL    HW216571   0.285   4.624   0.329 -0.5947  0.2590 -1.1673
 5044SOL     OW16572   4.532   6.749   6.870  0.0351 -0.7312  0.2780
 5044SOL    HW116573   4.612   6.698   6.858  0.0078 -0.7836  0.3200
 5044SOL    HW216574   4.470   6.688   6.909 -0.2965 -0.9380 -0.5461
 5045SOL     OW16575   6.823   6.459   7.727  0.1271 -0.4474 -0.2872
 5045SOL    HW116576   6.848   6.494   7.813  0.0627  0.7123 -0.7265
 5045SOL    HW216577   6.777   6.377   7.747  0.4711 -0.4042  0.7541
 5046SOL     OW16578   3.675   6.089  10.221 -0.8930 -0.4406  0.3765
 5046SOL    HW116579   3.695   6.129  10.305 -0.9744 -0.9234  0.6294
 5046SOL    HW216580   3.656   5.997  10.242 -1.2106 -0.4940 -0.1274
 5047SOL     OW16581   1.049   0.837  11.420 -0.0661  0.5272  0.0078
 5047SOL    HW116582   1.024   0.918  11.463 -0.0109  0.6289 -0.1506
 5047SOL    HW216583   1.129   0.810  11.465  1.7212  2.2031 -1.9422
 5048SOL     OW16584   5.774   0.312   2.388 -0.3395 -0.6390 -0.4802
 5048SOL    HW116585   5.757   0.225   2.350  0.8153 -1.4617  0.7581
 5048SOL    HW216586   5.772   0.372   2.313 -0.2711 -1.8644 -1.5062
 5049SOL     OW16587   2.691   0.923  11.555  0.1526  0.3110  0.3192
 5049SOL    HW116588   2.654   0.836  11.572 -1.9015  0.7019 -1.6518
 5049SOL    HW216589   2.672   0.972  11.634 -1.0083 -0.3482  0.4777
 5050SOL     OW16590   1.493   3.509   3.282  1.0078  0.1886 -0.2006
 5050SOL    HW116591   1.440   3.430   3.271  2.3562 -0.6738 -0.7517
 5050SOL    HW216592   1.434   3.572   3.325 -0.2229 -0.9601 -0.1496
 5051SOL     OW16593   6.866   3.432   2.619  0.6200 -0.4805  0.1742
 5051SOL    HW116594   6.836   3.346   2.648 -2.0294  0.0523 -0.7220
 5051SOL    HW216595   6.810   3.494   2.665 -0.2841  0.5692 -2.1749
 5052SOL     OW16596   3.969   0.596   7.167 -0.1813 -0.3529 -0.0025
 5052SOL    HW116597   3.953   0.516   7.118 -0.2465 -0.4007  0.0974
 5052SOL    HW216598   3.969   0.569   7.259  0.7200 -0.4014 -0.0040
 5053SOL     OW16599   6.315   6.935  11.424  0.8138  0.3329 -0.6197
 5053SOL    HW116600   6.368   6.895  11.355  0.2513  1.3704 -1.6879
 5053SOL    HW216601   6.261   7.000  11.379 -0.1042  0.5307  0.6974
 5054SOL     OW16602   5.903   1.385   4.205  0.0173 -0.2442 -0.4938
 5054SOL    HW116603   5.880   1.345   4.289  0.6668 -0.3986 -0.3798
 5054SOL    HW216604   5.920   1.310   4.148  1.3934 -0.1566 -0.2372
 5055SOL     OW16605   3.878   5.023   6.671 -0.6968 -0.4711 -0.3639
 5055SOL    HW116606   3.857   5.067   6.754 -1.7944 -1.7560  0.0665
 5055SOL    HW216607   3.811   5.054   6.610  0.5807  1.1124 -1.0642
 5056SOL     OW16608   7.381   3.000  10.884  0.1452  0.0834  0.1928
 5056SOL    HW116609   7.401   3.086  10.846  2.5539  0.3373  1.8592
 5056SOL    HW216610   7.460   2.949  10.872 -1.8242 -2.7446 -2.4890
 5057SOL     OW16611   7.281   4.499  10.910 -0.5839  0.4982  0.2900
 5057SOL    HW116612   7.330   4.517  10.830 -1.1882 -0.5667 -0.3432
 5057SOL    HW216613   7.247   4.584  10.937  1.1731  1.1787  0.4739
 5058SOL     OW16614   7.385   1.958   3.705 -0.2677  0.4286  0.5213
 5058SOL    HW116615   7.300   1.955   3.749 -0.6735 -0.2136 -0.2734
 5058SOL    HW216616   7.449   1.949   3.776 -0.8079  1.9923  1.2498
 5059SOL     OW16617   1.398   6.700  12.281  0.4475  0.2762 -0.4481
 5059SOL    HW116618   1.440   6.786  12.275  1.4896 -0.3049 -2.9427
 5059SOL    HW216619   1.469   6.641  12.306 -0.0515  0.0097  0.3451
 5060SOL     OW16620   0.408   3.608  12.317  0.2057  0.2675 -0.3476
 5060SOL    HW116621   0.332   3.553  12.337 -2.1706  3.4481  0.3674
 5060SOL    HW216622   0.432   3.647  12.401  1.9415  0.2262 -0.7821
 5061SOL     OW16623   5.534   3.421   4.037  0.3942  0.2468 -0.6676
 5061SOL    HW116624   5.471   3.402   4.106 -0.0460  2.5580 -0.3552
 5061SOL    HW216625   5.616   3.440   4.083 -0.0475  2.3871 -0.6452
 5062SOL     OW16626   2.562   3.493   1.154 -0.4516  0.6695  0.0206
 5062SOL    HW116627   2.483   3.505   1.101 -0.3257  0.5235 -0.2045
 5062SOL    HW216628   2.538   3.428   1.220 -0.7043  1.0863  0.3441
 5063SOL     OW16629   4.246   2.277   3.135 -0.3468  0.7168  0.2672
 5063SOL    HW116630   4.256   2.257   3.228  0.6710  0.0532  0.0311
 5063SOL    HW216631   4.156   2.309   3.127 -1.8046 -2.7857  0.8634
 5064SOL     OW16632   0.286   7.102  10.891 -0.3331  0.0123 -0.2200
 5064SOL    HW116633   0.193   7.079  10.884 -0.7344  1.4612  0.0085
 5064SOL    HW216634   0.314   7.118  10.802 -0.7142  1.0524 -0.1610
 5065SOL     OW16635   2.032   1.803   8.624 -0.1145  0.1872  0.4928
 5065SOL    HW116636   2.020   1.896   8.608 -2.0208 -0.0484  0.2817
 5065SOL    HW216637   2.086   1.772   8.551  0.2412  1.0602  0.3838
 5066SOL     OW16638   7.248   3.175  11.589  0.3148 -0.2512  0.3951
 5066SOL    HW116639   7.269   3.226  11.667 -0.8842  2.0742 -0.6923
 5066SOL    HW216640   7.283   3.227  11.517 -1.7561 -0.4770 -0.8498
 5067SOL     OW16641   1.480   6.540   5.295 -0.5970  0.2965  0.1076
 5067SOL    HW116642   1.530   6.599   5.238 -0.2054 -0.6379 -0.5409
 5067SOL    HW216643   1.416   6.597   5.337  0.0364  1.2592 -0.1804
 5068SOL     OW16644   4.443   7.542   8.417  0.2268 -0.0639  0.6295
 5068SOL    HW116645   4.431   7.563   8.324 -0.4597 -2.0692  0.2197
 5068SOL    HW216646   4.357   7.557   8.456 -0.1347 -1.5337  0.4318
 5069SOL     OW16647   4.479   7.810   0.497  0.3395 -0.2243  0.2481
 5069SOL    HW116648   4.462   7.798   0.591 -0.9062 -1.1299 -0.0506
 5069SOL    HW216649   4.456   7.725   0.459 -0.0383  0.4124 -0.9788
 5070SOL     OW16650   4.424   5.374  10.053 -0.4951 -0.0117 -0.4681
 5070SOL    HW116651   4.510   5.372  10.011 -0.4467  1.8500 -0.5336
 5070SOL    HW216652   4.371   5.312  10.003 -0.0649  1.1452 -2.4212
 5071SOL     OW16653   6.703   2.924   8.450 -0.6786 -0.0475  0.3658
 5071SOL    HW116654   6.620   2.886   8.480 -0.6384 -0.4876 -0.0827
 5071SOL    HW216655   6.702   2.912   8.355  0.7063 -1.6953  0.5130
 5072SOL     OW16656   4.588   1.342   5.828  0.6591 -0.5223  0.1760
 5072SOL    HW116657   4.622   1.335   5.739 -1.7974  0.2774 -0.9109
 5072SOL    HW216658   4.531   1.266   5.838 -0.5906  0.3863  0.2997
 5073SOL     OW16659   7.136   4.191   7.230 -0.2497 -0.2518  0.0560
 5073SOL    HW116660   7.125   4.188   7.135  0.1299 -1.6023  0.0345
 5073SOL    HW216661   7.083   4.118   7.262 -0.5556  0.3394  0.9074
 5074SOL     OW16662   6.477   1.201   5.731 -0.0489 -0.5805  0.3804
 5074SOL    HW116663   6.396   1.215   5.781 -1.5091 -0.4605 -1.8872
 5074SOL    HW216664   6.449   1.153   5.654  1.5066  1.8837 -1.9004
 5075SOL     OW16665   4.992   4.938  12.350  0.5161  0.8904  0.1441
 5075SOL    HW116666   4.933   4.991  12.403 -0.9061  0.2305 -0.7254
 5075SOL    HW216667   5.028   4.873  12.410 -0.7571  0.4071  0.4105
 5076SOL     OW16668   1.439   4.519  10.556 -0.1619  0.3329  0.1866
 5076SOL    HW116669   1.506   4.559  10.611 -1.1216  0.4777  1.2946
 5076SOL    HW216670   1.468   4.429  10.544  0.5503  0.5683  0.1029
 5077SOL     OW16671   3.776   2.701   2.320 -0.1541 -0.3826 -0.2878
 5077SOL    HW116672   3.863   2.662   2.320 -0.2649 -0.6490  0.3044
 5077SOL    HW216673   3.762   2.729   2.410 -0.7777 -0.5728 -0.3167
 5078SOL     OW16674   4.025   5.891   3.275  0.4346 -0.7921 -0.2465
 5078SOL    HW116675   4.104   5.935   3.244  0.3454 -0.3366  0.1578
 5078SOL    HW216676   3.989   5.950   3.342 -0.4010 -0.8619 -0.6197
 5079SOL     OW16677   1.376   5.363   4.534 -0.0793  0.0759 -0.1133
 5079SOL    HW116678   1.450   5.302   4.530 -0.2993 -0.1402 -3.5935
 5079SOL    HW216679   1.302   5.310   4.563  0.3758 -0.5749 -0.1292
 5080SOL     OW16680   7.485   4.354   9.402  0.2223  0.6208  0.1591
 5080SOL    HW116681   7.558   4.296   9.379  0.0578  0.4081  0.1721
 5080SOL    HW216682   7.490   4.425   9.338 -1.4778 -1.0009 -1.9089
 5081SOL     OW16683   3.323   7.173   0.530 -0.4060  0.1704  0.5033
 5081SOL    HW116684   3.347   7.235   0.461 -0.3266  0.6486  0.9501
 5081SOL    HW216685   3.338   7.221   0.611  0.4350 -0.7131  0.8880
 5082SOL     OW16686   1.046   2.821   5.798 -0.4833 -0.1019  0.3143
 5082SOL    HW116687   1.014   2.906   5.768  0.5755  0.0890 -0.3238
 5082SOL    HW216688   1.116   2.841   5.859  0.7001 -0.4840 -0.8626
 5083SOL     OW16689   5.030   2.468   2.393  0.2213 -0.0170 -0.3967
 5083SOL    HW116690   5.049   2.375   2.382  1.0473 -0.0124  0.7719
 5083SOL    HW216691   5.086   2.495   2.466 -0.5840  1.2201 -0.2083
 5084SOL     OW16692   7.312   1.328   9.608 -0.7237 -0.1575 -0.0855
 5084SOL    HW116693   7.284   1.303   9.520 -0.2670  0.6197 -0.4558
 5084SOL    HW216694   7.382   1.266   9.629 -0.0500  0.3722 -0.7326
 5085SOL     OW16695   3.221   3.736  10.964  0.2682 -0.4934 -0.4248
 5085SOL    HW116696   3.279   3.660  10.965 -1.5933 -1.9923 -0.2939
 5085SOL    HW216697   3.164   3.722  10.889 -0.6810  0.2961  0.1178
 5086SOL     OW16698   1.711   4.714   0.109  0.4068  0.2546 -0.3874
 5086SOL    HW116699   1.621   4.704   0.078  0.7472 -1.1502 -1.0127
 5086SOL    HW216700   1.704   4.768   0.188 -1.2464 -1.5981  0.8337
 5087SOL     OW16701   2.125   5.164   3.652  0.3378 -0.2700  0.5540
 5087SOL    HW116702   2.044   5.216   3.651 -0.0172 -0.8217 -0.2915
 5087SOL    HW216703   2.122   5.114   3.571  1.4500 -0.4312  0.6008
 5088SOL     OW16704   2.414   2.754   8.351 -0.0844 -0.8334 -0.4525
 5088SOL    HW116705   2.419   2.834   8.403 -2.1304 -0.1080 -1.2922
 5088SOL    HW216706   2.345   2.770   8.287 -0.0399 -3.0016 -1.1476
 5089SOL     OW16707   5.444   2.649   8.639  0.5301  0.4073 -0.0943
 5089SOL    HW116708   5.356   2.633   8.674  0.7996 -0.1138  0.3715
 5089SOL    HW216709   5.449   2.743   8.627 -0.8261  0.2798 -2.0969
 5090SOL     OW16710   5.633   2.085   7.563 -0.1279 -0.7015 -0.3653
 5090SOL    HW116711   5.705   2.119   7.616 -0.0971  0.3458 -1.0658
 5090SOL    HW216712   5.657   1.994   7.545 -0.0787 -1.0524  1.2923
 5091SOL     OW16713   2.221   1.323   6.606 -0.2284  0.0283  0.3120
 5091SOL    HW116714   2.168   1.377   6.666  0.9698  1.1394  0.3988
 5091SOL    HW216715   2.218   1.370   6.523 -1.0617 -1.0014 -0.2757
 5092SOL     OW16716   6.805   4.193   2.185  0.3834  0.4218 -0.2108
 5092SOL    HW116717   6.889   4.217   2.225  0.2007  1.2469 -0.2979
 5092SOL    HW216718   6.739   4.232   2.242  0.0486 -0.3826 -0.0445
 5093SOL     OW16719   7.978   2.784   6.690 -0.4658  0.0566  0.0305
 5093SOL    HW116720   7.914   2.789   6.619  2.2786  0.1038 -2.6379
 5093SOL    HW216721   8.062   2.779   6.646  1.4132 -0.3377  3.3467
 5094SOL     OW16722   6.011   4.295   3.079  0.1432 -0.1126 -0.3509
 5094SOL    HW116723   5.997   4.346   2.999 -1.9465 -0.4523 -0.2774
 5094SOL    HW216724   6.020   4.205   3.049 -0.6191 -0.2373 -0.2385
 5095SOL     OW16725   7.547   1.346   2.224 -0.2415 -0.0701  0.8027
 5095SOL    HW116726   7.452   1.353   2.239 -0.3126  2.4213 -0.1797
 5095SOL    HW216727   7.554   1.331   2.130  0.3752 -2.2511  1.1411
 5096SOL     OW16728   2.468   6.920  11.443  0.3046 -0.4842  0.1854
 5096SOL    HW116729   2.423   6.937  11.525  0.0831 -1.4238  0.2621
 5096SOL    HW216730   2.433   6.837  11.412  2.1527 -1.4040  0.3919
 5097SOL     OW16731   4.971   0.252   7.126 -0.6373 -0.1236 -0.3144
 5097SOL    HW116732   5.020   0.334   7.132 -0.5844 -0.1328 -0.6009
 5097SOL    HW216733   4.902   0.260   7.192 -1.5693  0.7926 -1.3548
 5098SOL     OW16734   0.740   3.156   7.357  0.3601 -0.1191  0.4869
 5098SOL    HW116735   0.735   3.126   7.267  1.6162  1.4735 -0.1572
 5098SOL    HW216736   0.648   3.162   7.385 -0.0363 -0.7162 -0.6367
 5099SOL     OW16737   4.029   2.599   2.351 -0.3855  0.2981  0.2578
 5099SOL    HW116738   4.087   2.673   2.332  0.0822 -0.1006  0.1231
 5099SOL    HW216739   4.088   2.525   2.367 -0.8523 -0.1212  0.0740
 5100SOL     OW16740   5.521   2.822  11.792 -0.3456  0.0079  0.3988
 5100SOL    HW116741   5.594   2.772  11.754 -2.6586 -4.2140  0.8697
 5100SOL    HW216742   5.475   2.859  11.717  0.6219  0.2361 -0.0995
 5101SOL     OW16743   6.218   5.917   3.855  0.1285 -0.2779  1.2674
 5101SOL    HW116744   6.292   5.975   3.874  0.7045 -0.3855 -0.4608
 5101SOL    HW216745   6.259   5.832   3.837 -0.3500 -0.2298 -0.1492
 5102SOL     OW16746   0.397   2.246  11.150 -0.2580 -0.9284  0.1037
 5102SOL    HW116747   0.320   2.198  11.118 -0.9788  0.4027 -0.2388
 5102SOL    HW216748   0.360   2.321  11.197  0.8103  0.3648 -1.0342
 5103SOL     OW16749   1.974   6.328   3.853 -0.4275  0.1125  0.2834
 5103SOL    HW116750   1.976   6.363   3.764  0.7707 -1.5689 -0.4072
 5103SOL    HW216751   1.881   6.310   3.869 -0.6867  0.6791 -0.5191
 5104SOL     OW16752   5.827   1.394   6.880  0.2580 -0.2439 -0.3259
 5104SOL    HW116753   5.847   1.303   6.902  1.2232  0.1802  0.6312
 5104SOL    HW216754   5.734   1.394   6.859  0.2906 -1.4847 -0.5194
 5105SOL     OW16755   1.275   0.528  10.496  0.3681  0.0994 -0.0598
 5105SOL    HW116756   1.309   0.452  10.543 -1.5886 -1.0535 -0.4009
 5105SOL    HW216757   1.353   0.573  10.463  1.6222 -1.0678  1.1874
 5106SOL     OW16758   1.231   0.355   6.339 -0.5387  0.3609 -0.0222
 5106SOL    HW116759   1.224   0.445   6.309 -1.9036 -0.3165 -1.9733
 5106SOL    HW216760   1.164   0.347   6.407 -1.1309  0.5730 -0.5726
 5107SOL     OW16761   7.715   1.985   4.538  0.3810  0.4268 -0.0099
 5107SOL    HW116762   7.694   1.893   4.521  0.1899  0.3485  0.6107
 5107SOL    HW216763   7.648   2.034   4.491  0.2809  0.2388 -0.0656
 5108SOL     OW16764   1.830   6.872  10.371 -0.2459  0.6056 -0.9392
 5108SOL    HW116765   1.850   6.791  10.325  0.4357 -0.5021  1.1642
 5108SOL    HW216766   1.915   6.913  10.385 -0.1497 -0.2385  1.2707
 5109SOL     OW16767   5.410   4.275   0.900  0.2591  0.2219 -0.6513
 5109SOL    HW116768   5.475   4.308   0.963  0.3640 -1.4293  0.1615
 5109SOL    HW216769   5.371   4.354   0.863  1.4812  1.2536  0.1478
 5110SOL     OW16770   3.016   1.536   8.367  0.2198 -0.2527  0.3373
 5110SOL    HW116771   2.995   1.496   8.452  2.1312 -1.3844  0.3469
 5110SOL    HW216772   3.003   1.466   8.304  2.2759 -0.5415  0.1761
 5111SOL     OW16773   3.369   2.849  10.659 -0.3473 -0.4221 -0.2464
 5111SOL    HW116774   3.289   2.850  10.606 -0.2818  0.0293 -0.3453
 5111SOL    HW216775   3.440   2.839  10.595 -0.2503  0.3943 -0.2814
 5112SOL     OW16776   2.885   7.969   0.222 -0.2066  0.2961 -0.0476
 5112SOL    HW116777   2.891   7.886   0.269  0.3020 -0.8189 -1.9663
 5112SOL    HW216778   2.975   7.988   0.197 -0.2775  1.6110  0.6249
 5113SOL     OW16779   0.975   4.375   6.249  0.3894  0.1352  0.1983
 5113SOL    HW116780   1.010   4.304   6.303  0.3077  0.0359  0.1193
 5113SOL    HW216781   0.964   4.448   6.310 -2.9677 -0.9612  1.1183
 5114SOL     OW16782   6.015   5.016   4.663 -0.4246  0.4975 -0.2776
 5114SOL    HW116783   6.041   5.099   4.622  0.2883  1.1760  1.4574
 5114SOL    HW216784   5.936   5.037   4.711 -0.1058  0.2448  0.3637
 5115SOL     OW16785   6.408   4.577   0.798 -0.6422 -0.0128  0.1821
 5115SOL    HW116786   6.402   4.661   0.844  0.3863 -0.3616  0.9977
 5115SOL    HW216787   6.340   4.523   0.838 -0.3156 -0.0397  0.7109
 5116SOL     OW16788   5.037   7.029   5.776  0.0340  0.0724  0.8543
 5116SOL    HW116789   5.102   7.049   5.708 -0.7896 -1.7636 -0.5642
 5116SOL    HW216790   5.088   6.988   5.846  0.7568  1.0270  0.9099
 5117SOL     OW16791   1.915   2.666   2.103 -0.2911  0.1509 -0.5090
 5117SOL    HW116792   1.880   2.605   2.038  1.4218  1.8497 -3.2093
 5117SOL    HW216793   1.990   2.621   2.141  0.9431  0.4459 -2.4600
 5118SOL     OW16794   3.450   1.433   8.839  0.0202  0.2981 -0.1636
 5118SOL    HW116795   3.507   1.373   8.888  0.4674  1.3118  0.5931
 5118SOL    HW216796   3.361   1.409   8.866  0.2624  0.9945  1.3828
 5119SOL     OW16797   1.895   5.955   6.634  0.2850  0.2076 -0.6805
 5119SOL    HW116798   1.929   6.034   6.676  2.3931 -1.6962  1.4546
 5119SOL    HW216799   1.800   5.965   6.638  0.4871  2.3111  0.1192
 5120SOL     OW16800   4.514   0.079   4.824 -0.4150 -0.1220 -0.3823
 5120SOL    HW116801   4.444   0.039   4.773  0.6156 -0.2977 -1.7304
 5120SOL    HW216802   4.578   0.107   4.758  1.2157 -0.8273  0.8532
 5121SOL     OW16803   6.375   1.386  10.093  0.1042 -0.5555  0.1261
 5121SOL    HW116804   6.328   1.383  10.010 -0.5922  0.3601  0.4639
 5121SOL    HW216805   6.416   1.473  10.094 -1.2329  0.1035  1.4235
 5122SOL     OW16806   6.536   5.393   0.496  0.0825  0.2194 -0.3001
 5122SOL    HW116807   6.576   5.345   0.569  1.6951  2.2475  0.2345
 5122SOL    HW216808   6.609   5.411   0.436 -0.3110  2.4337 -0.2046
 5123SOL     OW16809   7.785   0.735   9.634 -0.0573  0.1678  0.1998
 5123SOL    HW116810   7.713   0.740   9.696 -0.8403 -1.6442 -0.5024
 5123SOL    HW216811   7.860   0.771   9.681 -1.0158  0.4865  1.5365
 5124SOL     OW16812   0.062   3.773  11.036  0.2679  0.0053  0.0677
 5124SOL    HW116813   0.024   3.836  11.096  1.4883 -1.2819  2.3096
 5124SOL    HW216814   0.139   3.817  11.000  2.0068 -0.6198  2.7848
 5125SOL     OW16815   5.781   1.854   4.432 -0.0119  0.0852 -0.6142
 5125SOL    HW116816   5.756   1.947   4.428 -1.7280 -0.1032  2.6966
 5125SOL    HW216817   5.716   1.810   4.377  1.4371  0.8071 -3.0883
 5126SOL     OW16818   2.852   4.092  10.589 -0.3257 -0.1150 -0.3081
 5126SOL    HW116819   2.844   4.188  10.591  0.7466  0.0269 -1.6080
 5126SOL    HW216820   2.766   4.060  10.617 -0.5764  1.2145  0.5382
 5127SOL     OW16821   2.843   0.803   6.754 -0.0293  0.4890  0.5069
 5127SOL    HW116822   2.801   0.737   6.699  0.3228  1.7316 -1.3599
 5127SOL    HW216823   2.798   0.797   6.838 -0.6004 -1.4830  0.1054
 5128SOL     OW16824   3.514   2.707   2.237  0.8632  0.2591 -0.3502
 5128SOL    HW116825   3.608   2.712   2.253  0.8789  2.6256 -0.8318
 5128SOL    HW216826   3.502   2.623   2.192  2.5634 -0.5547  0.5813
 5129SOL     OW16827   6.490   4.598   5.686 -0.2801  0.2224  0.1288
 5129SOL    HW116828   6.529   4.585   5.600 -2.3444 -1.2241 -0.6650
 5129SOL    HW216829   6.538   4.537   5.743  1.6438  1.7609  0.2791
 5130SOL     OW16830   4.762   1.277  10.976 -0.3212  0.5524  0.0242
 5130SOL    HW116831   4.700   1.284  11.048  1.7597  0.7871  1.8962
 5130SOL    HW216832   4.765   1.183  10.956 -2.6602  0.7168 -1.4763
 5131SOL     OW16833   4.661   5.843   5.267  0.2433  0.4682 -0.3180
 5131SOL    HW116834   4.604   5.906   5.224 -1.5684 -1.6925 -1.2904
 5131SOL    HW216835   4.749   5.868   5.240 -0.2404  3.2532  0.3600
 5132SOL     OW16836   7.113   3.818   5.499 -0.9025 -0.0569  0.2237
 5132SOL    HW116837   7.076   3.783   5.418 -1.7535 -0.7743  0.8968
 5132SOL    HW216838   7.093   3.751   5.565 -1.4905  1.1340  1.3019
 5133SOL     OW16839   1.889   4.113   5.504  0.1792  0.0578  0.4141
 5133SOL    HW116840   1.936   4.075   5.430  0.8174  0.6481  0.5117
 5133SOL    HW216841   1.956   4.155   5.558 -0.2130 -0.7886  1.6065
 5134SOL     OW16842   3.332   2.764   6.561  0.1380  0.0165  0.0822
 5134SOL    HW116843   3.311   2.852   6.530 -0.0769 -0.1469 -0.2379
 5134SOL    HW216844   3.254   2.735   6.608  0.2015 -0.0118  0.1719
 5135SOL     OW16845   2.405   6.956  10.400 -0.4032  0.3569  0.1181
 5135SOL    HW116846   2.492   6.980  10.367 -0.0396 -1.7969 -0.6308
 5135SOL    HW216847   2.423   6.908  10.480 -0.8462 -0.5919 -0.3394
 5136SOL     OW16848   6.020   7.157   9.828 -0.9100 -0.3623  0.4179
 5136SOL    HW116849   5.945   7.109   9.863 -1.9262  1.0925  0.3309
 5136SOL    HW216850   5.988   7.195   9.746  0.3379 -0.7763 -0.2856
 5137SOL     OW16851   0.930   6.154   0.676  0.1186 -0.3389 -0.0491
 5137SOL    HW116852   0.883   6.124   0.598 -1.1055  1.1376  0.0817
 5137SOL    HW216853   0.886   6.112   0.749 -1.8684  1.9431  0.1672
 5138SOL     OW16854   2.752   3.446   0.970 -0.3093 -0.5651 -1.1810
 5138SOL    HW116855   2.718   3.387   0.902  0.3865 -2.5157  0.0793
 5138SOL    HW216856   2.682   3.451   1.035  0.2733 -1.4013 -0.4733
 5139SOL     OW16857   5.717   3.745   9.292  0.3044  0.1290  0.0016
 5139SOL    HW116858   5.736   3.745   9.386 -0.3825  0.8958  0.1583
 5139SOL    HW216859   5.734   3.655   9.263 -0.1760 -0.2914  1.0039
 5140SOL     OW16860   5.392   4.075   6.368 -0.9053 -0.1055 -0.0872
 5140SOL    HW116861   5.404   4.159   6.412 -1.7712 -0.0913  0.1301
 5140SOL    HW216862   5.392   4.010   6.438 -1.4164 -0.1701 -0.1482
 5141SOL     OW16863   2.195   4.355   5.751 -0.5274 -0.1992  0.3676
 5141SOL    HW116864   2.217   4.448   5.751 -1.4143  0.0525  1.6046
 5141SOL    HW216865   2.276   4.311   5.726  0.4603  0.8210  1.5830
 5142SOL     OW16866   6.998   3.365   7.566  0.0494  0.1955  0.4868
 5142SOL    HW116867   7.070   3.301   7.573  1.0551  1.2070 -0.2984
 5142SOL    HW216868   6.984   3.375   7.472 -0.4847  0.7177  0.6206
 5143SOL     OW16869   4.711   4.666   4.452 -0.1576 -0.4914 -0.4557
 5143SOL    HW116870   4.668   4.714   4.381 -1.7972 -3.6027 -1.7792
 5143SOL    HW216871   4.804   4.669   4.430 -0.2425  1.5331 -0.7353
 5144SOL     OW16872   4.745   0.930   4.236  0.0132 -0.4069 -0.5213
 5144SOL    HW116873   4.781   0.891   4.157  0.1722 -0.7773 -0.2685
 5144SOL    HW216874   4.684   0.864   4.270  2.3402 -1.7188  1.4590
 5145SOL     OW16875   2.942   3.865  11.401  0.3131 -0.6989  0.0712
 5145SOL    HW116876   2.885   3.789  11.390  1.2968 -1.3180 -0.9835
 5145SOL    HW216877   2.971   3.887  11.313  1.7312 -0.4304  0.5683
 5146SOL     OW16878   1.663   2.312   6.472  0.2020 -0.1798 -0.4984
 5146SOL    HW116879   1.589   2.342   6.418  1.5065  1.5450 -1.4353
 5146SOL    HW216880   1.645   2.220   6.488 -1.8513  0.0390 -1.1858
 5147SOL     OW16881   5.234   6.096   3.518 -0.7404 -0.9023 -0.7138
 5147SOL    HW116882   5.223   6.104   3.423  0.9429  2.0552 -0.7889
 5147SOL    HW216883   5.202   6.179   3.553  0.7061 -1.0225  1.0544
 5148SOL     OW16884   1.777   7.425   7.438  0.2129 -0.0789 -0.0643
 5148SOL    HW116885   1.719   7.500   7.427 -0.7803 -0.8092 -0.0299
 5148SOL    HW216886   1.719   7.355   7.469  0.8173 -1.2695 -1.5067
 5149SOL     OW16887   6.880   0.212   9.930  0.0114 -0.3113  0.2832
 5149SOL    HW116888   6.969   0.183   9.949 -0.0112 -0.5017  0.1052
 5149SOL    HW216889   6.859   0.273  10.000  1.0727  1.4133 -0.8310
 5150SOL     OW16890   7.071   5.415   3.721 -0.2015  0.1008  0.0253
 5150SOL    HW116891   7.155   5.461   3.720  0.3907 -0.9433  0.0498
 5150SOL    HW216892   7.081   5.349   3.790  0.1401 -2.1331 -2.0309
 5151SOL     OW16893   5.942   1.133  11.398 -0.0814 -0.2223 -0.0281
 5151SOL    HW116894   5.917   1.051  11.439  0.0830 -0.9882 -1.4035
 5151SOL    HW216895   6.024   1.113  11.352  0.0452  0.7500 -0.2529
 5152SOL     OW16896   5.354   4.549   2.541  0.0829  0.1287  0.0147
 5152SOL    HW116897   5.274   4.522   2.586  0.0392 -0.9690 -0.6847
 5152SOL    HW216898   5.420   4.554   2.611  0.0194 -1.5777  0.2541
 5153SOL     OW16899   2.354   5.824   2.389 -0.9589  0.7379 -0.1532
 5153SOL    HW116900   2.371   5.751   2.330 -1.5757  0.6605 -0.2437
 5153SOL    HW216901   2.405   5.897   2.353  0.7230  0.0272  0.6869
 5154SOL     OW16902   5.848   7.220   1.589 -0.3544 -0.3754 -0.4365
 5154SOL    HW116903   5.914   7.193   1.653  0.4429  2.4817  0.1142
 5154SOL    HW216904   5.875   7.179   1.507  2.0615  0.5456 -0.1815
 5155SOL     OW16905   7.566   5.132   2.547 -0.3506  0.0646 -0.6743
 5155SOL    HW116906   7.516   5.052   2.561 -0.7594  0.2211 -1.1991
 5155SOL    HW216907   7.650   5.102   2.512  0.0381 -0.2148  0.4618
 5156SOL     OW16908   0.934   5.035   2.580  0.3428  0.1010  0.2354
 5156SOL    HW116909   0.935   5.018   2.674 -0.7510  0.0010  0.2470
 5156SOL    HW216910   0.853   4.994   2.549  1.3324 -1.0178 -0.9927
 5157SOL     OW16911   2.158   0.574   4.446  0.1735  0.6555  0.5157
 5157SOL    HW116912   2.173   0.599   4.538 -0.0774  1.2637  0.3987
 5157SOL    HW216913   2.245   0.554   4.412  0.5267  2.2441  0.3820
 5158SOL     OW16914   4.904   0.747   6.742  0.2381  0.0796  0.4298
 5158SOL    HW116915   4.966   0.674   6.742 -1.1577 -1.1569  0.6206
 5158SOL    HW216916   4.885   0.763   6.835  1.2905  1.3841  0.4452
 5159SOL     OW16917   0.003   1.280   2.166 -0.0868  0.0799 -0.4386
 5159SOL    HW116918  -0.059   1.210   2.188  0.2231 -0.7277 -2.0160
 5159SOL    HW216919  -0.030   1.356   2.213 -1.7801 -0.5444 -0.5289
 5160SOL     OW16920   3.048   0.123   3.172  0.0314 -0.4931  0.2636
 5160SOL    HW116921   3.029   0.036   3.139 -0.3578 -0.1223 -0.5020
 5160SOL    HW216922   3.109   0.161   3.109  0.2912 -0.2498  0.6525
 5161SOL     OW16923   1.002   0.522  10.527 -0.7264  0.0454 -0.5923
 5161SOL    HW116924   0.997   0.431  10.497  2.8292 -0.1206 -1.0667
 5161SOL    HW216925   1.094   0.547  10.515 -0.9976  2.8878  1.9139
 5162SOL     OW16926   5.240   7.974   4.679  0.5348  0.5066  0.1475
 5162SOL    HW116927   5.197   8.044   4.629  1.6882 -0.0011 -1.6802
 5162SOL    HW216928   5.328   7.969   4.642  0.6336 -1.6157  0.5208
 5163SOL     OW16929   1.077   6.172   3.023 -0.0559  0.1136 -0.0459
 5163SOL    HW116930   0.996   6.223   3.027 -1.2027 -1.6625  2.3641
 5163SOL    HW216931   1.114   6.191   2.937 -1.8867  2.6724 -0.3747
 5164SOL     OW16932   2.942   3.572   4.306  0.1480  0.0474  0.1288
 5164SOL    HW116933   3.037   3.561   4.303  0.1359 -0.2149  0.5871
 5164SOL    HW216934   2.927   3.621   4.387  0.0900  2.2673 -1.1400
 5165SOL     OW16935   2.878   5.052   5.706  0.1619  0.1534  0.1909
 5165SOL    HW116936   2.801   5.024   5.656  0.0473 -0.3834  0.6667
 5165SOL    HW216937   2.927   4.971   5.721 -0.3305  0.1475  1.8581
 5166SOL     OW16938   1.766   3.979   4.062  0.0265  0.3707 -0.0859
 5166SOL    HW116939   1.705   4.053   4.061 -0.3270  0.0815 -0.6160
 5166SOL    HW216940   1.850   4.016   4.038 -0.2662  0.5036 -0.9326
 5167SOL     OW16941   7.059   3.580   6.430 -0.6381  0.4209  0.4076
 5167SOL    HW116942   7.150   3.569   6.460 -0.8113 -0.8481  0.5333
 5167SOL    HW216943   7.065   3.644   6.359  0.0650  1.9034  1.7625
 5168SOL     OW16944   4.762   5.231   1.617 -0.0971  0.4682 -0.1341
 5168SOL    HW116945   4.728   5.183   1.693 -0.5495 -0.4304 -0.8973
 5168SOL    HW216946   4.748   5.323   1.640  1.4545  0.3051  1.6628
 5169SOL     OW16947   2.476   7.803   7.125  0.0348 -0.3148 -0.3338
 5169SOL    HW116948   2.429   7.735   7.077 -0.4370 -0.9475  0.9718
 5169SOL    HW216949   2.559   7.761   7.148  1.0457  0.5913 -2.1005
 5170SOL     OW16950   2.378   5.009  12.422 -0.2701  0.3088  0.2697
 5170SOL    HW116951   2.366   5.099  12.391 -0.3214  0.5568  0.9673
 5170SOL    HW216952   2.341   5.010  12.511  0.9764 -0.0411  0.8215
 5171SOL     OW16953   6.959   5.440   5.903  0.3868  0.9755 -0.0275
 5171SOL    HW116954   6.933   5.528   5.878 -0.3874  0.3809 -1.4351
 5171SOL    HW216955   6.890   5.384   5.868 -0.1214 -0.0573  2.4194
 5172SOL     OW16956   6.919   2.614   8.722 -0.0167 -0.5008  0.0589
 5172SOL    HW116957   6.869   2.612   8.804 -1.4575  2.7536 -0.5738
 5172SOL    HW216958   6.999   2.662   8.744  0.0037 -0.3992 -0.2327
 5173SOL     OW16959   2.241   2.513   8.116 -0.5664 -0.6238 -0.1379
 5173SOL    HW116960   2.228   2.456   8.040 -1.3807  1.2228 -1.4383
 5173SOL    HW216961   2.326   2.487   8.151  0.3230 -0.8163 -2.3079
 5174SOL     OW16962   0.555   4.045  12.242  0.1453  0.2908  0.5407
 5174SOL    HW116963   0.593   4.012  12.160  1.3016 -1.4437  1.6941
 5174SOL    HW216964   0.465   4.013  12.241  0.3504 -0.2968  0.2496
 5175SOL     OW16965   2.351   1.458   1.604  0.0039  0.2399 -0.0946
 5175SOL    HW116966   2.412   1.517   1.559 -0.0868 -0.1341 -0.7250
 5175SOL    HW216967   2.337   1.386   1.542 -0.9278  0.2245  0.1166
 5176SOL     OW16968   2.943   4.728   4.368 -0.2196  0.5086 -0.3780
 5176SOL    HW116969   2.913   4.774   4.290  1.1356  2.7204  0.2875
 5176SOL    HW216970   3.028   4.692   4.343  0.3822  1.5243  0.1116
 5177SOL     OW16971   5.624   1.899   6.069  0.0609  0.5760  0.5745
 5177SOL    HW116972   5.568   1.948   6.129 -0.6690  1.2277 -0.6072
 5177SOL    HW216973   5.680   1.846   6.126 -2.1559 -0.5659  1.7864
 5178SOL     OW16974   1.264   7.758   7.709  0.3413  0.2423 -0.3268
 5178SOL    HW116975   1.335   7.762   7.644  0.6400 -1.2398 -0.1447
 5178SOL    HW216976   1.308   7.733   7.790 -0.0307  2.0707  0.4792
 5179SOL     OW16977   3.626   7.471   0.679 -0.0835 -0.2424  0.5977
 5179SOL    HW116978   3.646   7.509   0.764  1.0386  0.0960  0.1913
 5179SOL    HW216979   3.572   7.537   0.635  1.8510  0.9552 -0.1046
 5180SOL     OW16980   3.246   4.225  12.026  0.2182 -0.3041 -0.2767
 5180SOL    HW116981   3.202   4.147  12.061  0.3693  0.5870  2.0594
 5180SOL    HW216982   3.294   4.261  12.101  1.0676  1.4122 -1.5850
 5181SOL     OW16983   4.683   5.921   3.071  0.4347 -0.2273 -0.5971
 5181SOL    HW116984   4.648   5.957   2.989 -1.2132 -1.8067 -0.6464
 5181SOL    HW216985   4.711   5.832   3.048  0.2005 -0.5974  0.4848
 5182SOL     OW16986   7.346   0.994   1.062 -0.1402  0.1118 -0.4870
 5182SOL    HW116987   7.371   1.043   1.140 -0.3847 -0.8424  0.2120
 5182SOL    HW216988   7.304   0.915   1.096  2.7646 -2.0221 -1.4753
 5183SOL     OW16989   6.670   2.699   1.316  0.3135 -0.1227  0.3851
 5183SOL    HW116990   6.661   2.695   1.221  0.9460 -0.7762  0.3448
 5183SOL    HW216991   6.761   2.728   1.330  0.4398 -0.7073  0.7881
 5184SOL     OW16992   4.755   0.348   5.024 -0.6725 -0.3209 -0.3067
 5184SOL    HW116993   4.826   0.344   5.088 -0.2720  3.0942 -0.3782
 5184SOL    HW216994   4.785   0.292   4.952  1.1931 -0.2241  0.3484
 5185SOL     OW16995   6.104   3.200   6.415  0.6754 -0.0638 -0.2245
 5185SOL    HW116996   6.176   3.200   6.479  1.0638  0.0829 -0.6546
 5185SOL    HW216997   6.054   3.279   6.437  0.2011 -0.5624  0.5533
 5186SOL     OW16998   7.804   1.326   2.972 -0.2725  0.2736 -0.1822
 5186SOL    HW116999   7.711   1.311   2.958 -0.2411 -0.2072  0.0999
 5186SOL    HW217000   7.828   1.266   3.042  0.4201 -0.2015 -0.7989
 5187SOL     OW17001   4.010   3.924   2.824 -0.7570  0.2155 -0.0035
 5187SOL    HW117002   4.061   3.972   2.889 -1.5680  0.4766  0.4505
 5187SOL    HW217003   3.928   3.903   2.868 -0.4593 -1.5618 -0.2074
 5188SOL     OW17004   2.768   0.027   8.546 -0.1549  0.4460  0.3017
 5188SOL    HW117005   2.826   0.062   8.613  0.0053  2.7188 -0.8879
 5188SOL    HW217006   2.681   0.058   8.571 -0.5842 -1.2639  1.0223
 5189SOL     OW17007   6.745   6.364  12.302  0.4968  0.2525 -0.2513
 5189SOL    HW117008   6.679   6.389  12.368  1.5995  0.2531  0.8911
 5189SOL    HW217009   6.807   6.309  12.350  0.7307 -0.6895 -1.5783
 5190SOL     OW17010   1.413   3.430   5.518  0.0222  0.4668  0.0701
 5190SOL    HW117011   1.325   3.431   5.557  0.1737  0.1140  0.4373
 5190SOL    HW217012   1.437   3.522   5.511 -0.5594  0.5883 -0.4613
 5191SOL     OW17013   3.436   5.661  11.714  0.1523 -0.1247 -0.6212
 5191SOL    HW117014   3.403   5.638  11.801  3.6399  0.3156  1.0290
 5191SOL    HW217015   3.430   5.580  11.664  0.8850 -1.2963  1.0836
 5192SOL     OW17016   7.408   3.490  10.136 -0.5341  0.0073 -0.1201
 5192SOL    HW117017   7.487   3.526  10.177 -0.8999  1.6330 -0.7650
 5192SOL    HW217018   7.432   3.479  10.044 -1.3409  1.4953 -0.5354
 5193SOL     OW17019   0.632   4.003   3.830 -0.3281 -0.3594  0.1391
 5193SOL    HW117020   0.586   4.080   3.796  0.2672 -0.6762 -1.4807
 5193SOL    HW217021   0.648   3.949   3.753 -0.4038 -1.9459  1.1991
 5194SOL     OW17022   7.972   1.626   3.850  1.0233 -0.2463  0.4503
 5194SOL    HW117023   8.056   1.630   3.895  1.6545 -1.5386 -0.5634
 5194SOL    HW217024   7.993   1.603   3.760 -0.2039  2.3221 -0.5995
 5195SOL     OW17025   0.465   0.579   5.634  0.2078 -0.1943  0.2602
 5195SOL    HW117026   0.454   0.638   5.709  0.3035 -0.7796  0.7436
 5195SOL    HW217027   0.517   0.629   5.572 -1.4703  1.0255 -0.2471
 5196SOL     OW17028   2.178   0.841  12.318  0.2237  0.0926  0.1492
 5196SOL    HW117029   2.153   0.819  12.407  0.7538 -0.0963  0.2564
 5196SOL    HW217030   2.207   0.758  12.280  0.7492  0.3128  0.0576
 5197SOL     OW17031   0.854   7.269  11.030 -0.7875  0.4775 -0.1660
 5197SOL    HW117032   0.853   7.277  11.125  0.3027 -0.5359 -0.0464
 5197SOL    HW217033   0.939   7.305  11.004 -1.6744  2.1647 -0.9370
 5198SOL     OW17034   3.250   3.562  10.636  0.5543 -0.9052 -0.5645
 5198SOL    HW117035   3.331   3.515  10.620  0.0079 -1.9449 -0.3528
 5198SOL    HW217036   3.206   3.513  10.705 -0.3146 -0.4365 -0.7624
 5199SOL     OW17037   7.610   7.256   4.950  0.0410 -0.5093  0.1068
 5199SOL    HW117038   7.633   7.209   5.030  3.1441  0.1180 -0.2836
 5199SOL    HW217039   7.561   7.332   4.980 -0.7089 -1.4054  1.1948
 5200SOL     OW17040   3.608   6.247  12.188  0.5692  0.1443 -0.2622
 5200SOL    HW117041   3.699   6.261  12.161  0.1781 -1.5030 -2.7519
 5200SOL    HW217042   3.557   6.266  12.109 -1.2678  0.8136  1.0264
 5201SOL     OW17043   6.274   1.529   3.666  0.0370 -0.5083 -0.6785
 5201SOL    HW117044   6.317   1.445   3.653 -2.0528 -1.9420  0.9605
 5201SOL    HW217045   6.286   1.547   3.759 -1.1759  0.0389 -0.6181
 5202SOL     OW17046   4.683   2.925   5.497  0.1485  0.0700  0.0518
 5202SOL    HW117047   4.690   2.966   5.410  0.3125 -1.1933 -0.5541
 5202SOL    HW217048   4.625   2.983   5.546  1.6429  1.8909 -0.2224
 5203SOL     OW17049   6.655   3.057   6.774  0.0967 -0.3241  0.4126
 5203SOL    HW117050   6.666   3.118   6.847 -1.0272  1.4834 -0.8556
 5203SOL    HW217051   6.590   2.994   6.806 -1.3337  1.1838  0.5856
 5204SOL     OW17052   5.501   5.238  10.247 -0.2747  0.1823  0.0222
 5204SOL    HW117053   5.452   5.204  10.322  0.9853 -1.2207  0.2486
 5204SOL    HW217054   5.591   5.246  10.278 -0.0641  1.3821 -0.8043
 5205SOL     OW17055   4.932   0.915  11.844  0.6983  0.1393  0.6334
 5205SOL    HW117056   4.889   0.987  11.799 -3.0647 -1.9952  0.3529
 5205SOL    HW217057   4.930   0.939  11.937  1.5008  1.2576  0.3780
 5206SOL     OW17058   2.227   6.558   2.643  0.0181  0.0789  0.8026
 5206SOL    HW117059   2.321   6.568   2.658 -0.0588  1.2319  0.6004
 5206SOL    HW217060   2.203   6.633   2.588 -0.7910 -0.8937 -0.2047
 5207SOL     OW17061   7.008   1.122   3.386  0.4589 -0.3474  0.2922
 5207SOL    HW117062   7.033   1.206   3.425  1.0144 -0.6307  0.5566
 5207SOL    HW217063   6.976   1.069   3.459 -0.3062 -0.2197  0.0582
 5208SOL     OW17064   4.107   0.413  11.920  0.1758 -0.3385  0.1777
 5208SOL    HW117065   4.049   0.340  11.896 -0.8307  0.9610 -1.5917
 5208SOL    HW217066   4.195   0.376  11.914 -0.3213 -1.4843 -0.4209
 5209SOL     OW17067   1.528   4.901   2.124 -0.6216  0.3911  0.1764
 5209SOL    HW117068   1.446   4.851   2.133 -0.7516  0.7079  0.8772
 5209SOL    HW217069   1.520   4.947   2.041 -0.0519 -1.5475 -1.0172
 5210SOL     OW17070   3.240   1.978  11.387  0.2834  0.5090  0.1254
 5210SOL    HW117071   3.309   1.923  11.351 -0.4533  0.8484 -1.9483
 5210SOL    HW217072   3.159   1.942  11.351 -0.8209 -0.5534  3.3322
 5211SOL     OW17073   3.164   7.081  10.687 -0.3229  0.1140  0.5551
 5211SOL    HW117074   3.235   7.123  10.640  0.1824  0.1944  1.3781
 5211SOL    HW217075   3.109   7.042  10.619  0.3219  0.3424 -0.0962
 5212SOL     OW17076   7.767   0.482   7.860  0.6524  0.1262 -0.0642
 5212SOL    HW117077   7.721   0.529   7.930  0.8352 -0.1033  0.2112
 5212SOL    HW217078   7.796   0.551   7.800  0.1699  0.2940 -0.1137
 5213SOL     OW17079   3.607   7.189   1.527 -0.9107  0.6220 -0.1149
 5213SOL    HW117080   3.682   7.247   1.537 -1.5965  1.7943 -1.4647
 5213SOL    HW217081   3.570   7.183   1.615  0.6684  0.0991  0.5527
 5214SOL     OW17082   1.351   6.193   6.251  0.1218 -0.4447  0.3063
 5214SOL    HW117083   1.280   6.235   6.301  0.0665 -0.2203  0.0413
 5214SOL    HW217084   1.425   6.194   6.311  0.7081  1.8711 -0.3678
 5215SOL     OW17085   3.389   1.746   7.373 -0.0453  0.0856  0.0920
 5215SOL    HW117086   3.376   1.837   7.345 -0.2704 -0.0739 -0.3335
 5215SOL    HW217087   3.479   1.726   7.346 -0.7562 -0.5821 -2.0617
 5216SOL     OW17088   3.381   7.712   0.134  0.0065 -0.0537 -0.2500
 5216SOL    HW117089   3.351   7.801   0.119  0.3706 -0.2850 -2.8851
 5216SOL    HW217090   3.369   7.668   0.049 -2.5425 -3.2632  1.5162
 5217SOL     OW17091   1.868   4.540   7.740 -0.3458 -0.2861 -0.3412
 5217SOL    HW117092   1.917   4.620   7.761 -1.1462  1.4143 -4.1325
 5217SOL    HW217093   1.781   4.556   7.776 -0.0782 -0.1820  0.2801
 5218SOL     OW17094   6.903   0.852  10.349  0.1616 -0.2967 -0.3736
 5218SOL    HW117095   6.862   0.852  10.262  0.0717  1.2995 -0.3505
 5218SOL    HW217096   6.842   0.900  10.405  1.7529  1.6605 -0.2160
 5219SOL     OW17097   4.352   6.530   6.951  0.2797  0.3262 -0.2682
 5219SOL    HW117098   4.377   6.453   6.899  1.7465  1.4525 -1.3095
 5219SOL    HW217099   4.391   6.515   7.036 -0.5068 -0.6418 -0.0587
 5220SOL     OW17100   6.034   3.642   1.599 -0.0698  0.4917 -0.9038
 5220SOL    HW117101   6.084   3.644   1.681  1.8658 -1.7387 -1.9245
 5220SOL    HW217102   6.057   3.724   1.556 -0.3271  1.2316  0.2968
 5221SOL     OW17103   6.446   2.028   3.891 -0.3576 -0.0948 -0.1947
 5221SOL    HW117104   6.409   2.033   3.803  0.4289  2.0108 -0.4639
 5221SOL    HW217105   6.525   1.975   3.881 -0.3580 -0.0007 -0.7211
 5222SOL     OW17106   6.889   2.907   8.172 -0.5834 -0.1467 -0.2443
 5222SOL    HW117107   6.809   2.874   8.131 -0.7774  0.3221 -0.2454
 5222SOL    HW217108   6.872   3.000   8.186  0.8945  0.5500 -2.5226
 5223SOL     OW17109   0.371   3.566  10.613 -0.0889  0.2431 -0.1711
 5223SOL    HW117110   0.392   3.481  10.574  2.3366  1.1465 -1.0127
 5223SOL    HW217111   0.452   3.594  10.655 -1.3629  1.3796  1.6599
 5224SOL     OW17112   7.200   1.751   9.564 -0.5418 -0.2142  0.2978
 5224SOL    HW117113   7.125   1.725   9.617 -0.7731 -1.8098 -0.7356
 5224SOL    HW217114   7.271   1.695   9.595 -0.6778 -1.1615 -1.0079
 5225SOL     OW17115   7.714   2.539   5.584  0.2478  0.3122 -0.2647
 5225SOL    HW117116   7.741   2.450   5.563 -3.3161 -1.0262  0.1208
 5225SOL    HW217117   7.696   2.537   5.678  0.2497  1.4652 -0.2322
 5226SOL     OW17118   3.658   4.103   6.377 -0.2372  0.1288  0.7502
 5226SOL    HW117119   3.623   4.110   6.288  0.5838 -2.7300  0.1044
 5226SOL    HW217120   3.753   4.102   6.365 -0.1036 -3.0697  1.2623
 5227SOL     OW17121   6.587   7.459   5.974  0.3243 -0.0334 -0.1960
 5227SOL    HW117122   6.559   7.548   5.995  2.2375  0.9812 -1.6166
 5227SOL    HW217123   6.516   7.423   5.920  0.8548  1.8211 -2.2818
 5228SOL     OW17124   5.226   3.513   1.978 -0.1353  0.1932  0.1720
 5228SOL    HW117125   5.285   3.587   1.963 -2.0292  1.6105 -0.7927
 5228SOL    HW217126   5.143   3.554   2.001 -0.4460 -1.7601  2.9745
 5229SOL     OW17127   3.667   5.767   2.129 -1.0597  0.8874 -0.4829
 5229SOL    HW117128   3.705   5.730   2.050 -1.0010  1.5012 -0.7475
 5229SOL    HW217129   3.687   5.860   2.125 -0.8162  0.8866  0.3938
 5230SOL     OW17130   4.751   2.279  10.837 -0.4032  0.3747 -0.6339
 5230SOL    HW117131   4.746   2.339  10.912  1.0585  0.6208 -0.7106
 5230SOL    HW217132   4.817   2.215  10.862 -1.2212 -0.6394 -0.9826
 5231SOL     OW17133   4.550   7.832   7.475  0.2423  0.3536 -0.2645
 5231SOL    HW117134   4.513   7.888   7.543 -3.8420  0.2260 -2.0971
 5231SOL    HW217135   4.600   7.891   7.419  2.2559  0.7233  1.7608
 5232SOL     OW17136   3.810   5.736   3.653 -0.3418  0.2393  0.2771
 5232SOL    HW117137   3.738   5.727   3.590 -0.9708  3.0384  0.4792
 5232SOL    HW217138   3.776   5.695   3.733 -1.1103  0.1961 -0.0531
 5233SOL     OW17139   6.186   5.642   5.161 -0.0102 -0.0962 -0.2895
 5233SOL    HW117140   6.179   5.575   5.229 -2.3419 -0.2034 -0.5490
 5233SOL    HW217141   6.222   5.719   5.206 -1.2003 -0.2697  1.0203
 5234SOL     OW17142   7.838   1.573   8.772  0.3377 -0.4383 -0.1954
 5234SOL    HW117143   7.818   1.480   8.772 -0.0683 -0.3528 -0.0613
 5234SOL    HW217144   7.929   1.578   8.743  0.9364 -1.0021  1.4625
 5235SOL     OW17145   6.651   5.809   7.184  0.5728  0.8068  0.0045
 5235SOL    HW117146   6.712   5.742   7.216 -0.0201 -0.0166 -0.5462
 5235SOL    HW217147   6.569   5.762   7.172 -0.0385  1.7905  0.2423
 5236SOL     OW17148   0.274   7.811  12.346 -0.5618 -0.3612  0.0828
 5236SOL    HW117149   0.331   7.846  12.278 -2.5069  0.1865 -1.3580
 5236SOL    HW217150   0.333   7.790  12.419  1.1909  2.2629 -0.4361
 5237SOL     OW17151   2.404   0.882   4.015  0.5101 -0.2958 -0.4498
 5237SOL    HW117152   2.353   0.826   3.955 -1.3011  1.4458 -0.6443
 5237SOL    HW217153   2.437   0.952   3.960 -0.5015  0.8893  0.4063
 5238SOL     OW17154   0.562   6.386   1.828 -0.1968  0.8319 -0.1050
 5238SOL    HW117155   0.525   6.373   1.916 -0.2920  1.4782 -0.0455
 5238SOL    HW217156   0.486   6.390   1.770 -0.1783  1.2261 -0.1056
 5239SOL     OW17157   7.055   3.048   2.383 -0.2974 -0.0347  0.3697
 5239SOL    HW117158   7.093   3.124   2.428  0.8737 -0.4099  0.0521
 5239SOL    HW217159   7.039   2.985   2.453 -1.1623  0.4424  0.6193
 5240SOL     OW17160   0.639   1.871   2.841 -0.3106  0.1651 -0.2907
 5240SOL    HW117161   0.630   1.914   2.926  0.2373 -0.7341  0.2462
 5240SOL    HW217162   0.551   1.838   2.821 -0.4478  0.4044 -0.0848
 5241SOL     OW17163   1.430   7.769   1.662 -0.0548 -0.4658  0.0821
 5241SOL    HW117164   1.339   7.799   1.667 -0.3323 -1.3797  0.7581
 5241SOL    HW217165   1.459   7.794   1.574 -0.7825  0.3024  0.0463
 5242SOL     OW17166   0.240   0.939   6.937  0.7356  0.3339 -0.2017
 5242SOL    HW117167   0.240   0.848   6.905  0.7390  0.4709 -0.6052
 5242SOL    HW217168   0.161   0.945   6.991  2.0537 -0.6178  1.9316
 5243SOL     OW17169   2.719   0.118   3.428  0.2205  0.0275  0.6388
 5243SOL    HW117170   2.696   0.109   3.335  0.1837  0.2181  0.6282
 5243SOL    HW217171   2.785   0.187   3.430  1.3887 -1.0582  0.5841
 5244SOL     OW17172   5.723   7.889  12.201  0.1478  0.0312 -0.1379
 5244SOL    HW117173   5.715   7.813  12.259 -1.6654 -0.0915 -0.5097
 5244SOL    HW217174   5.786   7.860  12.134 -0.2030 -1.0003 -0.0464
 5245SOL     OW17175   2.888   0.917   9.345  0.6809 -0.1271 -0.3087
 5245SOL    HW117176   2.803   0.931   9.304  0.0111  2.5483  1.6610
 5245SOL    HW217177   2.870   0.923   9.439  3.1607  1.8205  0.1637
 5246SOL     OW17178   0.944   6.935   9.259 -0.5318 -0.7270 -0.6642
 5246SOL    HW117179   0.945   6.866   9.325 -0.9791 -0.9708 -0.9098
 5246SOL    HW217180   0.875   6.995   9.287  0.3872  0.0596 -0.0143
 5247SOL     OW17181   6.879   0.180   9.387  0.3064 -0.2152 -0.2842
 5247SOL    HW117182   6.813   0.147   9.326 -0.2473 -0.5958  0.5136
 5247SOL    HW217183   6.933   0.104   9.407  1.6599  0.3122 -1.7423
 5248SOL     OW17184   1.434   0.214   3.646 -0.0638  0.1444  0.2193
 5248SOL    HW117185   1.361   0.259   3.602  0.7962 -0.4564 -1.9245
 5248SOL    HW217186   1.507   0.274   3.639 -0.0429  0.2876  1.4187
 5249SOL     OW17187   2.583   5.057   7.400  0.1973  0.4702  0.4965
 5249SOL    HW117188   2.618   4.977   7.360  1.6295  0.8316  0.9670
 5249SOL    HW217189   2.563   5.114   7.325 -0.4643 -0.1658  0.1773
 5250SOL     OW17190   2.213   0.088   1.967  0.2236  0.0769 -0.2289
 5250SOL    HW117191   2.258   0.031   2.029 -1.5661 -0.7437  0.3757
 5250SOL    HW217192   2.222   0.176   2.005  0.6010 -0.1831  0.2981
 5251SOL     OW17193   4.637   3.132   3.310  0.0973  0.0758  0.2703
 5251SOL    HW117194   4.616   3.065   3.375  0.2601  0.5536  0.8222
 5251SOL    HW217195   4.646   3.083   3.228 -1.0437 -0.4166  0.4082
 5252SOL     OW17196   7.673   5.766   4.615  0.8582  0.1462 -0.1123
 5252SOL    HW117197   7.727   5.804   4.546  0.8802  2.8228  1.2820
 5252SOL    HW217198   7.727   5.772   4.694  0.3920 -1.7881  0.4042
 5253SOL     OW17199   5.302   2.912   6.417  0.5978  0.1099 -0.4708
 5253SOL    HW117200   5.257   2.989   6.382  0.2361  0.1822  0.1367
 5253SOL    HW217201   5.235   2.843   6.416  0.9631 -0.2442 -1.1551
 5254SOL     OW17202   3.293   2.767   3.464  0.1117 -0.6618  0.3354
 5254SOL    HW117203   3.250   2.819   3.531  2.4854  0.8391  0.8383
 5254SOL    HW217204   3.242   2.686   3.459 -1.1984 -0.0624  2.6401
 5255SOL     OW17205   6.718   2.598   9.446  0.0589 -0.1724  0.6023
 5255SOL    HW117206   6.636   2.547   9.448  0.3567 -0.6719  0.4713
 5255SOL    HW217207   6.690   2.688   9.435 -0.4751 -0.3600  0.3678
 5256SOL     OW17208   5.938   2.447   3.809 -0.1455 -0.3167  0.1740
 5256SOL    HW117209   5.922   2.504   3.735 -1.3716 -0.8473  0.0100
 5256SOL    HW217210   5.895   2.364   3.786  0.5820 -0.9250  0.9100
 5257SOL     OW17211   6.211   2.006   0.371 -0.5188  0.5785  0.4089
 5257SOL    HW117212   6.266   2.083   0.388  1.2717 -0.5780  0.1415
 5257SOL    HW217213   6.273   1.935   0.354 -2.1100 -0.9898  0.8191
 5258SOL     OW17214   1.415   2.325   7.380  0.1437  0.8439 -0.2550
 5258SOL    HW117215   1.354   2.398   7.383 -1.5477 -0.5277  0.8905
 5258SOL    HW217216   1.407   2.289   7.292 -0.2122  1.0573 -0.3071
 5259SOL     OW17217   5.788   6.203  10.694  0.0978  0.4169 -0.1128
 5259SOL    HW117218   5.817   6.292  10.671 -0.0454  0.6770  0.6691
 5259SOL    HW217219   5.866   6.149  10.686  0.2828  0.6943 -0.2007
 5260SOL     OW17220   3.489   5.922   1.897  0.2297 -0.6486 -0.2494
 5260SOL    HW117221   3.477   5.838   1.942 -1.3087 -0.0350  0.5582
 5260SOL    HW217222   3.529   5.979   1.962  0.7933 -0.5873 -0.6371
 5261SOL     OW17223   6.621   0.331   4.207  0.1944  0.0458 -0.0035
 5261SOL    HW117224   6.528   0.353   4.206 -0.0227 -0.7590  1.2818
 5261SOL    HW217225   6.624   0.236   4.213  1.0903  0.1053  0.8287
 5262SOL     OW17226   4.753   0.959   7.531  0.2704 -0.1385 -0.1703
 5262SOL    HW117227   4.687   1.016   7.491  1.1872  0.8275 -0.3448
 5262SOL    HW217228   4.719   0.871   7.517 -1.6040  0.3598  0.8442
 5263SOL     OW17229   1.101   3.316   5.387 -0.8656  0.1017 -0.0909
 5263SOL    HW117230   1.142   3.344   5.469  0.0875 -1.1573 -0.0980
 5263SOL    HW217231   1.136   3.375   5.321  0.3059 -0.4195  0.0410
 5264SOL     OW17232   1.653   4.321   7.220 -0.1541  0.3568  0.3843
 5264SOL    HW117233   1.666   4.300   7.127  2.8567 -0.6918  0.9362
 5264SOL    HW217234   1.613   4.242   7.257 -0.5465  0.4485  0.1665
 5265SOL     OW17235   3.889   2.434   6.294 -0.0086  0.1796  0.0127
 5265SOL    HW117236   3.959   2.369   6.299 -0.6667 -0.4722  0.9656
 5265SOL    HW217237   3.820   2.400   6.351 -0.9884  0.9582 -0.6707
 5266SOL     OW17238   6.137   2.312   4.649 -0.0792 -0.3519 -0.2481
 5266SOL    HW117239   6.221   2.350   4.625  0.5451  0.3222  2.6221
 5266SOL    HW217240   6.076   2.385   4.647 -0.4484 -0.6804 -1.5584
 5267SOL     OW17241   6.024   7.794   0.137  0.5180  0.2317  0.1232
 5267SOL    HW117242   5.933   7.775   0.158 -0.5278  1.4343 -2.7636
 5267SOL    HW217243   6.037   7.756   0.050  2.0319  2.0303 -0.5110
 5268SOL     OW17244   6.195   2.966   8.602 -0.0241 -0.3110 -0.2748
 5268SOL    HW117245   6.208   2.872   8.603 -0.1618 -0.3323  0.9361
 5268SOL    HW217246   6.150   2.985   8.684  1.4043  0.9978  0.2593
 5269SOL     OW17247   5.337   3.775   0.933 -0.0060 -0.1010  0.7551
 5269SOL    HW117248   5.429   3.794   0.948  0.1459  1.1069 -1.3023
 5269SOL    HW217249   5.290   3.847   0.976  0.2532  1.3992 -1.3143
 5270SOL     OW17250   6.908   2.632   5.388  1.3412 -0.0662  0.4553
 5270SOL    HW117251   6.938   2.690   5.457 -1.5790  1.5489  0.5557
 5270SOL    HW217252   6.818   2.609   5.413  0.2219  0.4286 -2.6330
 5271SOL     OW17253   1.577   3.183   0.688 -0.1745 -0.1016 -0.0194
 5271SOL    HW117254   1.605   3.092   0.698 -0.3608 -0.0797  0.7615
 5271SOL    HW217255   1.589   3.201   0.595 -0.4850 -1.0414 -0.2596
 5272SOL     OW17256   3.730   2.811  11.811  0.0420  0.1888 -0.1122
 5272SOL    HW117257   3.689   2.826  11.896 -1.2960 -0.4350 -0.6298
 5272SOL    HW217258   3.734   2.897  11.770 -2.2288  0.0700 -0.6869
 5273SOL     OW17259   2.258   5.611   8.510  0.5323  0.2740  0.3012
 5273SOL    HW117260   2.326   5.572   8.455 -0.2649 -0.1702 -0.3807
 5273SOL    HW217261   2.277   5.579   8.598  0.7586 -0.4688 -0.0094
 5274SOL     OW17262   0.414   4.236   8.689 -0.0184 -0.5332 -0.1448
 5274SOL    HW117263   0.482   4.275   8.634 -1.2509  2.1391  0.0809
 5274SOL    HW217264   0.443   4.251   8.778 -1.4061  1.7782 -0.0194
 5275SOL     OW17265   4.540   7.059   5.463  0.4944 -0.5472 -0.1256
 5275SOL    HW117266   4.549   7.132   5.524 -0.3574  0.8060 -1.5469
 5275SOL    HW217267   4.527   6.982   5.519  1.8638  0.2892  1.4181
 5276SOL     OW17268   6.020   0.138  12.267 -0.8019  0.0864  0.0559
 5276SOL    HW117269   6.055   0.127  12.179 -2.1617 -2.2362 -0.2726
 5276SOL    HW217270   6.091   0.110  12.325  0.1157  1.6798 -0.2374
 5277SOL     OW17271   0.244   0.128   4.461  0.4054  0.4313 -0.0024
 5277SOL    HW117272   0.192   0.051   4.438  0.0793  0.6509  0.0048
 5277SOL    HW217273   0.182   0.201   4.461  0.1123  0.2839  2.6789
 5278SOL     OW17274   1.984   2.124   6.699 -0.2067 -0.3703 -0.1634
 5278SOL    HW117275   1.935   2.047   6.728  1.0407 -1.0410  0.2373
 5278SOL    HW217276   2.062   2.124   6.754  0.0997  0.8501 -0.5750
 5279SOL     OW17277   7.514   4.478   0.283  0.8690 -0.0511  0.1328
 5279SOL    HW117278   7.564   4.486   0.202  2.1119  0.2233  0.9055
 5279SOL    HW217279   7.469   4.394   0.275 -0.4789  0.7554 -1.6034
 5280SOL     OW17280   1.800   6.263   7.797 -0.0448  0.4052 -0.4184
 5280SOL    HW117281   1.727   6.300   7.847 -3.3042 -1.7223 -3.1240
 5280SOL    HW217282   1.821   6.331   7.733  0.8482  1.2470  0.7149
 5281SOL     OW17283   6.134   4.278   9.059  0.0333 -0.0289 -0.0991
 5281SOL    HW117284   6.089   4.361   9.045 -0.3824 -0.3030 -0.4397
 5281SOL    HW217285   6.083   4.235   9.128  0.4276  0.1257  0.2915
 5282SOL     OW17286   6.175   6.336   4.982 -0.1932  0.4497  0.0887
 5282SOL    HW117287   6.237   6.388   4.931  0.0574  0.2992  0.2409
 5282SOL    HW217288   6.121   6.401   5.027 -0.3389  0.5834 -0.2732
 5283SOL     OW17289   4.624   4.344   8.749  0.1364 -0.3597 -0.4929
 5283SOL    HW117290   4.615   4.258   8.709 -1.0821 -0.8407  0.7219
 5283SOL    HW217291   4.594   4.406   8.682  0.0771 -0.9748 -1.0328
 5284SOL     OW17292   3.596   4.640   3.432  0.1380 -0.1618 -0.1656
 5284SOL    HW117293   3.605   4.678   3.345  1.1086  0.2158  0.0875
 5284SOL    HW217294   3.627   4.709   3.491 -3.3699  0.8249  0.7664
 5285SOL     OW17295   4.115   3.947  10.819 -0.4364 -0.2094  0.3538
 5285SOL    HW117296   4.049   3.949  10.750  0.3446  1.8454 -0.4169
 5285SOL    HW217297   4.159   4.032  10.813  1.2133 -0.8788  1.8795
 5286SOL     OW17298   1.132   2.437   7.047  0.9507  0.4830 -0.2331
 5286SOL    HW117299   1.172   2.524   7.059 -0.7020  1.1922  0.4407
 5286SOL    HW217300   1.051   2.441   7.097  0.3895 -1.1590 -0.9506
 5287SOL     OW17301   2.368   4.325   8.685 -0.3813  0.4975 -0.6296
 5287SOL    HW117302   2.326   4.337   8.771 -1.0256  0.6066 -0.9543
 5287SOL    HW217303   2.418   4.406   8.671 -1.3928  1.0769 -0.9709
 5288SOL     OW17304   5.809   2.978   9.850 -0.0397 -0.0834  0.1351
 5288SOL    HW117305   5.739   2.986   9.785  1.6073  0.1644 -1.7288
 5288SOL    HW217306   5.804   3.057   9.902 -0.5046  0.4339 -0.6783
 5289SOL     OW17307   4.609   2.455   0.835 -0.4523  0.0747 -0.4866
 5289SOL    HW117308   4.682   2.502   0.794 -0.3021 -0.4675 -0.8700
 5289SOL    HW217309   4.581   2.392   0.768 -0.5682 -0.4524  0.0446
 5290SOL     OW17310   3.179   0.327   6.538 -0.2878 -0.0750 -0.2034
 5290SOL    HW117311   3.236   0.335   6.615  0.2186  0.4206 -0.6274
 5290SOL    HW217312   3.093   0.307   6.575  0.2322 -1.2879  0.4251
 5291SOL     OW17313   6.562   4.650   4.001 -0.5678  0.2222 -0.0008
 5291SOL    HW117314   6.498   4.580   4.011 -0.9021  0.7323  1.7782
 5291SOL    HW217315   6.592   4.668   4.090 -0.0706  1.9349 -0.4770
 5292SOL     OW17316   4.423   6.166  12.433 -0.4624  0.7211 -0.0329
 5292SOL    HW117317   4.494   6.108  12.405  0.0420  0.2955  1.9446
 5292SOL    HW217318   4.347   6.109  12.441 -0.8884  1.0535 -1.5298
 5293SOL     OW17319   7.829   3.793   1.431  0.0252 -0.3469  0.1520
 5293SOL    HW117320   7.774   3.818   1.357 -0.3177 -0.4599  0.3644
 5293SOL    HW217321   7.767   3.759   1.497  0.4259 -1.3059  0.0556
 5294SOL     OW17322   5.120   2.787  11.426  0.0016 -0.2780 -0.0108
 5294SOL    HW117323   5.179   2.832  11.365 -1.7969  2.7938  0.2590
 5294SOL    HW217324   5.137   2.828  11.510 -0.8252 -1.0790  0.5648
 5295SOL     OW17325   3.537   5.985   8.848  0.1419 -0.2057 -0.3825
 5295SOL    HW117326   3.482   5.914   8.882  0.2711 -0.5986 -0.9676
 5295SOL    HW217327   3.475   6.051   8.818 -0.0183 -0.5406 -0.8126
 5296SOL     OW17328   5.024   2.745   3.980 -0.0916 -0.0561  0.8747
 5296SOL    HW117329   5.058   2.701   3.903  0.3179  2.0761 -0.2314
 5296SOL    HW217330   5.101   2.780   4.025 -0.4795  0.9160  0.8220
 5297SOL     OW17331   4.776   2.881   3.984  0.4998 -0.3079  0.6007
 5297SOL    HW117332   4.865   2.846   3.997  1.4450  0.6012 -2.5573
 5297SOL    HW217333   4.729   2.810   3.940  0.6464  0.2824 -0.5385
 5298SOL     OW17334   3.994   2.986   8.052 -0.8458  0.2380 -0.0675
 5298SOL    HW117335   3.916   3.041   8.045 -1.8621 -0.9270  1.3817
 5298SOL    HW217336   3.993   2.954   8.142  1.2513  0.0710 -0.0630
 5299SOL     OW17337   2.883   3.242   6.778  0.1296  0.1336  0.7233
 5299SOL    HW117338   2.889   3.252   6.683 -0.1263 -1.7783  0.4652
 5299SOL    HW217339   2.969   3.267   6.811 -0.1879  2.1442  0.1592
 5300SOL     OW17340   7.294   2.487   6.358 -0.2840 -0.3898  0.0763
 5300SOL    HW117341   7.370   2.441   6.324 -0.6756 -1.2817  0.3644
 5300SOL    HW217342   7.220   2.447   6.313 -0.7132 -0.7598  1.0715
 5301SOL     OW17343   3.311   0.370   7.646  0.3254 -0.2591  0.4803
 5301SOL    HW117344   3.397   0.333   7.669  0.9381  1.2102  0.6426
 5301SOL    HW217345   3.267   0.382   7.730 -0.5271 -2.0402  0.3433
 5302SOL     OW17346   2.605   4.536   1.641 -0.0684 -0.7031  0.2854
 5302SOL    HW117347   2.695   4.522   1.611  0.4119  1.3090  0.6475
 5302SOL    HW217348   2.612   4.537   1.737 -0.4494 -0.3703  0.3112
 5303SOL     OW17349   0.267   2.859  10.721 -0.1869  0.0906 -0.2536
 5303SOL    HW117350   0.361   2.869  10.705 -0.4178  0.2257 -1.7423
 5303SOL    HW217351   0.234   2.817  10.641 -1.3168 -0.4275  0.4622
 5304SOL     OW17352   1.457   0.548   2.429 -0.2192  0.2331 -0.2721
 5304SOL    HW117353   1.405   0.537   2.509 -1.2074  0.6290 -0.8345
 5304SOL    HW217354   1.544   0.573   2.459 -0.2482 -0.8028  0.7136
 5305SOL     OW17355   4.231   4.363   0.233  0.2273  0.3151 -0.1805
 5305SOL    HW117356   4.254   4.285   0.283 -0.6273 -0.0170 -0.2995
 5305SOL    HW217357   4.216   4.431   0.299 -1.2457 -0.2106  0.0637
 5306SOL     OW17358   5.952   2.520   4.700 -0.2584  0.4654 -0.1870
 5306SOL    HW117359   5.914   2.593   4.653  0.0849  1.1181  0.5239
 5306SOL    HW217360   5.888   2.498   4.768 -0.3692  0.0927 -0.4097
 5307SOL     OW17361   6.362   5.746  10.954  0.0274  0.1674 -0.2988
 5307SOL    HW117362   6.330   5.661  10.985 -1.5426  0.8673  0.1473
 5307SOL    HW217363   6.351   5.742  10.859 -0.3291 -0.0331 -0.2537
 5308SOL     OW17364   0.733   2.683   3.939  0.3507  0.2791  0.5265
 5308SOL    HW117365   0.827   2.676   3.919  0.5110  1.1512  0.9283
 5308SOL    HW217366   0.705   2.761   3.892 -0.3806 -0.4458 -0.2815
 5309SOL     OW17367   2.122   3.400   5.841 -0.0271 -0.7941  0.1822
 5309SOL    HW117368   2.201   3.360   5.878  0.9590  1.8721  1.2468
 5309SOL    HW217369   2.079   3.440   5.916  0.6404  2.5601 -1.0506
 5310SOL     OW17370   4.086   7.938   7.688  0.1573 -0.2447  0.6272
 5310SOL    HW117371   4.161   7.888   7.720 -0.2331 -0.8588  0.5980
 5310SOL    HW217372   4.097   8.025   7.726  2.0590  0.3619 -1.0910
 5311SOL     OW17373   2.161   0.818   0.595 -0.0912  0.3171  0.0178
 5311SOL    HW117374   2.188   0.735   0.555  0.3210  0.5962 -0.2860
 5311SOL    HW217375   2.218   0.828   0.671  0.7039  0.9183 -0.6378
 5312SOL     OW17376   4.232   5.354   5.780 -0.3438  0.0113 -0.3068
 5312SOL    HW117377   4.151   5.371   5.732 -0.5932  1.5636  0.5773
 5312SOL    HW217378   4.205   5.296   5.852 -0.2576 -1.0976 -1.1487
 5313SOL     OW17379   5.881   2.626   8.750 -0.0558  0.0466  0.1279
 5313SOL    HW117380   5.866   2.684   8.825 -0.5115  1.0173 -0.6796
 5313SOL    HW217381   5.816   2.653   8.686 -1.6333 -2.7131  0.4206
 5314SOL     OW17382   0.447   5.396   7.253 -0.0326 -0.2538 -0.1099
 5314SOL    HW117383   0.362   5.360   7.276  0.4546 -1.1245  0.3786
 5314SOL    HW217384   0.442   5.488   7.278 -0.9442 -0.2078 -0.4201
 5315SOL     OW17385   5.633   0.596   9.194 -0.2171 -0.1833 -0.2805
 5315SOL    HW117386   5.578   0.587   9.116 -0.2563  0.3697 -0.3213
 5315SOL    HW217387   5.723   0.591   9.162 -0.2348 -0.0236 -0.3567
 5316SOL     OW17388   6.632   7.270  11.002 -0.1632 -0.7033  0.9875
 5316SOL    HW117389   6.613   7.233  11.088 -1.2185  0.1475  1.1335
 5316SOL    HW217390   6.710   7.323  11.015 -0.0761 -0.9148  1.3281
 5317SOL     OW17391   0.753   1.328   5.910  0.3222  0.1798 -0.1370
 5317SOL    HW117392   0.799   1.393   5.964  0.0107  0.2890  0.0008
 5317SOL    HW217393   0.670   1.371   5.886  0.0880 -0.1913  0.0033
 5318SOL     OW17394   0.188   1.785  11.133 -0.0796  0.1143  0.0774
 5318SOL    HW117395   0.200   1.753  11.044 -0.0220 -0.2492  0.2162
 5318SOL    HW217396   0.271   1.766  11.176 -0.3549 -0.3371  0.4057
 5319SOL     OW17397   2.638   5.296   7.631  0.0699 -0.2371 -0.2615
 5319SOL    HW117398   2.574   5.322   7.565  0.6351  2.1293  0.0506
 5319SOL    HW217399   2.716   5.273   7.581  0.5475  1.6950 -0.4481
 5320SOL     OW17400   5.739   5.334   5.195  0.4529 -0.6240 -0.3456
 5320SOL    HW117401   5.664   5.390   5.177  0.9251  0.9006  2.0217
 5320SOL    HW217402   5.704   5.264   5.250  0.7074  0.0533  0.7077
 5321SOL     OW17403   2.596   7.289   3.958  0.1131 -0.2096  0.5533
 5321SOL    HW117404   2.583   7.199   3.930 -1.3646  0.2762 -0.4818
 5321SOL    HW217405   2.544   7.298   4.038 -1.9700  0.3678 -0.7830
 5322SOL     OW17406   1.696   3.071   6.060 -0.4159 -0.9774  0.2210
 5322SOL    HW117407   1.638   3.029   5.996  2.1309 -2.0301 -1.5576
 5322SOL    HW217408   1.756   3.123   6.008 -1.0209  1.9035  2.1542
 5323SOL     OW17409   4.289   6.659   1.116 -0.1719  0.1360 -0.3855
 5323SOL    HW117410   4.221   6.726   1.124 -0.6172 -0.0793 -1.9651
 5323SOL    HW217411   4.360   6.690   1.171 -1.0662  0.9915  0.3355
 5324SOL     OW17412   4.554   2.724   0.414  0.1588  0.2331  0.2056
 5324SOL    HW117413   4.625   2.753   0.471  0.7541  0.6029 -0.7109
 5324SOL    HW217414   4.546   2.792   0.348 -1.1626  0.2737  0.3844
 5325SOL     OW17415   6.279   6.829   7.569 -0.4661 -0.0384  0.1023
 5325SOL    HW117416   6.334   6.836   7.491 -0.4756  0.5631  0.1417
 5325SOL    HW217417   6.193   6.860   7.541 -0.3847  0.5020  0.4287
 5326SOL     OW17418   4.288   7.657  10.944 -0.2113 -0.1179 -0.4621
 5326SOL    HW117419   4.279   7.717  11.018 -1.2094 -0.8236  0.0098
 5326SOL    HW217420   4.296   7.715  10.868 -0.1315  0.6162  0.0916
 5327SOL     OW17421   6.083   1.614  12.084  0.0143  0.1944 -0.5468
 5327SOL    HW117422   6.109   1.662  12.005  0.0014  0.1108 -0.6023
 5327SOL    HW217423   6.035   1.538  12.050  0.2278  0.0248 -0.4668
 5328SOL     OW17424   7.635   5.040  11.319  0.0275  0.2000  0.1622
 5328SOL    HW117425   7.563   5.103  11.321  1.2693  1.7153 -0.7387
 5328SOL    HW217426   7.698   5.073  11.383  0.7510 -0.0688 -0.3990
 5329SOL     OW17427   0.116   5.701   6.764 -0.6615 -0.0151  0.3832
 5329SOL    HW117428   0.136   5.746   6.846  1.0617 -1.5546  0.8946
 5329SOL    HW217429   0.151   5.759   6.696  2.2421 -0.7946  1.0633
 5330SOL     OW17430   1.763   0.302   5.262 -0.7841 -0.3996 -0.5157
 5330SOL    HW117431   1.721   0.383   5.234  0.2880 -0.4965 -2.5874
 5330SOL    HW217432   1.855   0.314   5.239 -0.0264 -1.0435  1.9061
 5331SOL     OW17433   0.778   2.563   1.852  0.1093 -0.1200 -0.1057
 5331SOL    HW117434   0.869   2.574   1.882 -0.5222 -0.6540  2.1776
 5331SOL    HW217435   0.785   2.508   1.774  1.6823 -1.2070  0.7517
 5332SOL     OW17436   3.428   2.148  11.840  0.0912 -0.2975 -0.1152
 5332SOL    HW117437   3.355   2.094  11.808  0.4093 -2.2835  2.2619
 5332SOL    HW217438   3.398   2.182  11.924  2.4694 -2.7272  1.8857
 5333SOL     OW17439   5.817   6.643   0.628  0.0124 -0.1252  0.4879
 5333SOL    HW117440   5.856   6.719   0.671  1.4289 -1.2391  1.2377
 5333SOL    HW217441   5.749   6.613   0.689  0.1447 -0.0657  0.6633
 5334SOL     OW17442   2.273   1.342   4.907  0.4635  0.0159  0.4299
 5334SOL    HW117443   2.344   1.290   4.871  1.0124  0.1181  1.3375
 5334SOL    HW217444   2.194   1.305   4.868  0.8436 -1.4410  0.9912
 5335SOL     OW17445   3.800   4.350  10.735  0.2264  0.7365  0.4926
 5335SOL    HW117446   3.770   4.386  10.819 -0.2847 -0.7852  1.0186
 5335SOL    HW217447   3.728   4.364  10.675 -0.9176 -1.2622  1.2748
 5336SOL     OW17448   0.375   2.423  11.879  0.2922 -0.3197  0.2394
 5336SOL    HW117449   0.343   2.370  11.952  1.4573 -0.3506  0.7423
 5336SOL    HW217450   0.358   2.514  11.906  1.7513 -0.2597  1.1066
 5337SOL     OW17451   7.199   1.770   0.495  0.1681 -0.1165 -0.3237
 5337SOL    HW117452   7.266   1.837   0.508  0.0692  0.3707 -2.0850
 5337SOL    HW217453   7.186   1.732   0.582  1.4994  0.9325  0.3715
 5338SOL     OW17454   1.908   5.133  11.400  0.1239  0.0555  0.8186
 5338SOL    HW117455   1.888   5.134  11.307 -1.6179  1.8856  1.1332
 5338SOL    HW217456   1.969   5.206  11.412 -0.3752  0.4108  1.2326
 5339SOL     OW17457   7.640   2.122   1.441 -0.1141 -0.5219  0.2129
 5339SOL    HW117458   7.637   2.092   1.532 -0.5629 -1.5892 -0.1295
 5339SOL    HW217459   7.582   2.198   1.438  0.9941  0.3967  1.0989
 5340SOL     OW17460   2.530   7.051   8.401 -0.8908 -0.3819 -0.4952
 5340SOL    HW117461   2.530   7.002   8.319  1.9556 -1.2769 -0.0873
 5340SOL    HW217462   2.593   7.122   8.386  2.2926 -2.4718  1.7845
 5341SOL     OW17463   5.822   2.478  11.699 -0.1101  0.2082 -0.2067
 5341SOL    HW117464   5.867   2.395  11.717 -1.1572 -0.5221 -0.8301
 5341SOL    HW217465   5.779   2.500  11.782  2.6359  1.7810  0.9151
 5342SOL     OW17466   5.363   3.150   9.820  0.2780 -0.2158 -0.2397
 5342SOL    HW117467   5.454   3.174   9.838  1.0820 -2.3471 -1.1252
 5342SOL    HW217468   5.312   3.226   9.848  2.2076  0.5115  1.5349
 5343SOL     OW17469   6.515   4.718   1.617  0.5143  0.0778 -0.4299
 5343SOL    HW117470   6.594   4.747   1.664 -0.6733  0.6261  1.3487
 5343SOL    HW217471   6.466   4.799   1.601 -0.5248 -0.4224  0.1242
 5344SOL     OW17472   2.380   2.618   7.265 -0.2785  0.5530  0.0404
 5344SOL    HW117473   2.417   2.701   7.296  1.2956 -0.4253  0.9224
 5344SOL    HW217474   2.348   2.576   7.345  0.5214 -0.4293 -0.1458
 5345SOL     OW17475   3.933   6.893   3.832  0.0790  0.4410  0.5117
 5345SOL    HW117476   3.907   6.982   3.810 -0.6509  0.1121 -0.0052
 5345SOL    HW217477   3.851   6.843   3.830  0.0285  0.2655  3.4384
 5346SOL     OW17478   4.314   6.084   3.475  0.1233 -0.4965 -0.4075
 5346SOL    HW117479   4.288   5.993   3.460 -0.5884  0.0129 -2.6750
 5346SOL    HW217480   4.233   6.134   3.462  0.7818  0.5584 -0.5354
 5347SOL     OW17481   3.964   7.371  10.967 -0.4990  0.2272 -0.5958
 5347SOL    HW117482   3.967   7.276  10.975  0.9602  0.2943 -0.1141
 5347SOL    HW217483   3.871   7.392  10.957 -0.7254 -1.3875 -2.5700
 5348SOL     OW17484   2.900   5.051   5.010 -0.3361 -0.7304  0.4126
 5348SOL    HW117485   2.985   5.026   4.975 -0.0481  1.2043 -0.4224
 5348SOL    HW217486   2.916   5.067   5.104 -0.1158 -1.7098  0.5499
 5349SOL     OW17487   0.347   3.356  10.880  0.0649 -0.3651  0.0937
 5349SOL    HW117488   0.302   3.431  10.919 -2.5444  0.0274 -3.2124
 5349SOL    HW217489   0.289   3.282  10.894  1.2512 -1.1854  0.8242
 5350SOL     OW17490   3.419   0.677   4.857  0.2087  0.3644 -0.0297
 5350SOL    HW117491   3.356   0.644   4.793 -1.9167  1.1561  1.5571
 5350SOL    HW217492   3.442   0.601   4.910 -1.6772  0.5778  1.1740
 5351SOL     OW17493   7.809   5.985   0.584 -0.2754  0.1966  0.4578
 5351SOL    HW117494   7.794   6.056   0.646  0.0046 -0.6452  1.5186
 5351SOL    HW217495   7.723   5.947   0.569 -0.2197 -0.1774  1.0558
 5352SOL     OW17496   3.825   1.588   5.902  0.9988  0.0542 -0.7757
 5352SOL    HW117497   3.798   1.541   5.823  0.2169  0.8894 -1.0203
 5352SOL    HW217498   3.920   1.576   5.906  0.8370 -1.3976 -0.9138
 5353SOL     OW17499   4.331   5.653   8.026 -0.2855 -0.0230 -0.0572
 5353SOL    HW117500   4.285   5.737   8.018  0.7379  0.7072  1.3009
 5353SOL    HW217501   4.326   5.632   8.119 -0.1277 -1.2544 -0.3121
 5354SOL     OW17502   2.453   3.251   4.987  0.3290 -0.7579  0.1547
 5354SOL    HW117503   2.512   3.278   4.917  0.8527  1.3784  1.3510
 5354SOL    HW217504   2.485   3.296   5.065 -1.5240 -1.3603  1.3407
 5355SOL     OW17505   2.594   0.163   2.948  0.5510 -0.1258  0.6168
 5355SOL    HW117506   2.555   0.248   2.969 -0.9705 -1.1017  2.0160
 5355SOL    HW217507   2.652   0.145   3.022  1.6342  0.1077 -0.1556
 5356SOL     OW17508   7.387   1.874   2.826  0.0835 -0.6447  0.6442
 5356SOL    HW117509   7.391   1.892   2.920  1.9604  1.2051  0.2830
 5356SOL    HW217510   7.337   1.947   2.789  0.4317 -0.6806  0.0832
 5357SOL     OW17511   7.804   3.863  10.672 -0.1991 -0.0963 -0.1485
 5357SOL    HW117512   7.844   3.791  10.722  0.1954  0.2568  0.0503
 5357SOL    HW217513   7.784   3.824  10.587 -1.1578 -0.7889  0.3745
 5358SOL     OW17514   5.596   6.541   8.417 -0.1963  0.0175 -0.0313
 5358SOL    HW117515   5.682   6.511   8.446 -0.1930  0.6441  0.6350
 5358SOL    HW217516   5.535   6.510   8.485 -0.0577  2.3841  1.2918
 5359SOL     OW17517   5.504   6.282   5.833  0.5982 -0.1377 -0.1789
 5359SOL    HW117518   5.521   6.286   5.739 -0.4619 -0.3998 -0.3899
 5359SOL    HW217519   5.446   6.356   5.850 -1.7049 -1.8179 -0.2980
 5360SOL     OW17520   1.805   0.049   9.772 -0.5138 -0.3703  0.2936
 5360SOL    HW117521   1.752   0.122   9.742 -0.7718 -0.5833  0.2290
 5360SOL    HW217522   1.884   0.052   9.718  0.3761  1.0241  1.5792
 5361SOL     OW17523   0.623   4.469   2.786  0.3209 -0.7281 -0.3846
 5361SOL    HW117524   0.541   4.468   2.835 -0.7969 -0.1936 -2.1531
 5361SOL    HW217525   0.677   4.536   2.831 -1.6835  1.7071 -1.3807
 5362SOL     OW17526   6.977   7.759   7.479 -0.2828  0.1173 -0.0926
 5362SOL    HW117527   6.929   7.713   7.410 -1.2152  0.7724  0.0986
 5362SOL    HW217528   6.936   7.845   7.484  1.5520  1.0769 -0.5695
 5363SOL     OW17529   2.397   4.780   0.273 -0.1667  0.2217  0.4541
 5363SOL    HW117530   2.308   4.809   0.256 -1.0036  0.0364  3.8091
 5363SOL    HW217531   2.394   4.684   0.263  0.0778  0.3380 -0.8877
 5364SOL     OW17532   2.536   6.186   7.239  0.3790  0.1764  0.0497
 5364SOL    HW117533   2.482   6.159   7.313 -0.7136  2.0018 -0.0072
 5364SOL    HW217534   2.607   6.236   7.279  0.6547 -0.1425 -0.0397
 5365SOL     OW17535   6.797   7.155   4.998  0.0532  0.6883  0.2141
 5365SOL    HW117536   6.731   7.174   5.064 -0.2990 -0.8374  0.3432
 5365SOL    HW217537   6.751   7.163   4.914 -0.7446 -1.6675  0.3363
 5366SOL     OW17538   0.074   4.940   4.927  0.1262  0.0921 -0.0522
 5366SOL    HW117539   0.034   4.859   4.960  1.4354 -1.6892 -2.5255
 5366SOL    HW217540   0.112   4.916   4.843  1.6012  3.0479 -0.3724
 5367SOL     OW17541   0.868   5.068   1.945  0.1756  0.0413 -0.0981
 5367SOL    HW117542   0.843   5.124   2.019 -1.2097 -0.8116  0.1196
 5367SOL    HW217543   0.817   5.102   1.871 -2.2799 -2.0495  0.4694
 5368SOL     OW17544   7.179   4.794   0.788 -0.0511 -0.6085 -0.5421
 5368SOL    HW117545   7.102   4.740   0.772 -1.2989  0.9718 -0.1322
 5368SOL    HW217546   7.252   4.732   0.787 -1.5875 -2.7416  2.2249
 5369SOL     OW17547   7.768   4.534   2.945 -0.5523 -0.2492 -0.2036
 5369SOL    HW117548   7.757   4.548   2.851  0.2362 -0.7848 -0.3814
 5369SOL    HW217549   7.785   4.441   2.955 -0.6201 -0.1995  0.4761
 5370SOL     OW17550   2.651   5.461  11.293  0.3720  0.4198  0.5562
 5370SOL    HW117551   2.738   5.441  11.259  1.0273  0.5274  2.0802
 5370SOL    HW217552   2.599   5.384  11.271  1.0061  0.0895  0.1656
 5371SOL     OW17553   5.698   2.274   4.579  0.2373 -0.4659 -0.3534
 5371SOL    HW117554   5.741   2.334   4.640  0.8735 -0.4517 -0.8011
 5371SOL    HW217555   5.689   2.192   4.628 -1.3023  0.1828  0.5052
 5372SOL     OW17556   7.853   7.038   9.430 -0.0091 -0.4618 -0.5248
 5372SOL    HW117557   7.919   7.091   9.385 -0.7496  0.5646 -0.4236
 5372SOL    HW217558   7.886   7.030   9.520  0.8829 -1.5207 -0.9255
 5373SOL     OW17559   4.645   5.354   0.447  0.3966  0.1916 -0.9225
 5373SOL    HW117560   4.693   5.368   0.528  0.9071  1.5788 -1.4324
 5373SOL    HW217561   4.571   5.415   0.452  0.4091  0.2589 -1.4850
 5374SOL     OW17562   6.199   4.944   7.129 -0.2591 -0.4680  0.1044
 5374SOL    HW117563   6.167   5.026   7.168  0.8394  0.2557 -0.4470
 5374SOL    HW217564   6.121   4.902   7.094 -1.0078 -0.2212  1.4053
 5375SOL     OW17565   7.834   5.802  12.259  0.1137  0.0666  0.8965
 5375SOL    HW117566   7.751   5.842  12.286  0.0681 -0.1313  1.0523
 5375SOL    HW217567   7.882   5.873  12.217 -1.0166 -0.3008 -1.1760
 5376SOL     OW17568   5.146   0.046  11.846 -0.6327  0.0683  0.0283
 5376SOL    HW117569   5.081   0.009  11.907 -0.8374 -0.5827 -0.5734
 5376SOL    HW217570   5.143   0.140  11.862 -0.6447 -0.0942  1.0678
 5377SOL     OW17571   5.744   7.200   0.349  0.3624  0.9066 -0.1287
 5377SOL    HW117572   5.814   7.265   0.351  0.8738  0.3622  0.1492
 5377SOL    HW217573   5.787   7.119   0.320 -0.0414  0.4367  0.5393
 5378SOL     OW17574   1.398   1.173  11.554  0.4622 -0.2329  0.3260
 5378SOL    HW117575   1.427   1.125  11.477 -0.8523 -0.1058 -0.2789
 5378SOL    HW217576   1.351   1.107  11.606 -1.6404  0.3898 -0.6653
 5379SOL     OW17577   5.419   1.122   5.627  0.0342 -0.3481  0.9093
 5379SOL    HW117578   5.348   1.089   5.681  0.4114 -1.0016  1.0137
 5379SOL    HW217579   5.479   1.048   5.617 -0.6148 -0.6617 -1.4285
 5380SOL     OW17580   2.947   2.251   3.884 -0.1136 -0.3288  0.4189
 5380SOL    HW117581   2.936   2.240   3.978  1.1120 -0.7032  0.5370
 5380SOL    HW217582   3.033   2.214   3.865  0.6601  1.7445 -0.4907
 5381SOL     OW17583   7.018   2.835   5.549 -0.2914  0.0792  0.0072
 5381SOL    HW117584   7.008   2.852   5.455  3.0614 -2.2543 -0.9853
 5381SOL    HW217585   7.074   2.906   5.581 -0.0696 -0.0147 -0.1689
 5382SOL     OW17586   7.255   1.370   9.336 -0.0633 -0.3825 -0.3411
 5382SOL    HW117587   7.224   1.280   9.346 -0.3742 -0.0805  2.0892
 5382SOL    HW217588   7.349   1.364   9.354 -0.0937 -0.2153 -0.1320
 5383SOL     OW17589   3.449   6.994   2.935 -0.1081  0.0299 -0.0871
 5383SOL    HW117590   3.501   7.036   2.866  0.3133 -0.2475  0.0581
 5383SOL    HW217591   3.448   6.902   2.910 -2.8513  0.3837 -1.6010
 5384SOL     OW17592   2.453   1.189   6.534  0.0686  0.3317 -0.4317
 5384SOL    HW117593   2.443   1.100   6.568 -0.0071  0.2476 -0.6765
 5384SOL    HW217594   2.378   1.236   6.569  1.3196  0.9191  1.6713
 5385SOL     OW17595   1.035   3.974   6.948  0.2486 -0.2644 -0.0268
 5385SOL    HW117596   1.029   3.968   6.852 -0.5656  1.6068 -0.1406
 5385SOL    HW217597   0.945   3.989   6.977  0.5357 -0.4740  1.0092
 5386SOL     OW17598   4.517   0.606  11.871  0.0505 -0.5472 -0.1298
 5386SOL    HW117599   4.518   0.640  11.782  0.2887 -2.8919 -1.0896
 5386SOL    HW217600   4.605   0.571  11.884  0.1837  0.2202  1.2616
 5387SOL     OW17601   6.611   5.526   1.749  0.1380 -0.0046  0.0650
 5387SOL    HW117602   6.669   5.450   1.744 -0.4231 -0.6410  2.2305
 5387SOL    HW217603   6.669   5.599   1.770  0.4883 -0.0753 -0.6091
 5388SOL     OW17604   5.004   0.596   3.247  0.3956  0.1231 -0.1112
 5388SOL    HW117605   4.961   0.516   3.276 -0.6933  0.9038  0.5178
 5388SOL    HW217606   5.058   0.569   3.173 -0.8570 -0.9898 -0.6573
 5389SOL     OW17607   3.718   0.684   8.365 -0.0256 -0.0618  0.1415
 5389SOL    HW117608   3.696   0.712   8.454  0.5901 -0.8137  0.5406
 5389SOL    HW217609   3.682   0.753   8.309 -0.1327  0.5912  0.9876
 5390SOL     OW17610   6.840   5.941  12.384 -0.5238 -0.7423 -0.3528
 5390SOL    HW117611   6.751   5.974  12.369 -0.4053 -0.6076 -0.7940
 5390SOL    HW217612   6.851   5.870  12.321 -0.4421 -0.9957 -0.0544
 5391SOL     OW17613   1.799   5.748   8.938  0.5048  0.4016  0.0777
 5391SOL    HW117614   1.829   5.834   8.907  0.7530  0.0723 -0.6169
 5391SOL    HW217615   1.715   5.736   8.895  0.5644  0.2094  0.0146
 5392SOL     OW17616   4.713   3.480   0.148  0.0622  0.3196  0.1157
 5392SOL    HW117617   4.644   3.541   0.122  0.9220  1.0781 -0.4521
 5392SOL    HW217618   4.667   3.401   0.174 -1.0573  1.0423  0.3954
 5393SOL     OW17619   4.298   2.434   5.836  0.5087 -0.0296 -0.0015
 5393SOL    HW117620   4.393   2.430   5.843  0.5562  0.2387 -0.4641
 5393SOL    HW217621   4.279   2.524   5.811  0.2696 -0.5736 -1.8991
 5394SOL     OW17622   6.904   3.194   3.480 -0.0468  0.6292 -0.1428
 5394SOL    HW117623   6.908   3.137   3.557  1.9855 -0.2257 -0.8206
 5394SOL    HW217624   6.823   3.243   3.491  0.0496  0.3493  2.4047
 5395SOL     OW17625   4.516   7.904   3.099 -0.8527 -0.0457 -0.0670
 5395SOL    HW117626   4.526   7.991   3.061  1.1113 -1.2717 -2.7051
 5395SOL    HW217627   4.441   7.866   3.052  1.5081 -1.5226 -3.0037
 5396SOL     OW17628   5.211   6.541   4.960 -0.1115 -0.0105 -0.2565
 5396SOL    HW117629   5.244   6.456   4.990  0.4801  0.0657 -0.6750
 5396SOL    HW217630   5.179   6.583   5.039 -2.1522 -1.3700 -0.2896
 5397SOL     OW17631   7.968   0.535   7.417 -0.2992 -0.2766 -0.7188
 5397SOL    HW117632   7.874   0.531   7.432 -0.5369  1.3157 -1.4835
 5397SOL    HW217633   8.008   0.517   7.502 -1.3341  0.2618 -0.1026
 5398SOL     OW17634   3.199   5.722   8.603 -0.3269 -0.1185 -0.2401
 5398SOL    HW117635   3.239   5.636   8.611  1.1743  0.5790  0.1361
 5398SOL    HW217636   3.152   5.735   8.686  0.0200 -0.2937 -0.0154
 5399SOL     OW17637   7.332   4.772  10.233 -0.1865 -0.6446 -0.6294
 5399SOL    HW117638   7.359   4.696  10.284  1.1278 -0.2051 -0.6392
 5399SOL    HW217639   7.393   4.775  10.159  0.0205  0.6263 -0.4318
 5400SOL     OW17640   3.163   6.287  12.206 -0.2713  0.1112 -0.2652
 5400SOL    HW117641   3.185   6.268  12.115  0.6633 -1.2414  0.2093
 5400SOL    HW217642   3.157   6.201  12.248 -1.7328  0.6631  0.7347
 5401SOL     OW17643   0.203   4.097   8.523  0.4260 -0.1984 -0.0267
 5401SOL    HW117644   0.209   4.002   8.517  0.7562 -0.3195  1.7365
 5401SOL    HW217645   0.291   4.125   8.551  0.9540  0.8482 -2.4570
 5402SOL     OW17646   2.867   4.740  12.126  0.5875  0.0534 -0.6399
 5402SOL    HW117647   2.890   4.756  12.035  1.4681  1.3441 -0.2234
 5402SOL    HW217648   2.944   4.770  12.176 -0.3701  0.5620  0.5907
 5403SOL     OW17649   1.537   6.161   1.761 -0.1531 -0.3981 -0.1086
 5403SOL    HW117650   1.582   6.240   1.790 -0.6397 -0.2818  0.3529
 5403SOL    HW217651   1.472   6.192   1.698  0.4225 -0.5679 -0.7986
 5404SOL     OW17652   2.950   3.398   9.566  0.5147  0.4759 -0.3204
 5404SOL    HW117653   2.973   3.334   9.633  1.3817  0.8095 -0.2946
 5404SOL    HW217654   2.947   3.348   9.484  0.3697  0.2510 -0.1787
 5405SOL     OW17655   3.497   1.887   9.557  0.0507 -0.9037 -0.0500
 5405SOL    HW117656   3.560   1.896   9.629  0.6313  0.0117 -0.6544
 5405SOL    HW217657   3.419   1.934   9.586  0.4592 -0.1196 -0.2070
 5406SOL     OW17658   2.629   3.982   9.419  0.6058 -0.3070  0.1515
 5406SOL    HW117659   2.552   4.038   9.428 -0.1713 -1.3315  0.0306
 5406SOL    HW217660   2.697   4.041   9.387  0.3066  0.9486  1.6889
 5407SOL     OW17661   2.746   7.336   2.763  0.0647  0.2402  0.0086
 5407SOL    HW117662   2.697   7.266   2.719  0.0892 -0.5372  1.1823
 5407SOL    HW217663   2.830   7.297   2.784 -0.1951  0.3612  1.3573
 5408SOL     OW17664   6.663   2.550   9.871 -0.4609 -0.1769  0.5120
 5408SOL    HW117665   6.701   2.462   9.866 -0.4667 -0.1063 -3.3017
 5408SOL    HW217666   6.604   2.546   9.946 -0.8659 -3.6005  0.1680
 5409SOL     OW17667   3.005   3.804   2.762 -0.3099  0.6364  0.1461
 5409SOL    HW117668   2.998   3.720   2.808  2.3127  0.8515  1.1261
 5409SOL    HW217669   3.050   3.783   2.680 -1.0553  0.8866 -0.3374
 5410SOL     OW17670   6.064   2.730   6.933  0.1134  0.9265 -0.2930
 5410SOL    HW117671   6.134   2.665   6.928  0.9163  1.5213  2.1326
 5410SOL    HW217672   6.006   2.698   7.003 -0.0106  2.2997  0.2553
 5411SOL     OW17673   7.225   1.976   9.207 -0.0462 -0.3940 -0.0631
 5411SOL    HW117674   7.233   1.988   9.301 -1.6444 -0.1204  0.0538
 5411SOL    HW217675   7.176   1.894   9.197 -0.0098 -0.3530 -0.6569
 5412SOL     OW17676   6.433   7.426  11.502 -0.6985  0.0020  0.0978
 5412SOL    HW117677   6.435   7.390  11.413 -1.0119 -1.8819  0.8021
 5412SOL    HW217678   6.346   7.465  11.510 -0.8964 -0.3742 -0.2135
 5413SOL     OW17679   6.699   3.629   6.929 -0.1788 -0.0594  0.0824
 5413SOL    HW117680   6.702   3.661   6.839  1.7792  0.5797  0.3268
 5413SOL    HW217681   6.619   3.668   6.966 -1.2477 -0.6989 -1.4726
 5414SOL     OW17682   5.543   4.095  11.369 -0.4634  0.5842  1.1261
 5414SOL    HW117683   5.579   4.165  11.314 -2.6431  1.6907  0.9543
 5414SOL    HW217684   5.549   4.016  11.315 -0.5190  1.2153  0.1740
 5415SOL     OW17685   6.636   7.298   0.218 -0.2359 -0.9743 -0.9521
 5415SOL    HW117686   6.590   7.322   0.138  2.0846  0.5249 -1.9376
 5415SOL    HW217687   6.697   7.229   0.191 -1.7507 -2.9550  0.3349
 5416SOL     OW17688   6.039   0.836   6.543  0.1231 -0.6275 -0.0000
 5416SOL    HW117689   6.043   0.820   6.638 -0.3495 -0.8294 -0.0128
 5416SOL    HW217690   6.097   0.770   6.506  0.2377 -0.6078  0.1427
 5417SOL     OW17691   3.083   1.775   5.057 -0.0751  0.2005 -0.3735
 5417SOL    HW117692   3.135   1.755   5.134  1.3824  0.0877 -1.3543
 5417SOL    HW217693   3.082   1.871   5.052  1.8312  0.2185 -1.4665
 5418SOL     OW17694   6.363   5.554   1.347  0.2813 -0.0607 -0.3401
 5418SOL    HW117695   6.434   5.503   1.386 -0.4692 -1.9462 -1.3114
 5418SOL    HW217696   6.306   5.489   1.307 -2.0689  1.3712  0.4766
 5419SOL     OW17697   5.339   4.172   0.412 -0.7744  1.0414 -0.8239
 5419SOL    HW117698   5.296   4.093   0.444 -0.3093  0.5741 -1.3338
 5419SOL    HW217699   5.416   4.182   0.467 -0.2391  0.5125 -1.4614
 5420SOL     OW17700   0.429   3.267   5.834  0.1851  0.3624 -0.0292
 5420SOL    HW117701   0.491   3.235   5.900  0.5204  1.3148  0.1283
 5420SOL    HW217702   0.352   3.212   5.846  1.5112 -1.9255 -1.2742
 5421SOL     OW17703   5.406   1.298   6.267 -0.0129  0.2840 -0.2150
 5421SOL    HW117704   5.481   1.258   6.223 -0.1153  1.8552 -1.9379
 5421SOL    HW217705   5.443   1.340   6.344  0.7998  0.6306 -0.7866
 5422SOL     OW17706   4.652   5.002   0.113  0.0783  0.3901 -0.1509
 5422SOL    HW117707   4.629   5.084   0.157 -0.1629  0.8671 -1.1186
 5422SOL    HW217708   4.570   4.952   0.113  0.3863 -0.1438  1.0137
 5423SOL     OW17709   4.283   5.711   0.365 -0.0523 -0.1552 -0.0256
 5423SOL    HW117710   4.271   5.636   0.308 -2.1304  0.2743 -0.2207
 5423SOL    HW217711   4.322   5.778   0.309  2.2959 -1.1882  0.2745
 5424SOL     OW17712   0.731   0.001   5.549  0.2073  0.3792 -0.0897
 5424SOL    HW117713   0.824   0.003   5.525  0.0742  1.4943 -0.5692
 5424SOL    HW217714   0.692  -0.060   5.486  0.3960  0.9136 -0.7320
 5425SOL     OW17715   4.086   5.182   8.066 -0.2499 -0.4019  0.1842
 5425SOL    HW117716   4.125   5.102   8.032 -0.1242 -0.5038  0.5603
 5425SOL    HW217717   3.993   5.160   8.077 -0.4069 -0.1754 -0.6628
 5426SOL     OW17718   4.121   1.632   6.689 -0.0276  0.0965 -0.3005
 5426SOL    HW117719   4.039   1.640   6.737 -0.0411 -0.2326 -0.2680
 5426SOL    HW217720   4.146   1.722   6.668 -0.5287  0.1826 -0.5345
 5427SOL     OW17721   6.634   0.671   8.415  0.3469  0.1378  0.1194
 5427SOL    HW117722   6.546   0.691   8.447 -0.3346 -0.5479 -1.2321
 5427SOL    HW217723   6.683   0.752   8.429 -0.5954  0.6576  0.5671
 5428SOL     OW17724   3.051   5.883  11.471  0.0273  0.0438 -0.5142
 5428SOL    HW117725   3.103   5.907  11.395  0.4109  0.6655 -0.0682
 5428SOL    HW217726   2.975   5.942  11.469 -0.1761 -0.2201 -0.6415
 5429SOL     OW17727   2.082   4.782   8.577 -0.0857 -0.2020  0.3922
 5429SOL    HW117728   2.163   4.832   8.574 -0.1421 -0.0068  1.5587
 5429SOL    HW217729   2.107   4.697   8.614 -0.0126 -1.0481 -1.4623
 5430SOL     OW17730   1.936   3.866   2.672 -0.3704  0.2850  0.2535
 5430SOL    HW117731   1.924   3.961   2.679  2.5018  0.6519  1.7332
 5430SOL    HW217732   1.978   3.853   2.587 -1.5461  0.1822 -0.3372
 5431SOL     OW17733   4.861   0.905   5.541 -0.7697 -0.3774 -0.0647
 5431SOL    HW117734   4.827   0.964   5.474  1.2489 -0.6064 -1.3701
 5431SOL    HW217735   4.855   0.818   5.501  0.9062 -0.4661 -0.1958
 5432SOL     OW17736   4.510   1.790   6.912 -0.3608 -0.3171 -0.3839
 5432SOL    HW117737   4.493   1.720   6.849  2.4965 -1.9688  0.4716
 5432SOL    HW217738   4.454   1.769   6.986 -2.6161  0.7808 -1.6734
 5433SOL     OW17739   4.184   4.562   0.825 -0.2986  0.2340 -0.2420
 5433SOL    HW117740   4.101   4.577   0.779  0.3274 -0.5591 -1.6971
 5433SOL    HW217741   4.161   4.503   0.897 -1.3042  1.5263  0.5432
 5434SOL     OW17742   7.489   6.702   0.781  0.0524 -0.4154  0.0390
 5434SOL    HW117743   7.478   6.707   0.686 -0.5595 -0.8244  0.0780
 5434SOL    HW217744   7.581   6.721   0.796  0.4074 -1.4278 -0.7319
 5435SOL     OW17745   1.465   2.145   1.167 -0.4540 -0.6334 -0.2097
 5435SOL    HW117746   1.493   2.123   1.256  1.4012  0.5531 -0.4348
 5435SOL    HW217747   1.399   2.214   1.179 -1.5299 -1.7191  0.2719
 5436SOL     OW17748   7.786   6.867   3.839 -0.0641 -0.0751 -0.0256
 5436SOL    HW117749   7.789   6.772   3.826  0.9809  0.0837 -1.0576
 5436SOL    HW217750   7.853   6.884   3.905  2.1082  0.2596 -2.1807
 5437SOL     OW17751   1.653   3.218   2.957 -0.3565 -0.2746  0.0417
 5437SOL    HW117752   1.622   3.308   2.965 -0.0159 -0.0177 -1.3213
 5437SOL    HW217753   1.574   3.165   2.962 -0.5747  0.1066  0.6953
 5438SOL     OW17754   4.346   7.655   6.863 -0.3664 -0.5507 -0.2079
 5438SOL    HW117755   4.310   7.662   6.951 -1.3225 -0.4392 -0.5955
 5438SOL    HW217756   4.410   7.584   6.869  0.9402  0.6646  1.0038
 5439SOL     OW17757   4.095   6.428  10.793  0.6525  0.0216  0.1179
 5439SOL    HW117758   4.084   6.508  10.742  1.2198 -0.4457 -0.7713
 5439SOL    HW217759   4.164   6.379  10.747  0.0174 -1.1705  0.3896
 5440SOL     OW17760   2.889   5.304   7.473 -0.0194  0.3392 -0.3970
 5440SOL    HW117761   2.938   5.226   7.448 -1.1210 -0.4552 -0.1728
 5440SOL    HW217762   2.919   5.324   7.562  1.0735  0.8471 -0.8695
 5441SOL     OW17763   2.419   7.170  11.093  0.4522  0.3065 -0.0187
 5441SOL    HW117764   2.421   7.162  10.998  0.5530 -0.1605  0.0228
 5441SOL    HW217765   2.348   7.233  11.110  0.5094  0.4781 -0.4051
 5442SOL     OW17766   0.745   0.796   2.569 -0.2126 -0.3233 -0.2392
 5442SOL    HW117767   0.654   0.767   2.578  0.3191 -2.1578 -0.3760
 5442SOL    HW217768   0.754   0.868   2.632 -0.6657 -2.8669  3.0152
 5443SOL     OW17769   7.230   5.290   0.085 -0.1427 -0.3048 -0.2159
 5443SOL    HW117770   7.323   5.287   0.061  0.1672 -0.2519  0.9483
 5443SOL    HW217771   7.195   5.207   0.053  0.4876 -0.6923  0.0810
 5444SOL     OW17772   0.746   5.378   8.066  0.0181  0.1094  0.8299
 5444SOL    HW117773   0.724   5.289   8.041 -1.0102  0.3639  0.8035
 5444SOL    HW217774   0.673   5.431   8.035  1.1851  1.1428 -0.2661
 5445SOL     OW17775   6.078   6.104  11.501 -0.2218 -0.1177  0.0103
 5445SOL    HW117776   6.151   6.164  11.517  0.3472 -0.8906  0.4228
 5445SOL    HW217777   6.020   6.152  11.442  0.8258  0.3624 -0.6771
 5446SOL     OW17778   3.189   0.828  10.045 -0.0054  0.2541 -0.3265
 5446SOL    HW117779   3.103   0.789  10.060 -1.0915  2.4178 -0.6071
 5446SOL    HW217780   3.240   0.758  10.003 -0.7859 -1.8714  1.9974
 5447SOL     OW17781   2.558   2.386   5.784  0.3973 -0.3741 -0.6153
 5447SOL    HW117782   2.629   2.380   5.848  1.0595 -0.1659 -1.3225
 5447SOL    HW217783   2.507   2.462   5.811 -0.6424 -1.5520  0.9617
 5448SOL     OW17784   1.676   2.061  10.142 -0.4337  0.5058 -0.2208
 5448SOL    HW117785   1.721   2.135  10.182 -1.6582  0.6669  0.8899
 5448SOL    HW217786   1.689   2.074  10.048  1.2533  0.8976  0.0383
 5449SOL     OW17787   1.129   4.050   9.564  0.0180 -0.0058  0.1900
 5449SOL    HW117788   1.063   4.030   9.631  1.3023  0.1983  1.5641
 5449SOL    HW217789   1.147   3.966   9.522 -1.2498 -0.0278 -0.3538
 5450SOL     OW17790   5.664   0.328   0.150  0.1196  0.2586 -0.4396
 5450SOL    HW117791   5.731   0.389   0.119  0.9486 -0.5302 -0.2593
 5450SOL    HW217792   5.684   0.316   0.243 -0.3707  0.1306 -0.3476
 5451SOL     OW17793   7.123   6.298   9.311  0.1127 -0.2357  0.1093
 5451SOL    HW117794   7.074   6.240   9.369 -0.9409 -0.7468 -1.2579
 5451SOL    HW217795   7.167   6.359   9.371  0.3460 -1.7082  1.5173
 5452SOL     OW17796   6.634   0.695   2.464 -0.0270  0.6348 -0.3071
 5452SOL    HW117797   6.579   0.727   2.392 -1.9110  0.0667  0.8261
 5452SOL    HW217798   6.589   0.617   2.497  1.8436 -0.3033  0.2463
 5453SOL     OW17799   3.542   5.596   6.332  0.4180  0.0176  0.0020
 5453SOL    HW117800   3.619   5.608   6.388 -1.0194  0.8071  1.9095
 5453SOL    HW217801   3.565   5.640   6.250  1.6984  0.9400  0.8198
 5454SOL     OW17802   0.909   0.745   9.082  0.2193  0.1400  0.1224
 5454SOL    HW117803   0.896   0.656   9.114  0.8671 -0.7101 -1.8140
 5454SOL    HW217804   0.934   0.795   9.159 -2.7232 -0.6979  1.7775
 5455SOL     OW17805   1.833   7.237   5.262  0.7870 -0.0606  0.1222
 5455SOL    HW117806   1.855   7.206   5.350  0.8442 -1.2878 -0.3159
 5455SOL    HW217807   1.884   7.181   5.203 -2.7264 -2.4188 -0.9304
 5456SOL     OW17808   1.993   6.835   7.404 -0.3682  0.0900 -0.2209
 5456SOL    HW117809   1.974   6.769   7.337 -1.6986 -0.5012  0.6824
 5456SOL    HW217810   2.082   6.815   7.434  0.2707  0.4008 -1.8159
 5457SOL     OW17811   3.389   3.945   9.929 -0.0674 -0.0587  0.3499
 5457SOL    HW117812   3.452   3.916   9.996  0.8520 -0.4090 -0.6368
 5457SOL    HW217813   3.309   3.896   9.949  0.6422 -1.2731  0.3303
 5458SOL     OW17814   2.173   4.536   8.004 -0.3450 -0.1004  0.8579
 5458SOL    HW117815   2.225   4.493   7.936  1.2050  1.8325  0.7669
 5458SOL    HW217816   2.137   4.463   8.055  1.8175 -1.5346  0.4625
 5459SOL     OW17817   2.676   4.019  11.237 -0.2078 -0.1661 -0.5013
 5459SOL    HW117818   2.727   4.076  11.180 -0.9070  0.5036 -0.4777
 5459SOL    HW217819   2.674   3.935  11.191  1.3191 -0.3536 -0.2604
 5460SOL     OW17820   7.842   0.697  11.164 -0.2471 -0.4873 -0.2596
 5460SOL    HW117821   7.875   0.738  11.244  2.7896 -2.7222 -0.1849
 5460SOL    HW217822   7.827   0.770  11.103  0.2709  1.0219  1.3632
 5461SOL     OW17823   2.807   3.392   6.096  0.3517  0.4359 -0.2846
 5461SOL    HW117824   2.829   3.461   6.033  3.2192  1.3800  1.5251
 5461SOL    HW217825   2.786   3.440   6.177 -4.0792 -0.6900 -0.5157
 5462SOL     OW17826   3.264   5.367   9.807 -0.0843 -0.0727 -0.6664
 5462SOL    HW117827   3.236   5.430   9.873  1.0095  0.8738 -1.0739
 5462SOL    HW217828   3.220   5.286   9.831 -0.5256  0.5262  0.6165
 5463SOL     OW17829   5.040   5.161   0.288 -0.0213 -0.0335 -0.2347
 5463SOL    HW117830   5.018   5.138   0.378 -0.4657  0.1779 -0.2827
 5463SOL    HW217831   5.002   5.091   0.235 -0.6562  0.3707 -0.3242
 5464SOL     OW17832   0.652   7.053  11.513 -0.1985 -0.3984 -0.5311
 5464SOL    HW117833   0.646   6.997  11.436 -0.2221 -0.7637 -0.2643
 5464SOL    HW217834   0.687   6.996  11.582 -0.8355 -0.2634 -0.0866
 5465SOL     OW17835   4.208   7.928   0.481 -0.0229 -0.2467 -0.4898
 5465SOL    HW117836   4.299   7.918   0.510 -0.1846  0.6633  0.3797
 5465SOL    HW217837   4.167   7.844   0.500  0.5273 -0.5172 -0.4842
 5466SOL     OW17838   4.391   3.874   1.431  0.1438 -0.1056  0.3366
 5466SOL    HW117839   4.405   3.780   1.429  2.3083  0.1798 -0.6880
 5466SOL    HW217840   4.341   3.892   1.351  0.2361 -0.3245  0.2285
 5467SOL     OW17841   2.284   6.047   5.268  0.8258 -0.6487  0.4618
 5467SOL    HW117842   2.265   5.979   5.333  1.2813 -0.5543  0.7006
 5467SOL    HW217843   2.264   6.007   5.184 -0.0123 -0.6932  0.6710
 5468SOL     OW17844   3.283   0.016   1.731 -0.0993 -0.3924  0.1618
 5468SOL    HW117845   3.273   0.098   1.779 -1.2010  0.3939 -1.3228
 5468SOL    HW217846   3.300   0.044   1.640  0.7134 -1.8206 -0.1539
 5469SOL     OW17847   6.960   0.562  10.469 -0.2786 -0.1314  0.6980
 5469SOL    HW117848   7.014   0.504  10.417  0.2606 -0.0978  1.2060
 5469SOL    HW217849   6.960   0.645  10.422  0.5432  0.0198  0.9567
 5470SOL     OW17850   6.319   1.428   8.411  0.0972  0.3524 -0.6598
 5470SOL    HW117851   6.398   1.412   8.464 -0.7112 -0.0920  0.4362
 5470SOL    HW217852   6.298   1.342   8.374 -2.7784 -0.8726  3.1890
 5471SOL     OW17853   0.490   0.684   8.421 -0.0755  0.3752 -0.2188
 5471SOL    HW117854   0.460   0.681   8.330 -1.2926 -0.1076  0.1839
 5471SOL    HW217855   0.578   0.645   8.418 -0.4184 -0.3828 -1.0711
 5472SOL     OW17856   6.783   0.355   5.207  0.0347  0.4928  0.3790
 5472SOL    HW117857   6.708   0.324   5.258  1.7885 -1.8304  1.7511
 5472SOL    HW217858   6.848   0.381   5.273  0.8671  1.4631 -0.7640
 5473SOL     OW17859   5.985   0.924   2.601 -0.0815 -0.0558 -0.5778
 5473SOL    HW117860   5.993   1.009   2.557  1.6691  0.3929  0.5350
 5473SOL    HW217861   6.060   0.874   2.570 -0.7228 -0.9773 -0.6875
 5474SOL     OW17862   6.020   6.268   1.582  0.2556 -0.6827 -0.6669
 5474SOL    HW117863   5.946   6.302   1.633  0.8264  0.0477 -0.2999
 5474SOL    HW217864   5.988   6.265   1.492  0.3995  1.6158 -0.8556
 5475SOL     OW17865   1.676   1.094   4.328  0.0799  0.1258 -0.2872
 5475SOL    HW117866   1.697   1.121   4.239 -0.3074 -0.7540 -0.6571
 5475SOL    HW217867   1.709   1.004   4.335 -0.8513 -0.2084  0.0880
 5476SOL     OW17868   5.574   4.065   6.147  0.0289  0.3680 -0.1386
 5476SOL    HW117869   5.495   4.049   6.096  1.1416  0.3722 -1.9604
 5476SOL    HW217870   5.543   4.074   6.237 -2.1328  1.2171 -0.8951
 5477SOL     OW17871   5.851   6.975   0.216  0.1700 -0.1393  1.1156
 5477SOL    HW117872   5.933   7.025   0.218  1.3492 -1.8679 -0.4258
 5477SOL    HW217873   5.845   6.936   0.303  0.0155  1.4078  1.8324
 5478SOL     OW17874   2.483   7.950  12.060 -0.4823  0.0436 -0.6058
 5478SOL    HW117875   2.556   7.963  11.999  0.1805 -0.3791  0.0846
 5478SOL    HW217876   2.523   7.913  12.138 -1.5426 -0.8958 -0.4813
 5479SOL     OW17877   0.435   1.599   4.861  0.1153 -0.2696  0.4475
 5479SOL    HW117878   0.362   1.647   4.822 -0.3450 -1.4901 -0.2835
 5479SOL    HW217879   0.450   1.641   4.945  0.6092  1.9696 -0.6824
 5480SOL     OW17880   1.265   4.153  10.948 -0.6006 -0.0448 -0.2538
 5480SOL    HW117881   1.358   4.175  10.948 -0.7950  0.9745 -2.2082
 5480SOL    HW217882   1.226   4.214  11.009  0.0052 -0.5552  0.6713
 5481SOL     OW17883   3.302   2.433   7.375  0.2445 -0.2005 -0.3740
 5481SOL    HW117884   3.291   2.369   7.445  0.4629  0.1665  0.0045
 5481SOL    HW217885   3.337   2.511   7.419  0.9026 -0.1438 -0.9706
 5482SOL     OW17886   2.507   3.744  11.500 -0.2363  0.0000 -0.3872
 5482SOL    HW117887   2.566   3.669  11.492 -1.0049 -0.6670  0.0208
 5482SOL    HW217888   2.440   3.715  11.562  0.0928  1.4499  0.7108
 5483SOL     OW17889   2.717   3.318   0.223  0.3094  0.2552  0.1576
 5483SOL    HW117890   2.771   3.279   0.292  0.9856 -1.1386 -1.1078
 5483SOL    HW217891   2.780   3.355   0.162 -0.2115  0.0075 -0.5403
 5484SOL     OW17892   5.122   6.417  12.326 -0.0180 -0.0337 -0.4624
 5484SOL    HW117893   5.115   6.385  12.237 -2.8735 -1.5862  0.1800
 5484SOL    HW217894   5.189   6.363  12.366 -1.1923 -1.8251 -0.7945
 5485SOL     OW17895   3.364   7.352   8.406  0.2831 -0.0629  0.7319
 5485SOL    HW117896   3.356   7.257   8.419  0.1872 -0.2185 -0.3472
 5485SOL    HW217897   3.311   7.370   8.328 -1.9786  1.3163  2.4677
 5486SOL     OW17898   3.769   5.787   2.608 -0.2287  0.0410  0.3898
 5486SOL    HW117899   3.785   5.834   2.526 -1.9987 -1.0132 -0.6272
 5486SOL    HW217900   3.853   5.790   2.654  0.8664  0.5477 -1.5294
 5487SOL     OW17901   5.546   5.553   3.681  0.1770 -0.0008  0.5378
 5487SOL    HW117902   5.641   5.562   3.686  0.5182 -1.6504 -1.6885
 5487SOL    HW217903   5.521   5.602   3.603 -1.0091  1.3513  1.7058
 5488SOL     OW17904   5.972   1.341   8.153 -0.4023  0.8408 -0.1130
 5488SOL    HW117905   6.036   1.289   8.202 -1.4789 -0.3030  0.1099
 5488SOL    HW217906   5.984   1.430   8.187  0.4807  0.4935  0.5363
 5489SOL     OW17907   6.307   2.473   8.524 -0.1658 -0.1098 -0.1223
 5489SOL    HW117908   6.392   2.509   8.499  0.4167 -0.5242  1.1259
 5489SOL    HW217909   6.266   2.446   8.442  1.1122 -0.3297 -0.7050
 5490SOL     OW17910   4.620   6.010   6.732 -0.4924  0.1544  0.5385
 5490SOL    HW117911   4.528   6.025   6.752 -0.5171  0.0116  0.5272
 5490SOL    HW217912   4.626   6.020   6.637 -1.1144 -3.1301  0.0594
 5491SOL     OW17913   3.811   5.778  11.482  0.3519  0.5040 -0.5494
 5491SOL    HW117914   3.876   5.715  11.452  1.0570  1.2306 -0.5700
 5491SOL    HW217915   3.812   5.847  11.416  0.3590  1.0569  0.0241
 5492SOL     OW17916   7.953   7.497   8.781  0.5638 -0.7133 -0.5874
 5492SOL    HW117917   7.972   7.554   8.707 -3.8090  0.3553 -1.1739
 5492SOL    HW217918   7.958   7.409   8.745 -2.0737 -0.1989 -2.4860
 5493SOL     OW17919   4.953   2.791  11.835 -0.3424  0.6974 -0.5414
 5493SOL    HW117920   4.944   2.722  11.902  1.2681  2.4257  1.6059
 5493SOL    HW217921   4.975   2.743  11.755  0.7555 -1.3197  0.8633
 5494SOL     OW17922   3.944   5.793  12.007  0.0471 -1.0281 -0.1222
 5494SOL    HW117923   3.875   5.840  11.960 -0.3907 -1.4955  0.0388
 5494SOL    HW217924   3.946   5.832  12.094  0.2300 -0.7779 -0.2379
 5495SOL     OW17925   0.043   0.543   1.422 -0.2178  0.0629 -0.0806
 5495SOL    HW117926   0.089   0.612   1.470 -2.1498  0.7373  0.9351
 5495SOL    HW217927  -0.002   0.590   1.352  0.5895 -0.5737 -1.0366
 5496SOL     OW17928   7.609   7.795   8.428 -0.3599  0.1755  0.0468
 5496SOL    HW117929   7.581   7.740   8.354 -0.7708 -0.3276  0.5629
 5496SOL    HW217930   7.649   7.871   8.387  0.6193 -0.7044 -0.6938
 5497SOL     OW17931   0.194   1.904   0.016  0.8322  0.2117  0.2237
 5497SOL    HW117932   0.143   1.831  -0.019 -0.5314  1.3248 -0.1960
 5497SOL    HW217933   0.250   1.864   0.083 -0.6277 -1.0608  0.7467
 5498SOL     OW17934   5.047   2.137   0.584 -0.3648 -0.3091  0.6645
 5498SOL    HW117935   5.087   2.128   0.497 -1.2570 -0.2899  0.2444
 5498SOL    HW217936   5.084   2.064   0.634 -0.4695 -0.8175  0.0255
 5499SOL     OW17937   3.087   3.270   8.929 -0.9119  0.0177  0.2389
 5499SOL    HW117938   3.145   3.238   8.861  0.1565  0.0142  1.1235
 5499SOL    HW217939   3.029   3.332   8.884  0.7078  1.1125 -0.4185
 5500SOL     OW17940   1.840   6.666   0.899  0.0638  0.1302 -0.1474
 5500SOL    HW117941   1.852   6.748   0.946 -1.0374  0.1888  0.0804
 5500SOL    HW217942   1.761   6.628   0.938 -0.9179  0.1949 -1.9366
 5501SOL     OW17943   6.995   0.478   8.306 -0.6483  0.4345  0.0836
 5501SOL    HW117944   6.937   0.438   8.369 -0.2303 -0.1314  0.1174
 5501SOL    HW217945   7.041   0.405   8.265  0.7738  0.8924  0.7664
 5502SOL     OW17946   6.581   0.809  10.263  0.0567  0.1671 -0.4577
 5502SOL    HW117947   6.572   0.858  10.181  0.3340  0.1305 -0.5105
 5502SOL    HW217948   6.617   0.871  10.325  2.5438 -0.5237 -1.1022
 5503SOL     OW17949   5.933   0.798  11.760 -0.4592  0.3176 -0.2211
 5503SOL    HW117950   5.978   0.776  11.678 -1.0413  0.4178 -0.5718
 5503SOL    HW217951   6.004   0.809  11.823 -0.0172 -0.0187 -0.6482
 5504SOL     OW17952   3.768   0.934   5.609  0.5697 -0.2964  0.3748
 5504SOL    HW117953   3.788   0.936   5.702 -0.8395  0.9522  0.6957
 5504SOL    HW217954   3.706   1.006   5.597  0.9829 -0.2181 -1.5896
 5505SOL     OW17955   0.445   5.755   3.895  0.2858  0.1234 -0.4608
 5505SOL    HW117956   0.402   5.788   3.816 -0.1535  1.1352  0.1826
 5505SOL    HW217957   0.538   5.769   3.879  0.1864  0.5284 -0.7088
 5506SOL     OW17958   0.650   1.696   0.824  0.1692 -0.1608 -0.3487
 5506SOL    HW117959   0.726   1.745   0.855  2.3785 -2.1700 -2.1814
 5506SOL    HW217960   0.658   1.610   0.866  0.0447 -1.0329 -2.0101
 5507SOL     OW17961   2.190   4.946  11.937  0.0208 -0.0160 -0.7134
 5507SOL    HW117962   2.099   4.965  11.960  0.6781  1.7971  0.6018
 5507SOL    HW217963   2.184   4.874  11.874 -2.2873 -0.2176 -0.3519
 5508SOL     OW17964   7.325   6.160   6.124 -0.1719 -0.4343 -0.4120
 5508SOL    HW117965   7.298   6.072   6.150 -0.9238  0.3232  1.5580
 5508SOL    HW217966   7.246   6.198   6.084  0.0516 -0.5293 -0.9493
 5509SOL     OW17967   2.517   5.929   3.837  0.5399 -0.4700  0.0722
 5509SOL    HW117968   2.457   5.921   3.911 -0.4924  0.0533 -0.6749
 5509SOL    HW217969   2.597   5.886   3.866  0.9874  1.6694  2.3220
 5510SOL     OW17970   6.224   0.655   7.014 -0.0523 -0.2397 -0.1962
 5510SOL    HW117971   6.244   0.706   6.935  0.4687 -0.9052 -0.4938
 5510SOL    HW217972   6.134   0.682   7.036 -0.3278 -0.2770 -1.1975
 5511SOL     OW17973   2.123   1.771   4.674  0.9200  0.0139  0.1114
 5511SOL    HW117974   2.108   1.688   4.720  0.2192 -0.9486 -1.7772
 5511SOL    HW217975   2.053   1.829   4.706  0.7485 -0.4601  0.6142
 5512SOL     OW17976   2.416   3.207   7.746 -0.6832  0.4564 -0.3041
 5512SOL    HW117977   2.356   3.144   7.787 -2.6577  1.9172 -0.7812
 5512SOL    HW217978   2.473   3.236   7.817 -0.4838 -1.0363  0.1575
 5513SOL     OW17979   3.539   2.445   4.367 -0.5852  1.3696 -0.0950
 5513SOL    HW117980   3.578   2.405   4.288 -2.6271 -1.1160  0.0128
 5513SOL    HW217981   3.478   2.510   4.333 -1.4266  0.3388 -0.6193
 5514SOL     OW17982   0.457   6.531   7.280  0.3609  0.3178  0.4002
 5514SOL    HW117983   0.396   6.600   7.256  1.1097  0.8244 -0.1001
 5514SOL    HW217984   0.489   6.556   7.367  0.3076  0.3685  0.4055
 5515SOL     OW17985   5.852   1.545   1.390 -0.1220 -0.1820 -0.7860
 5515SOL    HW117986   5.821   1.468   1.343  2.7798 -1.6186 -0.5816
 5515SOL    HW217987   5.785   1.562   1.456 -0.5290 -3.0385 -0.3379
 5516SOL     OW17988   2.069   1.450  11.828  0.1217 -0.0427  0.2361
 5516SOL    HW117989   2.107   1.379  11.879 -0.9548 -0.7525  0.0973
 5516SOL    HW217990   1.997   1.483  11.882 -0.6802 -0.4361 -0.5643
 5517SOL     OW17991   5.874   5.124   4.169 -0.1233  0.2902  0.0930
 5517SOL    HW117992   5.862   5.071   4.090 -0.6432 -0.9208  0.9591
 5517SOL    HW217993   5.827   5.076   4.237  0.8595  0.9711  1.2810
 5518SOL     OW17994   0.686   0.942   9.134 -0.1917  0.5202 -0.0802
 5518SOL    HW117995   0.703   0.970   9.224  1.3386  0.9891 -0.4834
 5518SOL    HW217996   0.722   0.854   9.129 -0.7149  0.3014 -0.1208
 5519SOL     OW17997   1.012   4.533  11.406  0.0959 -0.1366 -0.1035
 5519SOL    HW117998   1.063   4.545  11.326  0.8487  0.5608  0.4599
 5519SOL    HW217999   1.049   4.456  11.448  0.7393  0.3970  0.3284
 5520SOL     OW18000   5.785   1.091   2.809 -0.5353 -0.0979  0.4815
 5520SOL    HW118001   5.735   1.138   2.742  0.8789  0.4685 -0.2284
 5520SOL    HW218002   5.765   0.999   2.793 -0.4987  0.0493 -0.5207
 5521SOL     OW18003   4.876   7.772  11.748  0.5828 -0.0970 -0.2983
 5521SOL    HW118004   4.917   7.801  11.667 -0.3919  0.1204 -0.7306
 5521SOL    HW218005   4.937   7.799  11.817  1.3412 -0.1394 -0.9412
 5522SOL     OW18006   0.250   4.709   6.714  0.3268  0.6016 -0.0563
 5522SOL    HW118007   0.257   4.669   6.628  1.3606 -1.9912  1.1268
 5522SOL    HW218008   0.340   4.714   6.746  0.0020  1.9077  0.7141
 5523SOL     OW18009   1.660   5.691   8.635 -0.0187 -0.1226 -0.2622
 5523SOL    HW118010   1.685   5.701   8.543  0.0198  0.1250 -0.2242
 5523SOL    HW218011   1.677   5.776   8.674 -1.1046  0.1176 -0.2819
 5524SOL     OW18012   1.559   1.384   0.850  0.3643  0.7730  0.0074
 5524SOL    HW118013   1.644   1.406   0.811  0.8711 -1.5975 -0.3988
 5524SOL    HW218014   1.572   1.397   0.944  1.5136 -0.4008  0.0477
 5525SOL     OW18015   2.649   2.552   7.188  0.4274  0.2697  0.0128
 5525SOL    HW118016   2.646   2.592   7.275  2.0875  2.3239 -0.7842
 5525SOL    HW218017   2.557   2.537   7.166 -0.1922  2.1809  1.0491
 5526SOL     OW18018   7.540   1.377   8.878  0.3035  0.1765  0.4972
 5526SOL    HW118019   7.609   1.332   8.828  0.1186 -1.1983  1.4251
 5526SOL    HW218020   7.469   1.390   8.815  1.4034  1.7096 -0.5044
 5527SOL     OW18021   7.642   0.039   4.072 -0.4277  0.3704 -0.1137
 5527SOL    HW118022   7.632   0.133   4.056 -1.2095  0.2544 -0.3453
 5527SOL    HW218023   7.581  -0.002   4.011 -0.1485 -0.2857  0.0428
 5528SOL     OW18024   5.299   1.269   7.797  0.4938  0.0307  0.3539
 5528SOL    HW118025   5.206   1.288   7.803 -0.0410 -2.2817  0.3632
 5528SOL    HW218026   5.314   1.250   7.704  0.9182  0.2144  0.3824
 5529SOL     OW18027   7.567   1.414   5.535  0.1839  0.1447 -0.9735
 5529SOL    HW118028   7.610   1.363   5.604  0.9938  0.6889 -1.0538
 5529SOL    HW218029   7.500   1.465   5.580  1.5424  1.4538 -0.3474
 5530SOL     OW18030   4.833   6.800   5.610 -0.3657 -0.5607 -0.1739
 5530SOL    HW118031   4.896   6.860   5.651 -1.8394  0.5308  0.5882
 5530SOL    HW218032   4.881   6.717   5.602  0.5488 -0.3508  2.2587
 5531SOL     OW18033   0.909   2.248   4.570 -0.1837  0.2785  0.3033
 5531SOL    HW118034   0.960   2.329   4.562 -0.8420  0.8739  1.8119
 5531SOL    HW218035   0.887   2.242   4.663 -1.5489 -0.7881 -0.0516
 5532SOL     OW18036   2.142   1.668   5.610 -0.0306  0.2413 -0.2971
 5532SOL    HW118037   2.196   1.741   5.580  1.4905 -1.4127 -1.8403
 5532SOL    HW218038   2.085   1.649   5.536  0.4393 -0.8691 -0.3948
 5533SOL     OW18039   2.613   6.096   7.674 -0.3713 -0.5568 -0.8926
 5533SOL    HW118040   2.568   6.129   7.752  0.3581  0.5403 -0.9098
 5533SOL    HW218041   2.623   6.002   7.690  0.4394 -0.2345  0.6917
 5534SOL     OW18042   7.406   2.523   5.493 -0.1473 -0.7465 -1.1792
 5534SOL    HW118043   7.396   2.446   5.548  1.0577 -0.8949 -1.1575
 5534SOL    HW218044   7.476   2.500   5.431  0.7885  0.6115 -0.6609
 5535SOL     OW18045   4.448   4.739   4.491  0.2918  0.4290  0.0236
 5535SOL    HW118046   4.403   4.705   4.413 -1.8228  1.9714  0.4798
 5535SOL    HW218047   4.463   4.662   4.546 -0.5185 -0.3316 -0.7942
 5536SOL     OW18048   2.821   7.777   7.449 -0.2260 -0.2894  0.2143
 5536SOL    HW118049   2.768   7.844   7.493 -0.1786 -0.7534  0.9995
 5536SOL    HW218050   2.764   7.700   7.447  0.3077 -0.7120  0.8174
 5537SOL     OW18051   5.668   5.137   6.125 -0.2556 -0.9317  0.2607
 5537SOL    HW118052   5.635   5.182   6.048 -1.8981  0.5327  1.7290
 5537SOL    HW218053   5.764   5.140   6.115 -0.3505  1.1962 -0.6628
 5538SOL     OW18054   2.806   5.798   6.191 -0.2025 -0.3011 -0.4301
 5538SOL    HW118055   2.867   5.727   6.174 -0.7135 -0.5174 -1.4470
 5538SOL    HW218056   2.862   5.876   6.195  0.1747 -0.5251 -1.1138
 5539SOL     OW18057   4.596   6.689   9.738 -0.2582 -0.1761  0.3450
 5539SOL    HW118058   4.605   6.664   9.830 -0.6329 -0.9829  0.1693
 5539SOL    HW218059   4.509   6.658   9.713 -0.1051 -0.0759 -0.3213
 5540SOL     OW18060   1.097   1.857  11.177  0.3489 -0.0777  0.2739
 5540SOL    HW118061   1.169   1.825  11.124  0.6907 -0.0731  0.7301
 5540SOL    HW218062   1.132   1.935  11.221  0.1604 -0.2419  0.7231
 5541SOL     OW18063   7.832   3.862  11.407 -0.5376 -0.0778 -0.0242
 5541SOL    HW118064   7.865   3.920  11.338  0.1394  0.9741  1.1397
 5541SOL    HW218065   7.831   3.916  11.486  0.0790 -1.6270  1.1112
 5542SOL     OW18066   2.269   7.624   6.997 -0.4207 -0.3441 -0.9356
 5542SOL    HW118067   2.320   7.543   7.000 -0.3897 -0.3438 -1.4005
 5542SOL    HW218068   2.178   7.594   6.991 -0.3210 -0.3748 -2.9038
 5543SOL     OW18069   7.196   0.150   9.217 -0.0329 -0.0814 -0.4702
 5543SOL    HW118070   7.132   0.138   9.287  0.3369  1.1125  0.1026
 5543SOL    HW218071   7.193   0.068   9.168 -1.4503 -0.3321 -0.0199
 5544SOL     OW18072   5.835   4.622  11.705 -0.1507  0.1628 -0.1738
 5544SOL    HW118073   5.829   4.707  11.660 -0.0428  0.4092  0.2719
 5544SOL    HW218074   5.749   4.582  11.692 -1.3818  1.7267  2.3333
 5545SOL     OW18075   5.110   4.833  10.453  0.0301 -0.1188 -0.4595
 5545SOL    HW118076   5.052   4.883  10.510  0.0397 -0.6210  0.0124
 5545SOL    HW218077   5.124   4.750  10.501  2.6473  0.6937  0.3762
 5546SOL     OW18078   1.132   6.358   3.934 -0.3188  0.0538  0.0631
 5546SOL    HW118079   1.131   6.274   3.888  0.7603  0.4402 -0.7105
 5546SOL    HW218080   1.138   6.335   4.026  1.1280 -0.7384 -0.1969
 5547SOL     OW18081   6.252   1.055   6.305  0.7126  0.0755 -0.0002
 5547SOL    HW118082   6.284   1.006   6.229  3.0606  0.6409  0.5457
 5547SOL    HW218083   6.299   1.138   6.302  1.9014 -0.3950  2.7596
 5548SOL     OW18084   4.768   2.884   1.849 -0.0773 -0.5476 -0.5302
 5548SOL    HW118085   4.721   2.933   1.782  0.7858 -0.2452 -0.9334
 5548SOL    HW218086   4.742   2.924   1.932 -0.4270 -0.3059 -0.7557
 5549SOL     OW18087   4.480   6.922   6.206 -0.0623  0.1942  0.5542
 5549SOL    HW118088   4.396   6.967   6.198 -0.0052  0.2972  0.5270
 5549SOL    HW218089   4.540   6.975   6.154  0.3550  0.9635  1.7949
 5550SOL     OW18090   6.884   5.046   3.720  0.0730 -0.1124 -0.4681
 5550SOL    HW118091   6.941   5.084   3.787 -1.5981 -1.1049  1.6352
 5550SOL    HW218092   6.897   4.952   3.728 -1.1863 -0.3095 -0.5724
 5551SOL     OW18093   2.836   5.156   7.986 -0.0229  0.7584  0.3763
 5551SOL    HW118094   2.783   5.125   8.059 -0.1742  1.9076  0.7685
 5551SOL    HW218095   2.826   5.088   7.919 -1.9634  0.9128  0.4506
 5552SOL     OW18096   3.043   3.307   0.946 -0.9221 -0.5101 -0.0813
 5552SOL    HW118097   2.967   3.358   0.972  1.2252  3.1354 -0.2827
 5552SOL    HW218098   3.095   3.297   1.027 -0.3161 -0.5144 -0.4614
 5553SOL     OW18099   4.840   7.841   2.505  0.3755  0.4663  0.0841
 5553SOL    HW118100   4.907   7.802   2.449  0.3667  2.0426 -1.0912
 5553SOL    HW218101   4.759   7.837   2.454  0.3750  1.9733 -0.0794
 5554SOL     OW18102   7.979   0.285   6.747  0.2766 -0.3028  0.4237
 5554SOL    HW118103   8.022   0.210   6.788  0.5747 -0.4741 -0.1877
 5554SOL    HW218104   7.974   0.262   6.655  0.2280  0.3637  0.2554
 5555SOL     OW18105   7.479   7.667   0.168  0.3837  0.3313  0.0274
 5555SOL    HW118106   7.450   7.728   0.236 -0.6056 -0.5159  0.4079
 5555SOL    HW218107   7.421   7.683   0.094  0.8143  0.5659 -0.2672
 5556SOL     OW18108   2.732   3.074   5.056  0.0443 -0.1718  0.3686
 5556SOL    HW118109   2.684   3.053   4.976  0.2109  2.6678 -0.5847
 5556SOL    HW218110   2.822   3.087   5.028 -0.2062  2.6269  0.5802
 5557SOL     OW18111   6.066   1.364   4.932  0.7911 -0.5940 -0.4905
 5557SOL    HW118112   5.989   1.420   4.946  1.5225  0.2189  0.3850
 5557SOL    HW218113   6.040   1.305   4.861 -0.7585 -0.5565  0.0022
 5558SOL     OW18114   4.717   1.225   6.448 -0.1929 -0.4209  0.4590
 5558SOL    HW118115   4.729   1.304   6.500  0.6556 -0.8191  0.8778
 5558SOL    HW218116   4.742   1.154   6.506 -0.5797 -0.9774 -0.0447
 5559SOL     OW18117   6.400   7.045   0.193 -0.3807  0.5147  0.1320
 5559SOL    HW118118   6.405   7.080   0.282 -0.8572 -1.3014  0.9089
 5559SOL    HW218119   6.388   7.123   0.138 -1.5578  1.5717  1.7758
 5560SOL     OW18120   2.194   2.783   1.293  0.9996 -0.0522  0.6836
 5560SOL    HW118121   2.249   2.861   1.288 -0.1420  0.7694  0.5093
 5560SOL    HW218122   2.227   2.735   1.369  2.3776  0.0667  0.1864
 5561SOL     OW18123   1.256   7.048   1.751  0.0153  0.2542 -0.2251
 5561SOL    HW118124   1.301   7.090   1.824  1.6640  0.6483 -1.4075
 5561SOL    HW218125   1.299   7.083   1.673 -0.9112 -1.0222 -1.3570
 5562SOL     OW18126   4.657   7.410   6.469 -0.1056  0.0314 -0.3762
 5562SOL    HW118127   4.669   7.505   6.468  0.5622 -0.0528 -0.9772
 5562SOL    HW218128   4.702   7.380   6.390  0.9158 -0.9278  0.5497
 5563SOL     OW18129   7.508   5.466  12.041  0.1240 -0.3635  0.1659
 5563SOL    HW118130   7.556   5.446  11.960  0.8053 -1.9093  0.8968
 5563SOL    HW218131   7.536   5.555  12.064  0.0961  0.0116 -1.1559
 5564SOL     OW18132   3.537   1.583   4.295 -0.6773  0.6980  0.2067
 5564SOL    HW118133   3.515   1.667   4.254 -0.2096  0.6058 -0.2551
 5564SOL    HW218134   3.628   1.568   4.270 -0.6351  0.2407  0.6172
 5565SOL     OW18135   1.537   1.668   2.711  0.5976 -0.3527  0.1659
 5565SOL    HW118136   1.545   1.749   2.660 -0.2221  0.1549  0.8262
 5565SOL    HW218137   1.581   1.687   2.794  0.2956 -0.5453  0.3707
 5566SOL     OW18138   0.967   4.556   8.546 -0.2456 -0.1869  0.0845
 5566SOL    HW118139   1.045   4.608   8.568  0.5424 -1.6594  0.9571
 5566SOL    HW218140   0.967   4.486   8.611 -3.0493  0.4832  0.9359
 5567SOL     OW18141   7.241   7.666   0.788  0.1037  0.3581 -0.0696
 5567SOL    HW118142   7.262   7.609   0.715 -1.3309 -0.3790  0.0473
 5567SOL    HW218143   7.290   7.747   0.771  0.9112 -0.3200 -1.0718
 5568SOL     OW18144   0.352   0.827   8.948  0.3231 -0.4036 -0.0609
 5568SOL    HW118145   0.285   0.761   8.930 -0.1048 -0.2551  0.9366
 5568SOL    HW218146   0.413   0.783   9.008 -0.9229  0.6388  2.0560
 5569SOL     OW18147   0.482   4.574   4.669  0.4739 -0.3015 -0.5361
 5569SOL    HW118148   0.563   4.571   4.721  0.0402  0.1102  0.1839
 5569SOL    HW218149   0.432   4.497   4.697  0.2946 -0.1493 -0.4334
 5570SOL     OW18150   1.151   0.525  11.739 -0.1275  0.7638 -0.5853
 5570SOL    HW118151   1.165   0.614  11.707 -2.3391  1.2499 -0.3544
 5570SOL    HW218152   1.057   0.520  11.759 -0.4399 -2.1444 -2.1940
 5571SOL     OW18153   5.506   2.392   9.690  0.0745 -0.0673 -0.0304
 5571SOL    HW118154   5.506   2.456   9.618  1.3490 -0.0407 -0.0288
 5571SOL    HW218155   5.496   2.445   9.769  1.1891  0.1514 -0.0242
 5572SOL     OW18156   5.556   6.786   5.992  0.1953  1.0912  0.1025
 5572SOL    HW118157   5.641   6.830   6.004  1.0106 -1.1127  3.5887
 5572SOL    HW218158   5.501   6.821   6.061 -1.1482  1.0364 -0.9051
 5573SOL     OW18159   0.911   5.438   9.318 -0.0507 -0.9082  0.1464
 5573SOL    HW118160   0.818   5.421   9.304 -0.2558 -1.5957  2.0695
 5573SOL    HW218161   0.924   5.426   9.412  1.9711 -0.7188 -0.0614
 5574SOL     OW18162   3.528   1.512   6.411 -0.1442  0.0126 -0.2777
 5574SOL    HW118163   3.455   1.560   6.372  1.2221  1.0806 -1.6134
 5574SOL    HW218164   3.578   1.578   6.459 -0.8963 -0.9937  2.0522
 5575SOL     OW18165   1.350   2.789   0.256  0.3115 -0.5710  0.0638
 5575SOL    HW118166   1.289   2.839   0.202  3.4245  1.9926 -1.3956
 5575SOL    HW218167   1.351   2.701   0.218 -0.7743 -0.0282 -1.2616
 5576SOL     OW18168   0.844   2.101   3.767  0.5071  0.2468  0.6433
 5576SOL    HW118169   0.885   2.155   3.835  2.4213 -0.0561 -0.2189
 5576SOL    HW218170   0.862   2.011   3.794  0.5359  0.1143  0.1912
 5577SOL     OW18171   6.499   0.071  11.528 -0.0711  0.2526  0.1728
 5577SOL    HW118172   6.579   0.048  11.576 -0.2624  0.6503  0.6918
 5577SOL    HW218173   6.473  -0.010  11.485  1.7472  0.5562 -1.7089
 5578SOL     OW18174   0.592   0.361  11.980  0.3081 -0.5349  0.1450
 5578SOL    HW118175   0.658   0.428  12.002 -0.4370  0.4769 -0.6176
 5578SOL    HW218176   0.510   0.395  12.015  0.1979 -1.8937  1.2783
 5579SOL     OW18177   6.711   2.732  11.568  0.2413 -0.0335 -0.1362
 5579SOL    HW118178   6.697   2.655  11.511 -2.0474  1.1056 -1.2607
 5579SOL    HW218179   6.696   2.807  11.510  0.9346  1.2509  1.2904
 5580SOL     OW18180   1.076   5.428   4.396 -0.2190 -0.0735  0.0580
 5580SOL    HW118181   1.106   5.404   4.308  0.5042  1.3313 -0.1015
 5580SOL    HW218182   1.127   5.373   4.455  1.2522  0.8735 -0.3021
 5581SOL     OW18183   2.627   1.139   5.398  0.0432 -0.7100  0.4534
 5581SOL    HW118184   2.535   1.160   5.414  0.1611  0.3440 -0.1398
 5581SOL    HW218185   2.663   1.119   5.484 -0.7101 -1.0319  0.7035
 5582SOL     OW18186   1.980   5.909   9.474 -0.0417  0.5718 -0.1694
 5582SOL    HW118187   1.990   5.925   9.568  1.5223 -2.1103  0.2128
 5582SOL    HW218188   2.067   5.924   9.438  0.5284 -2.6618 -0.3852
 5583SOL     OW18189   5.279   6.976  11.385 -0.2019  0.6174 -0.5314
 5583SOL    HW118190   5.311   6.979  11.295  1.5433 -0.2810  0.0095
 5583SOL    HW218191   5.334   7.040  11.432  0.3348 -0.4099  0.2840
 5584SOL     OW18192   7.222   4.806   2.002 -0.1173  0.1009  0.5643
 5584SOL    HW118193   7.295   4.864   2.024  1.8604 -1.6462 -0.9432
 5584SOL    HW218194   7.244   4.723   2.044 -1.8202 -0.1983  0.9411
 5585SOL     OW18195   4.208   1.277   2.058 -0.2708 -0.3433  0.2228
 5585SOL    HW118196   4.198   1.356   2.111 -1.5158 -1.6167  2.0153
 5585SOL    HW218197   4.138   1.219   2.089 -1.2266 -1.1060 -3.0216
 5586SOL     OW18198   4.806   7.267   0.565 -0.0806  0.2910 -0.7398
 5586SOL    HW118199   4.733   7.229   0.516 -0.3024  1.2517 -1.1702
 5586SOL    HW218200   4.867   7.297   0.497  0.4187  0.0746 -0.3926
 5587SOL     OW18201   1.843   4.188   5.086 -0.5763  0.4418 -0.6458
 5587SOL    HW118202   1.794   4.172   5.167  0.5877 -1.4547 -0.2682
 5587SOL    HW218203   1.869   4.280   5.092 -1.2673  0.5805  0.7044
 5588SOL     OW18204   7.861   7.260   3.564 -0.5545  0.2079  0.2168
 5588SOL    HW118205   7.851   7.348   3.600  1.0041  0.3358  0.4078
 5588SOL    HW218206   7.821   7.264   3.477  2.6944  2.2134 -1.3557
 5589SOL     OW18207   5.198   4.448  11.742 -0.2987  0.0962 -0.3188
 5589SOL    HW118208   5.234   4.369  11.784 -1.5431  0.2396  1.0817
 5589SOL    HW218209   5.253   4.519  11.774 -0.7697  0.1069  0.4851
 5590SOL     OW18210   0.936   1.141   1.695 -0.0016  0.4486 -0.4437
 5590SOL    HW118211   0.983   1.157   1.777 -1.6661  1.2470  0.4074
 5590SOL    HW218212   0.921   1.047   1.694 -1.3190  0.5950  1.0014
 5591SOL     OW18213   7.558   3.100  10.478  0.6312 -0.8286 -0.5288
 5591SOL    HW118214   7.581   3.020  10.431  1.6587 -0.1299 -1.2519
 5591SOL    HW218215   7.639   3.128  10.519  1.0056  1.2438 -2.4550
 5592SOL     OW18216   1.605   2.967   2.760 -0.0576 -0.0759 -0.2247
 5592SOL    HW118217   1.583   3.014   2.840 -1.2677 -0.1611 -0.4814
 5592SOL    HW218218   1.611   2.875   2.786  1.9066  0.1322  0.1989
 5593SOL     OW18219   5.148   7.612   6.292  0.0888 -0.1903 -0.3110
 5593SOL    HW118220   5.217   7.549   6.313  1.4615  0.9086 -1.3320
 5593SOL    HW218221   5.195   7.690   6.263 -1.5604  1.3624  0.9776
 5594SOL     OW18222   3.298   2.428  11.652 -0.1997  0.7174 -0.0484
 5594SOL    HW118223   3.365   2.495  11.637 -1.0920  1.8530  0.9041
 5594SOL    HW218224   3.272   2.439  11.743 -0.3775 -0.9491  0.1356
 5595SOL     OW18225   7.359   5.119   6.898 -0.5775 -0.5145 -0.2680
 5595SOL    HW118226   7.361   5.166   6.982 -0.7068  0.5230 -0.8301
 5595SOL    HW218227   7.302   5.172   6.843 -0.2529 -1.0312 -1.1099
 5596SOL     OW18228   7.975   1.086   6.134  0.3118 -0.4768 -0.0606
 5596SOL    HW118229   8.045   1.054   6.078 -0.1717  1.6635 -2.0130
 5596SOL    HW218230   7.894   1.064   6.087 -0.1552  0.4882  0.2651
 5597SOL     OW18231   5.723   1.136   4.554 -0.2088  0.1329  0.4437
 5597SOL    HW118232   5.680   1.215   4.522  2.1070  1.0088 -0.7248
 5597SOL    HW218233   5.799   1.124   4.496 -0.1116 -2.6007  0.9796
 5598SOL     OW18234   6.555   3.415   7.934  0.1508  0.0083 -0.2638
 5598SOL    HW118235   6.609   3.456   8.002 -2.1374 -0.5314  2.0254
 5598SOL    HW218236   6.555   3.478   7.862 -0.2648  2.3786  1.6840
 5599SOL     OW18237   6.362   1.767   6.265  0.4259  0.2684 -0.3810
 5599SOL    HW118238   6.302   1.709   6.312  2.6582 -1.4766  0.4620
 5599SOL    HW218239   6.362   1.848   6.317 -0.8632  0.1668 -0.1923
 5600SOL     OW18240   5.376   3.132   6.584  0.3918  0.6152  0.1220
 5600SOL    HW118241   5.354   3.048   6.542  1.6786  0.8332 -1.0503
 5600SOL    HW218242   5.291   3.168   6.610 -0.2454 -0.7022 -0.0427
 5601SOL     OW18243   1.702   6.147   3.078 -0.1619 -0.2348  0.2235
 5601SOL    HW118244   1.730   6.209   3.011 -0.6097  0.6952  0.8876
 5601SOL    HW218245   1.780   6.132   3.132  0.2808 -1.2070 -0.6430
 5602SOL     OW18246   3.187   0.802  12.053 -0.8414 -0.4751 -0.5984
 5602SOL    HW118247   3.180   0.716  12.093  0.9210 -1.0372 -1.4253
 5602SOL    HW218248   3.279   0.826  12.063 -1.4035  1.5914  0.1371
 5603SOL     OW18249   5.971   4.033   5.496 -0.3159  0.7998 -0.1612
 5603SOL    HW118250   5.988   4.113   5.546 -0.7101  0.7620  0.0336
 5603SOL    HW218251   5.953   3.966   5.563  1.5776  0.1516 -0.2286
 5604SOL     OW18252   7.145   6.514   3.983  0.3398 -0.1421  0.4582
 5604SOL    HW118253   7.230   6.523   4.026  1.5359 -0.3169 -1.7412
 5604SOL    HW218254   7.153   6.435   3.930 -1.3379 -0.3611  0.4791
 5605SOL     OW18255   3.554   7.880   8.732  0.2293 -0.1605 -0.5288
 5605SOL    HW118256   3.499   7.900   8.656  0.5787 -0.5366 -0.8827
 5605SOL    HW218257   3.503   7.816   8.782  0.7859 -1.3140 -1.3998
 5606SOL     OW18258   5.600   4.027   1.487 -0.0588  0.2113 -0.2190
 5606SOL    HW118259   5.530   4.070   1.437  0.6127  0.1361 -1.2584
 5606SOL    HW218260   5.664   4.096   1.503  0.5075 -0.1319 -0.9384
 5607SOL     OW18261   4.715   0.004   4.641  0.0600  0.7123 -0.6620
 5607SOL    HW118262   4.701  -0.083   4.680  1.2580  0.1795 -1.3798
 5607SOL    HW218263   4.700  -0.010   4.548  2.5581  0.7097 -1.1155
 5608SOL     OW18264   5.189   1.508   8.973  0.0449  0.5226 -0.0331
 5608SOL    HW118265   5.117   1.533   8.915 -0.8448  0.9509  1.2120
 5608SOL    HW218266   5.257   1.573   8.956 -0.4531  1.0192 -0.1473
 5609SOL     OW18267   3.934   4.345   9.721  0.2180  0.1899  0.0971
 5609SOL    HW118268   3.963   4.436   9.731  0.1781  0.2689 -0.4755
 5609SOL    HW218269   3.944   4.327   9.627  1.3266 -0.7614  0.3738
 5610SOL     OW18270   4.335   3.063  11.409  0.1786 -0.3727  0.4103
 5610SOL    HW118271   4.365   2.974  11.427 -1.3160 -0.9890 -0.0514
 5610SOL    HW218272   4.270   3.081  11.477  0.6529  0.4779  0.6570
 5611SOL     OW18273   5.318   0.965   1.982 -0.1637  0.1822 -0.2829
 5611SOL    HW118274   5.262   1.001   1.913 -0.4979  1.0196  0.4137
 5611SOL    HW218275   5.339   1.039   2.038  1.3990 -0.1793 -0.3416
 5612SOL     OW18276   1.611   7.361   9.740 -0.2351  0.6567 -0.2427
 5612SOL    HW118277   1.593   7.334   9.830  1.4684  2.0627  0.5619
 5612SOL    HW218278   1.619   7.279   9.692 -1.9034 -0.1064  0.6988
 5613SOL     OW18279   4.801   3.721   2.433  0.6754  0.2901 -0.4753
 5613SOL    HW118280   4.858   3.708   2.509  0.1957  0.1034 -0.1430
 5613SOL    HW218281   4.836   3.799   2.390  0.3966  0.9517  0.4653
 5614SOL     OW18282   7.197   5.501  10.355 -0.2838  0.1411  0.1410
 5614SOL    HW118283   7.139   5.445  10.302 -0.8045 -0.6029  1.4476
 5614SOL    HW218284   7.260   5.440  10.393  0.5792  0.7804 -0.2383
 5615SOL     OW18285   4.380   7.014   8.943 -0.2271  0.0947  0.3040
 5615SOL    HW118286   4.355   6.925   8.967 -1.2187  0.1590 -0.4425
 5615SOL    HW218287   4.444   7.040   9.010 -0.0556 -1.1073  0.6220
 5616SOL     OW18288   6.777   7.532   4.161 -0.2367 -0.2211 -0.1006
 5616SOL    HW118289   6.698   7.578   4.135  0.9428  0.8250 -1.9879
 5616SOL    HW218290   6.846   7.598   4.160  0.9593 -1.4063  0.0225
 5617SOL     OW18291   3.147   6.778   4.999 -0.1255  0.4073 -0.8029
 5617SOL    HW118292   3.180   6.697   5.039 -2.1210  0.2142  0.6422
 5617SOL    HW218293   3.080   6.748   4.937  1.4281  0.8340 -2.7741
 5618SOL     OW18294   3.452   6.663   1.212  0.6096  0.1471 -0.3508
 5618SOL    HW118295   3.378   6.723   1.214  0.5063  0.0213 -0.3603
 5618SOL    HW218296   3.412   6.576   1.203  0.3849 -0.5039  4.1851
 5619SOL     OW18297   5.861   5.487   7.435  0.0853 -0.6848  0.4081
 5619SOL    HW118298   5.795   5.556   7.442 -0.7006 -1.3468 -0.2623
 5619SOL    HW218299   5.897   5.479   7.524 -0.0806  0.3203  0.5718
 5620SOL     OW18300   1.761   5.834   8.101 -0.8309  0.0626 -0.2574
 5620SOL    HW118301   1.671   5.842   8.132 -0.6532  0.7576  0.1210
 5620SOL    HW218302   1.813   5.880   8.167 -0.0147 -1.6391  0.3297
 5621SOL     OW18303   3.559   7.065   6.566 -0.0579  0.5185  0.1916
 5621SOL    HW118304   3.534   7.105   6.649 -2.1864  2.2400 -1.1336
 5621SOL    HW218305   3.548   7.135   6.502  1.1611 -0.8362 -1.6001
 5622SOL     OW18306   2.901   3.129   1.696 -0.4395  0.6788  0.9152
 5622SOL    HW118307   2.822   3.132   1.642  0.1699 -0.1210 -0.0428
 5622SOL    HW218308   2.897   3.044   1.739  0.2414  0.3481  0.3330
 5623SOL     OW18309   6.013   0.858   8.087 -0.0451  0.6043  0.0954
 5623SOL    HW118310   5.944   0.917   8.056 -1.2753 -0.6844  0.2967
 5623SOL    HW218311   5.998   0.776   8.039 -0.1779 -0.4753  1.8997
 5624SOL     OW18312   6.485   0.506   7.500  0.3705 -0.5406 -0.0488
 5624SOL    HW118313   6.502   0.412   7.507  3.7431 -0.1672 -1.3828
 5624SOL    HW218314   6.433   0.515   7.420 -0.1269 -1.2687  0.1834
 5625SOL     OW18315   0.417   1.378   8.902 -0.6131  0.5780 -0.2249
 5625SOL    HW118316   0.332   1.336   8.891 -1.5818  1.8576  1.7820
 5625SOL    HW218317   0.448   1.349   8.987  1.0554  0.0620 -0.9631
 5626SOL     OW18318   4.874   0.705   1.272  0.4928 -0.8900 -0.0679
 5626SOL    HW118319   4.895   0.777   1.332  1.1953 -0.1258 -1.2070
 5626SOL    HW218320   4.778   0.703   1.269  0.4441 -0.9740  1.1000
 5627SOL     OW18321   0.509   1.752  12.068 -0.1030 -0.4041 -0.7327
 5627SOL    HW118322   0.467   1.670  12.091 -2.3273  0.5089 -1.3087
 5627SOL    HW218323   0.497   1.761  11.974 -0.0335  0.6355 -0.6625
 5628SOL     OW18324   6.899   2.136   8.165 -0.4926  0.0354 -0.0434
 5628SOL    HW118325   6.924   2.046   8.183 -1.6381 -0.3116 -0.1291
 5628SOL    HW218326   6.851   2.132   8.082  2.8687  1.3051 -2.2520
 5629SOL     OW18327   3.996   5.160   6.396 -0.2236  0.4094  0.3123
 5629SOL    HW118328   3.989   5.131   6.305  0.0428  0.1185  0.3840
 5629SOL    HW218329   3.954   5.246   6.397 -2.2563 -0.5234  0.3634
 5630SOL     OW18330   5.617   3.260  12.113  0.0112  0.2542  0.0501
 5630SOL    HW118331   5.692   3.316  12.092  1.0258 -1.1120 -0.1058
 5630SOL    HW218332   5.620   3.190  12.048 -2.0594  0.7281 -0.6400
 5631SOL     OW18333   7.411   5.040  10.804  0.0772  0.5704  0.2902
 5631SOL    HW118334   7.335   5.025  10.861 -0.0893 -1.4805 -0.4074
 5631SOL    HW218335   7.485   5.042  10.864 -0.3600  1.1137  0.8286
 5632SOL     OW18336   3.700   3.112   4.670  0.1889 -0.6368 -0.3328
 5632SOL    HW118337   3.699   3.016   4.664 -0.1159 -0.6121 -0.7174
 5632SOL    HW218338   3.704   3.142   4.579  1.1919 -0.2864 -0.1891
 5633SOL     OW18339   6.651   1.587   8.786  0.6269 -0.0209  0.1903
 5633SOL    HW118340   6.666   1.681   8.795 -0.7142  0.5395 -2.5556
 5633SOL    HW218341   6.726   1.555   8.736  0.6902 -0.2572  0.4354
 5634SOL     OW18342   7.686   3.222   3.112 -0.5311  0.6260 -0.2193
 5634SOL    HW118343   7.710   3.130   3.097 -0.9543  0.6687 -1.2796
 5634SOL    HW218344   7.753   3.255   3.171 -0.0262 -0.2120 -0.3071
 5635SOL     OW18345   1.091   2.993   3.041 -0.4850  0.1305  0.2784
 5635SOL    HW118346   1.107   3.052   3.115 -2.0119  0.6971  0.1834
 5635SOL    HW218347   1.113   3.046   2.964 -1.5469  0.4932  0.2093
 5636SOL     OW18348   0.427   3.216   7.629 -0.5338 -0.2889  0.2990
 5636SOL    HW118349   0.501   3.240   7.684  0.3943 -1.6365 -0.3092
 5636SOL    HW218350   0.380   3.149   7.680 -0.4187 -0.5862  0.0178
 5637SOL     OW18351   5.049   4.664   5.863 -0.6007 -0.1145  0.0169
 5637SOL    HW118352   5.019   4.628   5.779  1.6745  0.8620 -1.2934
 5637SOL    HW218353   5.031   4.757   5.858  0.3416  0.0893  0.2387
 5638SOL     OW18354   1.396   7.298   9.925  0.3746 -0.3532  0.5394
 5638SOL    HW118355   1.324   7.280   9.985  1.4768  1.4934  2.5741
 5638SOL    HW218356   1.374   7.383   9.886  0.7951 -0.4419  0.0961
 5639SOL     OW18357   4.573   7.797   1.084  0.5280  0.3333 -0.3563
 5639SOL    HW118358   4.526   7.859   1.139  0.1861 -1.1454  1.1199
 5639SOL    HW218359   4.504   7.745   1.042  0.8088  0.1585 -0.6090
 5640SOL     OW18360   6.140   4.342   8.055 -0.1630 -0.2735 -0.3395
 5640SOL    HW118361   6.171   4.254   8.032  0.0071  0.1257 -1.6902
 5640SOL    HW218362   6.046   4.331   8.071 -0.8504 -0.1762 -3.7231
 5641SOL     OW18363   1.225   0.602   4.648 -0.5224 -0.0988 -0.3132
 5641SOL    HW118364   1.147   0.584   4.700  0.3644 -0.9898  0.7587
 5641SOL    HW218365   1.282   0.652   4.707 -0.3424  0.7243 -1.1492
 5642SOL     OW18366   6.196   0.162   6.820  0.0768 -0.1470 -0.3278
 5642SOL    HW118367   6.181   0.207   6.903  1.9972 -1.2466  0.6914
 5642SOL    HW218368   6.119   0.106   6.809 -0.3994  0.3191  0.4829
 5643SOL     OW18369   0.243   0.149   0.330 -0.1281  0.2178  0.3486
 5643SOL    HW118370   0.199   0.154   0.415  0.0140  0.8477  0.3911
 5643SOL    HW218371   0.317   0.210   0.337 -0.6492  0.9929 -0.5281
 5644SOL     OW18372   1.513   6.472   0.322  0.7576 -0.3005  0.6805
 5644SOL    HW118373   1.512   6.567   0.307 -1.7920 -0.1587  1.4243
 5644SOL    HW218374   1.576   6.460   0.393  0.2315  0.9759  1.3920
 5645SOL     OW18375   0.413   1.160   5.296  0.2114 -0.2918  0.2325
 5645SOL    HW118376   0.326   1.192   5.274  0.1134 -0.2188  0.7303
 5645SOL    HW218377   0.454   1.230   5.346  1.2290  0.4278 -1.4948
 5646SOL     OW18378   4.308   0.952   3.955  0.4117 -0.5890  0.0829
 5646SOL    HW118379   4.219   0.986   3.964  0.8177  0.4234  0.3726
 5646SOL    HW218380   4.351   1.012   3.895  0.6721 -1.5687 -0.7434
 5647SOL     OW18381   1.634   7.316   1.564 -0.1505 -0.4031 -0.5569
 5647SOL    HW118382   1.570   7.386   1.550  0.1625 -0.0017 -0.0351
 5647SOL    HW218383   1.661   7.327   1.655  0.6384 -0.5832 -0.7644
 5648SOL     OW18384   4.339   6.473   3.219  0.0800 -0.3474 -0.1279
 5648SOL    HW118385   4.415   6.531   3.228  1.0931 -0.9662 -3.4917
 5648SOL    HW218386   4.366   6.393   3.264  0.3786  0.2857  0.8667
 5649SOL     OW18387   3.777   0.608   8.048  0.2435 -0.4101 -0.0782
 5649SOL    HW118388   3.743   0.587   8.135  0.3171 -1.3140 -0.2535
 5649SOL    HW218389   3.714   0.568   7.988 -0.4219  1.1539 -0.4815
 5650SOL     OW18390   7.494   5.704   8.970  0.6536 -0.2904 -0.4370
 5650SOL    HW118391   7.417   5.650   8.990 -0.0281  0.7091 -0.2593
 5650SOL    HW218392   7.465   5.793   8.988  1.7553  0.1361 -0.7247
 5651SOL     OW18393   6.951   6.966   0.029  0.2087  0.7044 -0.2645
 5651SOL    HW118394   7.013   6.895   0.047  1.1909  1.6717  0.2975
 5651SOL    HW218395   6.866   6.930   0.054  0.8864  0.2714  1.6511
 5652SOL     OW18396   0.676   2.469   0.613  0.5765  0.3255 -0.3282
 5652SOL    HW118397   0.621   2.401   0.574 -0.1983  0.9757 -0.3890
 5652SOL    HW218398   0.721   2.509   0.539  1.5495 -0.5486 -0.2307
 5653SOL     OW18399   1.260   7.193   9.042  0.3106  0.2775 -0.5842
 5653SOL    HW118400   1.182   7.143   9.021  0.4974  0.3085 -1.3986
 5653SOL    HW218401   1.239   7.239   9.124  0.8967 -2.8051  1.4545
 5654SOL     OW18402   0.459   6.812   6.080  0.1186  0.6927  0.0049
 5654SOL    HW118403   0.505   6.881   6.032 -0.6413  0.4400 -1.1324
 5654SOL    HW218404   0.369   6.844   6.088  0.2552  0.7928  1.4233
 5655SOL     OW18405   3.793   5.069  10.091 -0.2747 -0.7602  0.0386
 5655SOL    HW118406   3.839   5.009  10.148 -0.6928 -0.1897  0.9973
 5655SOL    HW218407   3.720   5.102  10.143 -1.5406 -1.3204 -1.3005
 5656SOL     OW18408   0.101   4.044  11.582  0.0461  0.4153 -0.2331
 5656SOL    HW118409   0.039   4.111  11.552  0.1819  0.4659 -0.4068
 5656SOL    HW218410   0.181   4.093  11.602 -0.2349  0.4671  0.8267
 5657SOL     OW18411   4.090   3.713   5.543  0.2680  0.0519  0.2310
 5657SOL    HW118412   4.069   3.620   5.532  2.1069 -0.2199 -1.5112
 5657SOL    HW218413   4.182   3.713   5.570  1.0744  1.3854 -2.2530
 5658SOL     OW18414   3.264   7.404   2.015 -0.0796 -0.6527  0.1397
 5658SOL    HW118415   3.224   7.484   2.048  1.2943  0.2684 -0.3312
 5658SOL    HW218416   3.194   7.362   1.964 -0.8494  0.2016  0.4608
 5659SOL     OW18417   1.705   7.769   7.850 -0.1797 -0.3401 -0.6799
 5659SOL    HW118418   1.723   7.854   7.811  2.5868 -0.6025 -0.1925
 5659SOL    HW218419   1.729   7.706   7.783  0.5546 -0.7374 -0.0619
 5660SOL     OW18420   7.670   1.853  11.203  0.9233 -0.5857 -0.5130
 5660SOL    HW118421   7.709   1.933  11.239  1.2919 -0.7287 -0.5941
 5660SOL    HW218422   7.741   1.810  11.156  1.2066 -1.8751  1.0170
 5661SOL     OW18423   6.763   7.528   1.907 -0.3945  0.2917 -0.3340
 5661SOL    HW118424   6.858   7.515   1.913 -0.5882 -0.4431  1.7559
 5661SOL    HW218425   6.726   7.468   1.972 -2.2535  1.2223 -0.4709
 5662SOL     OW18426   4.126   1.411   0.072 -0.3506  0.1084  0.1173
 5662SOL    HW118427   4.051   1.356   0.049  0.3029  0.1508 -2.3098
 5662SOL    HW218428   4.119   1.488   0.016  0.9536  0.6214  0.6058
 5663SOL     OW18429   3.810   0.345   6.116 -0.5647 -0.4007  0.5751
 5663SOL    HW118430   3.837   0.312   6.202 -0.4661  0.4975  0.9020
 5663SOL    HW218431   3.716   0.326   6.112 -0.5494 -0.5375  0.8334
 5664SOL     OW18432   2.737   1.673  11.795  0.1877  0.2027 -0.0813
 5664SOL    HW118433   2.757   1.612  11.866 -1.8015 -0.4025  0.0131
 5664SOL    HW218434   2.686   1.742  11.837 -2.8695 -1.2233 -1.1904
 5665SOL     OW18435   3.515   6.320  11.950 -0.0282  0.0973 -0.5222
 5665SOL    HW118436   3.484   6.370  11.874 -1.1508 -0.5789 -0.5243
 5665SOL    HW218437   3.573   6.254  11.912 -0.4045 -0.0919 -0.7845
 5666SOL     OW18438   0.683   1.918   3.570  0.2059  0.7172 -0.4631
 5666SOL    HW118439   0.774   1.935   3.546 -0.0644  0.5665 -1.6717
 5666SOL    HW218440   0.680   1.931   3.665  2.1086 -1.9581  0.0974
 5667SOL     OW18441   4.870   0.008   5.186 -0.1386 -0.1717 -0.5613
 5667SOL    HW118442   4.788   0.054   5.174 -0.6578 -0.8458  0.3503
 5667SOL    HW218443   4.864  -0.033   5.272  1.2290 -0.0764 -0.3897
 5668SOL     OW18444   2.076   1.243   5.814  0.3238 -0.0450 -0.0145
 5668SOL    HW118445   1.998   1.236   5.870  1.7873  2.5838  2.6358
 5668SOL    HW218446   2.135   1.175   5.845 -0.4148 -1.3310 -1.3027
 5669SOL     OW18447   4.030   1.390   1.550 -0.4459 -0.0184  0.2244
 5669SOL    HW118448   4.120   1.376   1.579 -0.3597  0.2302  0.0865
 5669SOL    HW218449   4.038   1.450   1.475 -0.7860  0.6793  0.7312
 5670SOL     OW18450   4.862   0.210   4.417 -0.0188 -0.3971 -0.1903
 5670SOL    HW118451   4.789   0.247   4.367  0.6648 -1.2008 -1.8678
 5670SOL    HW218452   4.837   0.119   4.433  1.2230 -1.1610 -2.1941
 5671SOL     OW18453   2.688   6.454  12.276 -0.1478 -0.5426 -0.0005
 5671SOL    HW118454   2.708   6.384  12.213  1.2396 -0.7135  0.6051
 5671SOL    HW218455   2.593   6.450  12.287 -0.1954 -1.7031 -0.7005
 5672SOL     OW18456   7.565   2.154   6.050 -0.0193 -0.2206  0.0476
 5672SOL    HW118457   7.626   2.224   6.025 -0.7009  0.6833  0.8285
 5672SOL    HW218458   7.563   2.096   5.974  0.7028  0.5149 -0.5588
 5673SOL     OW18459   0.996   0.107   1.877 -0.6509 -0.0670  0.1674
 5673SOL    HW118460   1.089   0.092   1.864 -0.9044 -1.2850 -0.3973
 5673SOL    HW218461   0.990   0.154   1.960  0.5778  1.7203 -0.7103
 5674SOL     OW18462   7.116   6.792  11.251  0.0246  0.6292  0.1837
 5674SOL    HW118463   7.086   6.848  11.180  2.0179 -0.3580 -1.5575
 5674SOL    HW218464   7.152   6.852  11.317 -1.2482  1.5292  0.0834
 5675SOL     OW18465   1.144   1.150   0.336 -0.5953  0.1640  0.8646
 5675SOL    HW118466   1.109   1.098   0.408 -1.0168 -0.5662  0.1413
 5675SOL    HW218467   1.131   1.241   0.363  0.1182 -0.0924  2.1269
 5676SOL     OW18468   3.210   3.224   4.421 -0.1939  1.1428 -0.1270
 5676SOL    HW118469   3.189   3.255   4.333 -0.5655  1.0072 -0.0911
 5676SOL    HW218470   3.305   3.219   4.424 -0.0934  2.8482  0.0748
 5677SOL     OW18471   3.881   1.071   6.055 -0.1696  0.1864 -0.1224
 5677SOL    HW118472   3.866   1.022   6.135 -0.0647 -0.4461 -0.4810
 5677SOL    HW218473   3.862   1.009   5.985  0.9304  0.3493 -0.5942
 5678SOL     OW18474   6.505   1.371   4.906 -0.0682 -0.4208 -0.8838
 5678SOL    HW118475   6.512   1.349   4.999 -0.1212  0.9095 -0.5401
 5678SOL    HW218476   6.435   1.436   4.903  0.2745 -0.0900 -1.7909
 5679SOL     OW18477   2.688   6.151   5.919  0.5949 -0.2793 -0.2863
 5679SOL    HW118478   2.728   6.138   5.833  0.8946  1.5485 -0.4605
 5679SOL    HW218479   2.722   6.235   5.949 -0.4257 -0.3236  1.1147
 5680SOL     OW18480   6.790   6.472   2.878  0.3360 -0.1447  0.1889
 5680SOL    HW118481   6.748   6.503   2.959  0.0820  0.0212 -0.0057
 5680SOL    HW218482   6.872   6.434   2.908  0.8030  0.9863  0.4160
 5681SOL     OW18483   0.903   4.548   3.280 -0.3160  0.3341 -0.3106
 5681SOL    HW118484   0.854   4.512   3.205  0.9034 -0.6293 -0.6800
 5681SOL    HW218485   0.936   4.470   3.326  0.0959  0.9478  0.4423
 5682SOL     OW18486   4.486   4.812   6.289 -0.2188  0.9805 -0.1642
 5682SOL    HW118487   4.509   4.888   6.342  0.9581  0.1755  0.5164
 5682SOL    HW218488   4.550   4.745   6.313 -1.4017 -0.3369 -0.5256
 5683SOL     OW18489   1.695   2.301   7.304 -0.0844  0.1214  0.2553
 5683SOL    HW118490   1.725   2.361   7.371 -0.0811 -0.1196  0.4742
 5683SOL    HW218491   1.683   2.355   7.226  1.2475  0.1596  0.0571
 5684SOL     OW18492   2.578   5.285   1.143  0.5970  0.4846  0.2071
 5684SOL    HW118493   2.649   5.277   1.206  1.6716 -0.7816 -1.1034
 5684SOL    HW218494   2.555   5.194   1.121 -0.4453  0.8925 -0.4741
 5685SOL     OW18495   4.050   1.779  10.434 -0.3134  0.3361  0.0161
 5685SOL    HW118496   3.970   1.740  10.397 -0.7789  0.5214  0.8145
 5685SOL    HW218497   4.092   1.822  10.359 -0.7621 -0.0846 -0.4897
 5686SOL     OW18498   7.123   6.611   8.205 -0.2421 -0.0101 -0.0520
 5686SOL    HW118499   7.070   6.596   8.127 -0.2602 -0.0843 -0.0250
 5686SOL    HW218500   7.073   6.572   8.277 -1.7800  2.7873  0.5236
 5687SOL     OW18501   7.905   6.551   4.746 -0.5373 -0.0016  0.7914
 5687SOL    HW118502   7.919   6.491   4.820 -0.5340 -0.1705  0.6527
 5687SOL    HW218503   7.832   6.607   4.775 -1.0022 -0.5219  0.6397
 5688SOL     OW18504   4.762   4.222   1.891  0.0366  0.0363 -0.0855
 5688SOL    HW118505   4.795   4.142   1.931  0.6563  0.1727 -0.3130
 5688SOL    HW218506   4.713   4.265   1.961 -0.1859 -0.4741  0.0745
 5689SOL     OW18507   2.037   6.283  11.484 -0.8305  0.3624  0.5751
 5689SOL    HW118508   1.949   6.304  11.515 -1.0726 -0.6861  0.6067
 5689SOL    HW218509   2.095   6.333  11.542 -1.4221  2.8474 -0.8086
 5690SOL     OW18510   1.369   2.310   2.749  0.7585  0.1448 -0.0948
 5690SOL    HW118511   1.415   2.345   2.826 -0.5913 -1.2496  1.4339
 5690SOL    HW218512   1.289   2.362   2.744  1.4524  1.1227 -1.4145
 5691SOL     OW18513   3.438   1.381   6.938 -0.2046 -0.8819 -0.5168
 5691SOL    HW118514   3.366   1.435   6.903  0.7462  0.5250 -0.3785
 5691SOL    HW218515   3.433   1.393   7.033  0.1758 -0.8249 -0.5033
 5692SOL     OW18516   4.443   3.870  10.039 -0.1316  0.2401 -0.0262
 5692SOL    HW118517   4.349   3.888  10.043 -0.2174 -0.4979  2.1899
 5692SOL    HW218518   4.484   3.946  10.081  0.0018 -0.9630  2.1303
 5693SOL     OW18519   1.533   4.348   8.862 -0.1905  0.2839 -0.0223
 5693SOL    HW118520   1.597   4.295   8.910 -1.8052 -0.7194  1.1458
 5693SOL    HW218521   1.465   4.368   8.927 -1.2530  0.9859 -1.2922
 5694SOL     OW18522   3.796   7.263   8.057  0.5770  0.0161 -0.4743
 5694SOL    HW118523   3.889   7.260   8.081  0.6852 -3.0286 -0.9407
 5694SOL    HW218524   3.750   7.278   8.139  1.4000  0.1281 -0.0188
 5695SOL     OW18525   7.719   5.369   4.614 -0.7811  0.0137 -0.0041
 5695SOL    HW118526   7.781   5.296   4.609 -0.3091  0.4749 -2.0195
 5695SOL    HW218527   7.771   5.442   4.648 -0.3723  0.2176 -1.0328
 5696SOL     OW18528   0.794   1.403   2.727  0.2932 -0.3056  0.2225
 5696SOL    HW118529   0.797   1.488   2.770  0.7627 -0.4475  0.4747
 5696SOL    HW218530   0.767   1.422   2.637 -2.6052 -0.1882  1.0176
 5697SOL     OW18531   2.089   4.732   9.933  0.7737 -1.1089  0.0859
 5697SOL    HW118532   2.074   4.755   9.841 -0.2765 -2.6882 -0.1795
 5697SOL    HW218533   2.065   4.640   9.939 -1.4557 -0.5090  2.4127
 5698SOL     OW18534   4.126   5.268   1.974  0.3148  0.6379  0.4355
 5698SOL    HW118535   4.113   5.309   2.060 -0.6365  0.4550  0.3899
 5698SOL    HW218536   4.038   5.258   1.939  0.7458  1.5370 -0.9662
 5699SOL     OW18537   0.550   1.856   6.257 -0.0481 -0.0653  0.3389
 5699SOL    HW118538   0.512   1.792   6.316  2.3850 -1.2365  0.7732
 5699SOL    HW218539   0.606   1.804   6.199  0.8367  1.5152 -0.2762
 5700SOL     OW18540   5.324   2.896   2.726  0.1558 -0.8289  0.3980
 5700SOL    HW118541   5.390   2.964   2.740  0.8797 -1.1156 -1.4226
 5700SOL    HW218542   5.332   2.839   2.803  0.6899  0.2156  1.1315
 5701SOL     OW18543   0.333   1.414   9.594 -0.3117 -0.0652 -0.1521
 5701SOL    HW118544   0.298   1.459   9.671  0.6456  1.0542 -0.3335
 5701SOL    HW218545   0.420   1.452   9.582 -0.1295 -0.7941 -1.3214
 5702SOL     OW18546   2.309   0.716   5.259  0.2643 -0.7647  0.1952
 5702SOL    HW118547   2.230   0.760   5.289  0.9989  1.0313 -0.3783
 5702SOL    HW218548   2.290   0.691   5.169  0.4889  0.0913 -0.1012
 5703SOL     OW18549   1.664   1.204   6.232  0.0756 -0.0906 -0.3473
 5703SOL    HW118550   1.740   1.221   6.177  2.0891 -2.2957  1.5872
 5703SOL    HW218551   1.683   1.248   6.315 -0.3697 -1.3384  0.4416
 5704SOL     OW18552   0.781   5.680   2.546 -0.0174 -0.0457  0.0003
 5704SOL    HW118553   0.759   5.595   2.584  1.2789  0.0897  1.1110
 5704SOL    HW218554   0.858   5.663   2.492  0.0253  0.3687 -0.0695
 5705SOL     OW18555   5.897   7.451   1.318 -0.2909 -0.0331 -0.0473
 5705SOL    HW118556   5.894   7.485   1.407  0.1905 -0.1583  0.0199
 5705SOL    HW218557   5.990   7.451   1.295 -0.5214  1.4301 -1.1063
 5706SOL     OW18558   3.272   1.922  11.956 -0.0641  0.2275  0.9032
 5706SOL    HW118559   3.251   1.845  12.009  0.5526 -0.0400  0.7659
 5706SOL    HW218560   3.329   1.975  12.011  0.8220 -0.1936  0.4129
 5707SOL     OW18561   6.354   6.503   3.389 -0.1309  0.2171 -0.2266
 5707SOL    HW118562   6.313   6.417   3.399 -1.7286  1.0313  0.6914
 5707SOL    HW218563   6.397   6.499   3.303 -2.1753 -0.7121 -1.2849
 5708SOL     OW18564   4.730   3.496   3.779  0.3485 -0.5650  0.2877
 5708SOL    HW118565   4.700   3.433   3.713  2.6316 -1.5483  0.0721
 5708SOL    HW218566   4.789   3.555   3.730 -1.3866  1.5436  0.5738
 5709SOL     OW18567   4.991   1.335  12.211 -0.0892  0.0029 -0.3770
 5709SOL    HW118568   5.079   1.337  12.249 -0.8145  0.7427  1.3554
 5709SOL    HW218569   4.932   1.335  12.286 -1.5925 -1.3857 -1.4868
 5710SOL     OW18570   2.974   6.330   3.817 -0.7436  0.5446 -0.1410
 5710SOL    HW118571   3.055   6.283   3.798 -1.5887  0.0024 -2.9977
 5710SOL    HW218572   3.002   6.419   3.839  0.7589 -0.5726  2.9958
 5711SOL     OW18573   4.499   6.018   7.305  0.0009 -0.0340 -0.3519
 5711SOL    HW118574   4.453   6.042   7.385 -0.0640 -1.0142 -0.0863
 5711SOL    HW218575   4.512   5.924   7.312  0.4293 -0.0533 -1.2724
 5712SOL     OW18576   7.871   3.795   5.470 -0.1019 -0.0705 -0.0295
 5712SOL    HW118577   7.778   3.813   5.481  0.1389  1.0567  0.3810
 5712SOL    HW218578   7.888   3.808   5.376 -0.1667  0.8056  0.0686
 5713SOL     OW18579   4.229   0.040   9.476  0.1949 -0.2183 -0.0943
 5713SOL    HW118580   4.203  -0.034   9.531 -0.6466  0.0639 -0.1003
 5713SOL    HW218581   4.321   0.053   9.497 -0.0305 -0.3033  1.0498
 5714SOL     OW18582   5.139   6.873   3.371 -0.1897 -0.0732  0.4259
 5714SOL    HW118583   5.223   6.895   3.332 -0.8030 -0.6719 -1.3075
 5714SOL    HW218584   5.114   6.951   3.420  1.7252 -0.1682  1.6790
 5715SOL     OW18585   0.041   7.675   1.066  0.1619 -0.3470 -0.6653
 5715SOL    HW118586   0.120   7.712   1.106  0.0447 -2.0674  1.3404
 5715SOL    HW218587  -0.031   7.724   1.105  0.0888 -1.4514  0.6403
 5716SOL     OW18588   4.666   1.351   5.569 -0.1013  0.1835  0.9337
 5716SOL    HW118589   4.762   1.349   5.576 -0.1163  0.8264  1.4843
 5716SOL    HW218590   4.648   1.432   5.521 -0.3778  0.1758  1.0240
 5717SOL     OW18591   2.923   3.536   9.242 -0.6812 -0.2924 -0.1146
 5717SOL    HW118592   2.837   3.495   9.229  0.2210 -2.8019  1.1090
 5717SOL    HW218593   2.912   3.591   9.320 -0.8144 -1.9938  1.1253
 5718SOL     OW18594   0.873   0.185   6.402  0.3411 -0.3122  0.0185
 5718SOL    HW118595   0.944   0.140   6.356  1.9300  0.3101  1.7643
 5718SOL    HW218596   0.825   0.115   6.447 -0.5890 -0.8006 -1.6403
 5719SOL     OW18597   4.419   4.341   9.061 -0.2551 -0.5048 -0.0456
 5719SOL    HW118598   4.390   4.257   9.026 -1.0426  0.2066 -1.1799
 5719SOL    HW218599   4.381   4.406   9.002 -0.2358  0.6846  1.1949
 5720SOL     OW18600   7.027   4.775   2.863 -0.0468 -0.4447 -0.0288
 5720SOL    HW118601   7.072   4.843   2.812 -0.1024 -0.2112  0.2295
 5720SOL    HW218602   7.038   4.802   2.954  0.2958 -1.0122  0.1012
 5721SOL     OW18603   3.462   7.001   0.350  0.3519  0.0451  0.1180
 5721SOL    HW118604   3.547   6.964   0.374  0.5045  0.0476 -0.4031
 5721SOL    HW218605   3.420   7.020   0.434  1.5503  1.6132  0.4196
 5722SOL     OW18606   6.211   4.839   3.273  0.1399  0.1218 -0.0619
 5722SOL    HW118607   6.213   4.747   3.248  0.5866 -0.4213  1.8407
 5722SOL    HW218608   6.269   4.882   3.211  2.5066 -1.4327  0.9557
 5723SOL     OW18609   2.989   6.732   5.859 -0.7581 -0.4252 -0.0678
 5723SOL    HW118610   2.998   6.666   5.790  0.1143 -0.7372  0.3380
 5723SOL    HW218611   3.046   6.804   5.831 -0.0238 -0.7531  0.5512
 5724SOL     OW18612   5.963   3.999   4.066 -0.1042  0.3228  0.1994
 5724SOL    HW118613   5.888   3.967   4.016 -1.6313 -2.3963  3.7206
 5724SOL    HW218614   5.937   4.086   4.096 -0.8038  0.3919 -0.5832
 5725SOL     OW18615   1.341   1.990   7.009  0.3295  0.0318 -0.0817
 5725SOL    HW118616   1.349   1.961   7.100 -0.8201 -0.1901 -0.0246
 5725SOL    HW218617   1.259   2.039   7.008  0.4278  0.1829 -0.9630
 5726SOL     OW18618   4.162   0.482   4.794 -0.1310 -0.4588  0.3106
 5726SOL    HW118619   4.256   0.499   4.795  0.4973 -3.4035  1.0829
 5726SOL    HW218620   4.125   0.555   4.745  2.5810  0.6107 -0.3292
 5727SOL     OW18621   5.578   3.494   5.601  0.3695  0.5105 -0.7474
 5727SOL    HW118622   5.560   3.585   5.578  1.9440  0.9605 -0.3032
 5727SOL    HW218623   5.544   3.485   5.690  1.0939  0.9663 -0.4161
 5728SOL     OW18624   3.144   4.968   4.912 -0.0317 -0.1242 -0.2121
 5728SOL    HW118625   3.110   4.882   4.932 -0.2121  0.2375  1.0966
 5728SOL    HW218626   3.239   4.957   4.911  0.0460  0.0025  1.7846
 5729SOL     OW18627   7.866   5.589  10.734 -0.2538 -0.0158 -0.2021
 5729SOL    HW118628   7.957   5.563  10.717 -0.6852 -1.5732 -0.2896
 5729SOL    HW218629   7.865   5.612  10.827  0.3091  0.4089 -0.2952
 5730SOL     OW18630   2.199   4.310  10.227  1.0070 -0.1979 -0.0296
 5730SOL    HW118631   2.227   4.349  10.144 -0.4417 -0.7269 -0.8018
 5730SOL    HW218632   2.281   4.293  10.274  1.7712  1.9175 -0.4930
 5731SOL     OW18633   6.919   0.981   3.659  0.1100  0.1849 -0.2590
 5731SOL    HW118634   6.941   1.007   3.749  0.3604  1.5054 -0.6731
 5731SOL    HW218635   6.868   1.054   3.625  0.2560 -0.1728 -1.2815
 5732SOL     OW18636   7.180   4.154   0.550 -0.2824  0.1156 -0.3062
 5732SOL    HW118637   7.243   4.224   0.566 -1.6809  1.6038 -1.0751
 5732SOL    HW218638   7.120   4.158   0.624  0.0066 -0.7475 -0.0083
 5733SOL     OW18639   0.445   1.213   1.540 -0.6630 -0.5718 -0.5098
 5733SOL    HW118640   0.475   1.186   1.626  1.1523  0.7647 -0.6687
 5733SOL    HW218641   0.359   1.252   1.555  0.5686  1.7573  1.1350
 5734SOL     OW18642   4.830   1.819   8.395 -0.3240 -0.5649  0.0352
 5734SOL    HW118643   4.869   1.898   8.358  0.4449 -1.9463 -2.3462
 5734SOL    HW218644   4.895   1.787   8.458  0.6107 -0.6886 -0.9585
 5735SOL     OW18645   7.330   7.783  11.170 -0.5471  1.0851 -0.5579
 5735SOL    HW118646   7.277   7.808  11.094 -0.6950  0.2123 -0.7527
 5735SOL    HW218647   7.339   7.864  11.221 -1.3362  1.4357 -0.9602
 5736SOL     OW18648   5.824   5.140   3.319  0.1016 -0.0220  0.1030
 5736SOL    HW118649   5.867   5.066   3.361  0.5464  1.1026  1.6979
 5736SOL    HW218650   5.826   5.119   3.226 -0.0036 -2.1152  0.5389
 5737SOL     OW18651   3.202   7.722  11.102 -0.5881 -0.0653 -0.0829
 5737SOL    HW118652   3.149   7.800  11.116 -2.1634 -1.1532  0.2596
 5737SOL    HW218653   3.291   7.755  11.094 -1.3473  1.8884 -1.2473
 5738SOL     OW18654   2.661   7.941   5.158 -0.1150 -0.3740  0.2477
 5738SOL    HW118655   2.682   8.006   5.091 -1.4227  0.4072  0.5481
 5738SOL    HW218656   2.567   7.952   5.173 -0.4805 -2.7012 -0.0408
 5739SOL     OW18657   0.371   0.733  11.492  0.2349 -0.1402  0.0193
 5739SOL    HW118658   0.285   0.706  11.524  0.1671 -0.7687 -0.6580
 5739SOL    HW218659   0.381   0.687  11.409  2.3906 -2.2474  1.3283
 5740SOL     OW18660   1.453   5.884  12.173 -0.4119 -0.2935  0.6478
 5740SOL    HW118661   1.393   5.958  12.177  2.3400  2.1120  0.9370
 5740SOL    HW218662   1.474   5.876  12.080 -1.9298 -1.8825  0.3938
 5741SOL     OW18663   6.409   6.536   1.037 -0.1408  0.2681  0.4902
 5741SOL    HW118664   6.369   6.564   1.119 -0.0047 -1.6107  1.2438
 5741SOL    HW218665   6.337   6.496   0.988 -0.0928  0.8575 -0.0814
 5742SOL     OW18666   3.510   7.675  10.790  0.1194  0.5055 -0.3969
 5742SOL    HW118667   3.458   7.661  10.711  2.3002  1.4758 -2.1256
 5742SOL    HW218668   3.578   7.738  10.763  1.5068  0.1681  2.0086
 5743SOL     OW18669   1.560   3.877   1.666 -0.3627 -0.1302 -0.3659
 5743SOL    HW118670   1.642   3.834   1.689 -2.1329 -3.2978  0.5066
 5743SOL    HW218671   1.568   3.894   1.572  1.3028 -0.2858 -0.2845
 5744SOL     OW18672   2.732   2.126   4.638  0.7279 -0.1702 -0.0404
 5744SOL    HW118673   2.647   2.088   4.614  1.4352 -1.2156 -0.9652
 5744SOL    HW218674   2.792   2.094   4.571  1.6017  1.6710 -0.1886
 5745SOL     OW18675   1.147   0.866  11.863 -0.3910 -0.0905  0.2012
 5745SOL    HW118676   1.101   0.945  11.835 -1.4127 -0.1927  1.4762
 5745SOL    HW218677   1.225   0.862  11.807 -0.5146  1.5973 -0.1453
 5746SOL     OW18678   0.305   3.421   1.053 -0.4056 -0.3085  0.5539
 5746SOL    HW118679   0.362   3.468   0.992  2.0572 -1.1674  2.0618
 5746SOL    HW218680   0.281   3.341   1.006 -1.1058  0.4185 -0.3872
 5747SOL     OW18681   2.112   2.669   0.534 -0.1371 -0.2951 -0.0032
 5747SOL    HW118682   2.019   2.657   0.516  0.1642 -1.0791 -1.1533
 5747SOL    HW218683   2.137   2.745   0.482  0.5196 -1.9674 -2.2476
 5748SOL     OW18684   0.878   5.937   0.951 -0.3360 -0.2732  0.5496
 5748SOL    HW118685   0.783   5.943   0.958 -0.3173 -0.1046  0.6635
 5748SOL    HW218686   0.911   5.966   1.036 -0.1475  0.6778  0.1557
 5749SOL     OW18687   4.526   7.293   5.619 -0.0936  0.1503  0.9344
 5749SOL    HW118688   4.511   7.320   5.710 -3.3575  0.3929  0.4410
 5749SOL    HW218689   4.530   7.375   5.570 -0.1139 -0.0193  0.6461
 5750SOL     OW18690   7.172   3.906   2.280  0.0748  0.1624 -0.4116
 5750SOL    HW118691   7.165   3.958   2.200 -1.8892  0.1757 -0.2789
 5750SOL    HW218692   7.216   3.964   2.343 -0.3441  0.9560 -0.8380
 5751SOL     OW18693   1.213   3.496   7.629  0.6047  0.1286 -0.1669
 5751SOL    HW118694   1.247   3.493   7.718  1.2063 -1.7418 -0.4142
 5751SOL    HW218695   1.143   3.430   7.628 -0.6944  1.4664 -0.5949
 5752SOL     OW18696   6.148   5.294   4.047  0.0764 -0.3701  0.1914
 5752SOL    HW118697   6.213   5.358   4.020  0.8822 -1.2051  0.0935
 5752SOL    HW218698   6.076   5.346   4.081  0.7764  0.5788  0.2693
 5753SOL     OW18699   2.373   2.015  11.494 -0.0527  0.1857  0.4126
 5753SOL    HW118700   2.284   2.002  11.464 -0.1094  1.0317  0.1801
 5753SOL    HW218701   2.426   1.956  11.440 -0.5446 -0.8635  1.0630
 5754SOL     OW18702   0.646   6.698   2.397  0.1371 -0.7070 -0.3619
 5754SOL    HW118703   0.713   6.707   2.465 -1.0333 -1.2966  0.9143
 5754SOL    HW218704   0.669   6.764   2.332  2.0032 -0.9595 -0.0181
 5755SOL     OW18705   5.179   1.239   5.472 -0.2936  0.0675 -0.3839
 5755SOL    HW118706   5.239   1.208   5.539 -0.8292  0.3374  0.2285
 5755SOL    HW218707   5.224   1.313   5.431  0.4352 -0.6892 -0.9740
 5756SOL     OW18708   1.908   3.057   5.363 -0.2726  0.0725  0.5143
 5756SOL    HW118709   1.996   3.085   5.337 -0.2633 -0.7548 -0.4140
 5756SOL    HW218710   1.906   3.069   5.458 -0.0585  2.5650  0.2754
 5757SOL     OW18711   4.922   4.905   9.875  0.1639  0.0706 -0.2089
 5757SOL    HW118712   5.015   4.898   9.852 -0.2176 -0.5352 -1.7004
 5757SOL    HW218713   4.915   4.857   9.958  1.2229  0.3463  0.0607
 5758SOL     OW18714   4.991   7.760  10.711 -1.1580  0.1099 -0.0213
 5758SOL    HW118715   5.034   7.679  10.737  0.3318  1.0268  0.5293
 5758SOL    HW218716   5.060   7.827  10.718 -2.3037  1.4018 -0.5717
 5759SOL     OW18717   0.399   2.552   8.938 -0.1622  0.3129  0.0483
 5759SOL    HW118718   0.362   2.496   9.006 -0.3203  0.2151 -0.1174
 5759SOL    HW218719   0.337   2.545   8.865  1.8073 -2.5546 -1.5438
 5760SOL     OW18720   4.775   2.052   7.438  0.1609  0.0256 -0.0021
 5760SOL    HW118721   4.793   2.146   7.430  0.7377 -0.1216 -0.4570
 5760SOL    HW218722   4.853   2.009   7.404 -0.9392 -0.6234 -1.8838
 5761SOL     OW18723   3.787   1.827   5.522 -0.3684  0.3447 -0.3405
 5761SOL    HW118724   3.765   1.894   5.458  0.2906 -0.9837 -2.0511
 5761SOL    HW218725   3.728   1.754   5.501 -0.9891  0.3001  1.3893
 5762SOL     OW18726   0.499   0.809   1.761 -0.0651 -0.5913 -0.0106
 5762SOL    HW118727   0.446   0.777   1.834  0.4482 -0.6850  0.3233
 5762SOL    HW218728   0.469   0.759   1.686 -0.4059 -0.6895  0.1866
 5763SOL     OW18729   3.440   5.476   7.480  0.1745  0.7712 -0.2862
 5763SOL    HW118730   3.492   5.428   7.415 -0.0090 -0.3646  0.3826
 5763SOL    HW218731   3.499   5.544   7.513  0.5595  0.7825 -0.9830
 5764SOL     OW18732   5.793   0.795   3.679 -0.2213  0.3841  0.1670
 5764SOL    HW118733   5.774   0.701   3.680 -0.9247  0.5184  1.0546
 5764SOL    HW218734   5.880   0.802   3.640 -0.2762 -0.6110 -0.1592
 5765SOL     OW18735   4.397   5.559   6.184 -0.1105 -0.3868 -0.0140
 5765SOL    HW118736   4.398   5.603   6.269  0.2526  0.0665 -0.2528
 5765SOL    HW218737   4.435   5.622   6.123 -1.5293 -0.2128 -0.7573
 5766SOL     OW18738   0.328   0.255   4.987  0.3135 -0.0843  0.1718
 5766SOL    HW118739   0.273   0.251   4.909  1.4318 -1.0211 -0.5934
 5766SOL    HW218740   0.392   0.324   4.969  0.9938 -0.7585 -0.0440
 5767SOL     OW18741   0.726   5.943   2.234 -0.2031  0.1202 -0.3386
 5767SOL    HW118742   0.778   6.024   2.231 -0.9667  0.8270  2.3933
 5767SOL    HW218743   0.655   5.962   2.295 -0.4636 -2.5835  0.3430
 5768SOL     OW18744   6.094   3.597   1.944  0.0217 -0.1712  0.7217
 5768SOL    HW118745   6.088   3.502   1.949 -0.5679 -0.1021  1.4901
 5768SOL    HW218746   6.051   3.628   2.024  0.8225  0.7213  0.8289
 5769SOL     OW18747   1.200   2.119   3.739 -0.2587 -0.1999 -0.3262
 5769SOL    HW118748   1.196   2.026   3.763 -0.6429 -0.2032 -0.3981
 5769SOL    HW218749   1.240   2.120   3.652 -0.9983 -0.3597 -0.6728
 5770SOL     OW18750   3.761   0.062   6.534 -0.0985  0.1579  0.0554
 5770SOL    HW118751   3.789   0.130   6.595  1.0929 -0.2050 -0.0744
 5770SOL    HW218752   3.764  -0.019   6.585  0.3713 -0.0711 -0.3341
 5771SOL     OW18753   0.049   4.876   7.703 -0.1964 -0.2299  0.1823
 5771SOL    HW118754   0.088   4.793   7.677  0.5440 -0.5442  2.1318
 5771SOL    HW218755  -0.016   4.853   7.769 -0.7444  0.6517 -0.0366
 5772SOL     OW18756   4.795   0.054   3.160  0.6522 -0.0801 -0.0698
 5772SOL    HW118757   4.843   0.016   3.086  3.3421  1.1784  0.9045
 5772SOL    HW218758   4.718   0.094   3.120  1.2248 -0.7631 -1.9711
 5773SOL     OW18759   1.378   0.774   2.696  0.4315  0.5334 -0.9160
 5773SOL    HW118760   1.335   0.689   2.705 -0.8210  1.2097 -0.2506
 5773SOL    HW218761   1.354   0.805   2.609  0.2859  0.5248 -0.8784
 5774SOL     OW18762   2.768   5.775  11.104 -0.9785  0.1345 -0.1491
 5774SOL    HW118763   2.684   5.776  11.057 -1.7256 -1.2588  1.0772
 5774SOL    HW218764   2.747   5.738  11.190  1.2226 -2.1504 -0.4775
 5775SOL     OW18765   1.155   1.074   7.767 -0.1516  0.0248 -0.1068
 5775SOL    HW118766   1.063   1.074   7.794  0.0811 -1.5329  0.8038
 5775SOL    HW218767   1.165   0.991   7.720  0.3622  1.0168 -1.8496
 5776SOL     OW18768   2.492   7.966   5.980 -0.7062 -0.0623  0.2051
 5776SOL    HW118769   2.398   7.945   5.982 -0.3733 -1.7464 -0.2726
 5776SOL    HW218770   2.503   8.013   5.897 -1.2918  1.1003  0.7669
 5777SOL     OW18771   6.648   1.656   7.921 -0.4023 -0.0044 -0.4987
 5777SOL    HW118772   6.684   1.606   7.848  2.0223  2.2570 -0.9963
 5777SOL    HW218773   6.657   1.598   7.996  0.2873 -1.1105 -1.4006
 5778SOL     OW18774   1.126   4.255  11.782  0.0881 -0.0343  0.2105
 5778SOL    HW118775   1.218   4.232  11.769  0.3360  0.8047  0.3865
 5778SOL    HW218776   1.093   4.188  11.843  0.7825  0.0814  0.7287
 5779SOL     OW18777   3.073   5.783   8.834 -0.3220 -0.6312 -0.2715
 5779SOL    HW118778   3.023   5.852   8.876 -1.5826 -1.1299 -0.9082
 5779SOL    HW218779   3.015   5.707   8.835  0.3432 -1.1752 -1.1862
 5780SOL     OW18780   2.829   2.650   8.034 -0.0848  0.2690  0.3542
 5780SOL    HW118781   2.924   2.642   8.028 -0.1856 -1.7553  0.6981
 5780SOL    HW218782   2.807   2.724   7.976  1.7160  1.1219  0.6934
 5781SOL     OW18783   0.010   4.417   1.352 -0.3967 -0.6669  0.5365
 5781SOL    HW118784  -0.029   4.431   1.266 -0.5869 -0.7796  0.6024
 5781SOL    HW218785  -0.063   4.427   1.413 -0.0112  0.7500  0.7989
 5782SOL     OW18786   7.371   3.283   5.784 -0.1464  0.1644  0.1835
 5782SOL    HW118787   7.431   3.211   5.767 -3.3093 -2.2922 -1.6858
 5782SOL    HW218788   7.328   3.260   5.866 -1.0342  0.0200 -0.3157
 5783SOL     OW18789   7.672   5.882   1.845  0.0918 -0.0626  0.4740
 5783SOL    HW118790   7.645   5.973   1.836 -2.2055 -0.7352 -0.3672
 5783SOL    HW218791   7.697   5.873   1.937 -0.2903  1.2656  0.7240
 5784SOL     OW18792   2.866   2.904  10.685 -0.4261 -0.1227 -0.1332
 5784SOL    HW118793   2.862   2.825  10.738  2.7100 -1.0921 -1.1392
 5784SOL    HW218794   2.915   2.967  10.739 -0.8979  0.3660 -0.2572
 5785SOL     OW18795   7.187   6.815   3.711  0.8085 -0.0770 -0.2665
 5785SOL    HW118796   7.124   6.800   3.781  0.1907 -2.1307 -1.1537
 5785SOL    HW218797   7.133   6.817   3.631  1.6205  0.7965 -0.8039
 5786SOL     OW18798   7.381   3.342   1.873  0.3536 -0.0911  0.1342
 5786SOL    HW118799   7.430   3.395   1.936  2.3489 -1.1427 -0.4757
 5786SOL    HW218800   7.433   3.345   1.792 -1.0443 -0.5357 -0.8357
 5787SOL     OW18801   6.979   7.243   4.747  0.4581  0.0666  0.3073
 5787SOL    HW118802   6.961   7.322   4.798 -0.3198  0.1182 -0.0339
 5787SOL    HW218803   6.993   7.175   4.813  0.1550  0.2785  0.5970
 5788SOL     OW18804   2.087   1.105   9.443 -0.2568 -0.1411  0.2133
 5788SOL    HW118805   2.146   1.032   9.462 -0.3113 -0.4210 -0.6472
 5788SOL    HW218806   2.000   1.070   9.459 -0.4138 -0.8707 -1.9236
 5789SOL     OW18807   0.040   4.506   6.060 -0.5347  0.0862  0.0887
 5789SOL    HW118808   0.123   4.514   6.107 -0.0735 -2.1752 -0.2335
 5789SOL    HW218809   0.058   4.445   5.989 -2.3013  0.0835 -0.4165
 5790SOL     OW18810   0.482   5.221   8.588  0.6049  0.3059 -0.4128
 5790SOL    HW118811   0.543   5.157   8.550  1.1767  0.6982 -0.1590
 5790SOL    HW218812   0.500   5.302   8.541  0.6203  0.5471  0.0049
 5791SOL     OW18813   4.096   3.566   0.338 -0.4104 -0.4163  0.7191
 5791SOL    HW118814   4.049   3.576   0.255  1.9873  1.7174 -0.5061
 5791SOL    HW218815   4.114   3.472   0.344 -1.4536 -0.7429 -0.6476
 5792SOL     OW18816   2.304   6.787   5.185  0.1250 -0.2900 -0.0817
 5792SOL    HW118817   2.357   6.710   5.165 -1.4333 -1.2197 -0.8103
 5792SOL    HW218818   2.331   6.852   5.121 -0.3192 -1.1070 -1.1287
 5793SOL     OW18819   1.609   4.672   4.197  0.1131  0.2763  0.1401
 5793SOL    HW118820   1.556   4.600   4.163 -0.1532 -0.0327  1.1672
 5793SOL    HW218821   1.698   4.639   4.196  0.2655  0.6674 -1.2543
 5794SOL     OW18822   4.650   6.570   2.326 -0.3035 -0.0540  0.1538
 5794SOL    HW118823   4.647   6.520   2.408 -2.3796  0.7609  0.6326
 5794SOL    HW218824   4.634   6.505   2.258  1.1167 -0.6867  0.3940
 5795SOL     OW18825   5.446   4.573   1.238 -0.0441  0.2162 -0.1674
 5795SOL    HW118826   5.426   4.606   1.325 -1.3336 -2.0514  0.4824
 5795SOL    HW218827   5.497   4.494   1.254  0.4499  0.2459 -1.5079
 5796SOL     OW18828   1.862   2.709   8.474 -0.6779 -0.5350 -0.1718
 5796SOL    HW118829   1.850   2.635   8.414 -1.9130  0.7620 -1.6108
 5796SOL    HW218830   1.942   2.752   8.444 -1.0145 -0.1831 -0.5714
 5797SOL     OW18831   5.552   6.364   5.578 -0.1546  0.3698  0.2190
 5797SOL    HW118832   5.539   6.293   5.516  2.0633 -1.8106  2.0552
 5797SOL    HW218833   5.600   6.431   5.529 -0.2957 -0.3669 -0.9605
 5798SOL     OW18834   3.195   1.264   4.592  0.5057  0.1621  0.1703
 5798SOL    HW118835   3.124   1.311   4.548  0.9588 -0.2125 -1.0135
 5798SOL    HW218836   3.166   1.173   4.593  1.9356 -0.4445 -2.5608
 5799SOL     OW18837   6.972   6.809   8.469  0.1217  0.3173 -0.9494
 5799SOL    HW118838   6.975   6.714   8.483  0.3213  0.5123  0.5831
 5799SOL    HW218839   6.890   6.824   8.424 -1.3286 -0.3619  1.2735
 5800SOL     OW18840   4.331   0.132  10.442 -0.3551 -0.3363 -0.1104
 5800SOL    HW118841   4.288   0.046  10.433  1.7823 -1.4740 -0.1223
 5800SOL    HW218842   4.351   0.139  10.535 -2.2626  1.1110  0.2529
 5801SOL     OW18843   1.217   1.645   8.169 -0.2837 -0.2403  0.2592
 5801SOL    HW118844   1.235   1.635   8.075 -0.1501 -1.8858  0.4297
 5801SOL    HW218845   1.258   1.568   8.209 -0.9824  0.0538  1.5843
 5802SOL     OW18846   4.760   0.747   0.484  0.3121  0.3736 -0.6301
 5802SOL    HW118847   4.745   0.837   0.511  1.3501  0.6416 -0.8880
 5802SOL    HW218848   4.852   0.731   0.506  0.0838 -0.6859 -0.4115
 5803SOL     OW18849   4.902   7.215  12.085 -0.3933 -0.4318  0.0577
 5803SOL    HW118850   4.957   7.220  12.163 -0.7019  2.3547  0.1824
 5803SOL    HW218851   4.816   7.189  12.118 -0.8054  1.7807  0.8858
 5804SOL     OW18852   3.596   6.326   1.331 -0.4949  0.3962 -0.2092
 5804SOL    HW118853   3.509   6.289   1.346 -0.0119 -0.3651  0.8521
 5804SOL    HW218854   3.596   6.350   1.239 -1.0228 -1.8204 -0.8532
 5805SOL     OW18855   2.939   0.536   1.028  0.5613  0.4124 -0.1147
 5805SOL    HW118856   2.947   0.541   1.123  1.6398  1.0197 -0.2233
 5805SOL    HW218857   2.985   0.455   1.004  4.1997  2.3421 -0.4474
 5806SOL     OW18858   0.569   4.695   1.802 -0.4634 -0.1054 -0.2009
 5806SOL    HW118859   0.495   4.654   1.757  0.6409 -0.9590 -1.2993
 5806SOL    HW218860   0.556   4.789   1.792 -1.4254 -0.2496 -0.3277
 5807SOL     OW18861   5.701   2.113   4.344  0.1257 -0.3955 -0.1463
 5807SOL    HW118862   5.631   2.157   4.296  1.2089  0.3933 -1.0500
 5807SOL    HW218863   5.706   2.160   4.427 -1.4565 -1.4799  0.6091
 5808SOL     OW18864   6.112   6.731   3.271  0.0130 -0.0915  0.5816
 5808SOL    HW118865   6.096   6.778   3.353  0.0141 -0.0539  0.5603
 5808SOL    HW218866   6.045   6.763   3.211 -0.0956 -0.2455  0.6190
 5809SOL     OW18867   1.063   1.722   9.101  0.4946 -0.3159 -0.2366
 5809SOL    HW118868   1.096   1.764   9.180  1.9977 -1.1937 -0.3676
 5809SOL    HW218869   1.126   1.653   9.082 -1.0005 -1.5438 -0.9852
 5810SOL     OW18870   5.133   5.899   1.475  0.3307  0.3260  0.4619
 5810SOL    HW118871   5.044   5.876   1.450  0.2187 -0.1209  1.2476
 5810SOL    HW218872   5.125   5.986   1.515  0.2473  0.2892  0.5251
 5811SOL     OW18873   5.395   0.469   0.127 -0.1287 -0.4630 -0.1293
 5811SOL    HW118874   5.354   0.382   0.124 -1.0906 -0.0694  1.0682
 5811SOL    HW218875   5.456   0.464   0.201 -1.6326  0.4654  1.2200
 5812SOL     OW18876   2.052   5.222   4.588 -0.2371  0.3281 -0.0295
 5812SOL    HW118877   2.016   5.310   4.581 -0.2064  0.2506 -1.5929
 5812SOL    HW218878   1.991   5.175   4.646 -1.4838  0.7833 -0.9245
 5813SOL     OW18879   7.042   0.480   0.070 -0.1028  0.6575 -0.2389
 5813SOL    HW118880   7.084   0.561   0.096  1.1117  0.2577 -0.8459
 5813SOL    HW218881   7.044   0.482  -0.026 -1.0656  0.4050 -0.2778
 5814SOL     OW18882   3.715   2.221   4.730 -0.3698 -0.1415  0.7671
 5814SOL    HW118883   3.783   2.240   4.794  0.8473  0.1967 -0.5778
 5814SOL    HW218884   3.690   2.307   4.695 -0.3912 -0.3833  0.1719
 5815SOL     OW18885   2.829   5.658   9.285 -0.2926  0.3209  0.1135
 5815SOL    HW118886   2.755   5.602   9.310 -0.2379  0.2348  0.0852
 5815SOL    HW218887   2.790   5.727   9.232 -0.5138  0.9199  1.0371
 5816SOL     OW18888   0.623   7.569  10.834 -0.1905 -0.2203 -0.0883
 5816SOL    HW118889   0.554   7.633  10.815  0.7661  1.6583  2.2844
 5816SOL    HW218890   0.691   7.588  10.769 -0.9707 -0.6301 -1.0533
 5817SOL     OW18891   4.561   4.073   2.956  0.2726 -0.9041  0.5105
 5817SOL    HW118892   4.627   4.111   3.015  1.3487  1.7007 -2.1437
 5817SOL    HW218893   4.478   4.111   2.985  0.5802 -0.6883  1.1270
 5818SOL     OW18894   5.284   0.196   6.778 -0.6130 -0.7693 -0.0018
 5818SOL    HW118895   5.208   0.141   6.796 -1.1139 -0.2718 -0.5240
 5818SOL    HW218896   5.356   0.135   6.765 -0.9052 -1.2416  0.5958
 5819SOL     OW18897   3.555   3.023  10.446  0.1079  0.1686 -0.3023
 5819SOL    HW118898   3.492   3.094  10.454 -0.1059  0.2145 -1.9451
 5819SOL    HW218899   3.512   2.959  10.389  0.4493 -1.1137  0.8264
 5820SOL     OW18900   3.243   6.949   6.970  0.3356 -0.0921 -0.0844
 5820SOL    HW118901   3.163   6.896   6.967 -1.7454  2.7987  0.2588
 5820SOL    HW218902   3.270   6.956   6.879 -0.1971 -0.5764 -0.2854
 5821SOL     OW18903   7.948   0.728   8.009  0.4017 -0.5589 -0.2350
 5821SOL    HW118904   7.875   0.732   8.071  0.9948  0.8829  0.3945
 5821SOL    HW218905   8.027   0.736   8.063  0.9089  3.0018 -1.2349
 5822SOL     OW18906   3.219   2.473   6.392 -0.1012  0.4435  0.3679
 5822SOL    HW118907   3.191   2.531   6.321 -0.6766  0.6482  0.7561
 5822SOL    HW218908   3.165   2.499   6.467  0.2484 -0.0116  0.7826
 5823SOL     OW18909   3.447   1.011   1.519  0.5793 -0.5943 -0.0528
 5823SOL    HW118910   3.503   1.030   1.595  0.6056 -1.0141  0.0338
 5823SOL    HW218911   3.368   0.973   1.557  1.8923 -3.9460 -0.3909
 5824SOL     OW18912   0.075   1.686   2.369 -0.3562  0.0476  0.0861
 5824SOL    HW118913   0.146   1.698   2.306  0.5429  0.7130  1.1865
 5824SOL    HW218914   0.119   1.661   2.451 -1.3880  0.4709  0.7936
 5825SOL     OW18915   3.034   5.777   1.330  0.6405  0.1416  0.0038
 5825SOL    HW118916   2.969   5.788   1.400  1.2426 -1.7395  0.9325
 5825SOL    HW218917   2.987   5.801   1.250 -0.9589 -0.3695  0.7375
 5826SOL     OW18918   0.041   3.918   9.535  0.4811  0.4412 -0.0021
 5826SOL    HW118919  -0.020   3.941   9.465  0.4856  0.2816 -0.0578
 5826SOL    HW218920   0.069   4.003   9.571 -0.6279  0.4992  0.7694
 5827SOL     OW18921   0.689   3.508   5.504  0.4485  0.1832  0.5228
 5827SOL    HW118922   0.666   3.433   5.558  0.1126 -0.8115 -0.9479
 5827SOL    HW218923   0.630   3.578   5.532  0.1648 -0.3626  1.3034
 5828SOL     OW18924   2.606   4.820  11.962 -0.8941  0.1193  0.8150
 5828SOL    HW118925   2.693   4.811  11.923 -0.6622 -1.3677  1.5833
 5828SOL    HW218926   2.547   4.831  11.887 -0.3794 -1.8920  0.0317
 5829SOL     OW18927   7.483   1.132   1.361  0.3341  0.0411  0.1226
 5829SOL    HW118928   7.538   1.209   1.367  0.4410  0.0327 -0.6543
 5829SOL    HW218929   7.394   1.165   1.375  0.4734  0.1326  0.8505
 5830SOL     OW18930   5.856   4.359   3.386 -0.4396  0.2839  0.4812
 5830SOL    HW118931   5.948   4.383   3.372 -0.7389  0.2769 -2.0906
 5830SOL    HW218932   5.859   4.284   3.445  1.0977  1.0390  1.4361
 5831SOL     OW18933   7.304   4.248   0.872  0.0601 -0.2019 -0.1575
 5831SOL    HW118934   7.352   4.284   0.947  2.3652 -0.3627 -1.4813
 5831SOL    HW218935   7.215   4.237   0.905  0.3452  2.2288  1.7476
 5832SOL     OW18936   1.355   2.536   6.123 -0.7515 -0.4093 -0.3751
 5832SOL    HW118937   1.394   2.594   6.189  0.3143  0.9241 -2.1026
 5832SOL    HW218938   1.261   2.553   6.130 -0.5464  0.7363 -0.1227
 5833SOL     OW18939   0.081   4.809   1.915 -0.5639  0.5104  0.3081
 5833SOL    HW118940   0.027   4.797   1.993 -0.6406  2.3187  0.5639
 5833SOL    HW218941   0.121   4.895   1.927 -0.3656  0.6985 -1.5313
 5834SOL     OW18942   2.992   2.958  10.429 -0.2381  0.0228  0.2658
 5834SOL    HW118943   3.016   2.995  10.514  2.6297  1.8155 -1.1829
 5834SOL    HW218944   2.928   3.019  10.393 -0.9243 -0.3583  0.8241
 5835SOL     OW18945   0.714   4.871   2.717  0.0768  0.1858 -0.0394
 5835SOL    HW118946   0.766   4.818   2.656 -0.1332  2.5677 -2.5089
 5835SOL    HW218947   0.713   4.820   2.798  3.2332 -1.6264 -0.9521
 5836SOL     OW18948   5.750   6.778   0.981 -0.4202 -0.3984 -0.4578
 5836SOL    HW118949   5.737   6.724   1.058 -0.0030 -0.4173 -0.3963
 5836SOL    HW218950   5.774   6.717   0.912 -1.5637 -0.4731 -0.8124
 5837SOL     OW18951   2.650   2.658   0.708 -0.0697  0.2606 -0.0289
 5837SOL    HW118952   2.687   2.594   0.768  0.9553  1.0217  0.1777
 5837SOL    HW218953   2.694   2.740   0.730  0.0694  0.6346 -1.5586
 5838SOL     OW18954   0.487   3.110  11.483  0.2966  0.4829 -0.3588
 5838SOL    HW118955   0.474   3.070  11.569 -0.2885  0.0166 -0.6559
 5838SOL    HW218956   0.545   3.185  11.500  1.4556 -0.4959  0.2076
 5839SOL     OW18957   4.044   4.299   5.915 -0.5140  0.2068 -0.0601
 5839SOL    HW118958   4.063   4.374   5.858  0.4547 -0.1827 -0.2714
 5839SOL    HW218959   4.022   4.228   5.856 -1.1924  0.2440  0.1340
 5840SOL     OW18960   6.156   2.561   2.934  0.7683  0.5360  0.3168
 5840SOL    HW118961   6.100   2.574   3.010  0.3657 -1.4296  0.4116
 5840SOL    HW218962   6.218   2.634   2.937  2.2207 -0.5862  3.8691
 5841SOL     OW18963   5.737   1.321  10.251 -0.1513  0.0957  0.1278
 5841SOL    HW118964   5.811   1.374  10.223  0.1730 -0.8685 -0.9075
 5841SOL    HW218965   5.721   1.348  10.342  1.5829  0.1916  0.4312
 5842SOL     OW18966   7.487   4.235   8.079 -0.4508 -0.4086  0.1958
 5842SOL    HW118967   7.537   4.213   8.157 -0.1526 -1.4573 -0.2690
 5842SOL    HW218968   7.440   4.155   8.057 -2.4426  0.5805  0.6706
 5843SOL     OW18969   7.466   3.024   5.686  0.2256  0.5585  0.1291
 5843SOL    HW118970   7.473   2.937   5.647  3.0286  0.1097  1.4093
 5843SOL    HW218971   7.508   3.082   5.623  2.8103  0.1563  1.3694
 5844SOL     OW18972   7.177   4.975   0.052  0.0434 -0.2409  0.2973
 5844SOL    HW118973   7.175   5.029  -0.027 -0.2368  0.6675  0.9209
 5844SOL    HW218974   7.100   4.918   0.044 -1.3872  1.5055  1.0541
 5845SOL     OW18975   5.519   3.369   2.443  0.0633  0.3208 -0.1101
 5845SOL    HW118976   5.588   3.412   2.495  0.2455  0.2092 -0.2583
 5845SOL    HW218977   5.487   3.437   2.385 -1.3504  0.9368  1.3339
 5846SOL     OW18978   2.775   6.115   2.247 -0.0266  0.0490  0.3351
 5846SOL    HW118979   2.738   6.187   2.296  0.3048  0.2681  0.2688
 5846SOL    HW218980   2.758   6.137   2.155 -3.0036 -1.6168  0.3588
 5847SOL     OW18981   6.650   7.482   5.382  0.1249 -0.2638  0.0624
 5847SOL    HW118982   6.738   7.450   5.363 -0.5976 -0.7498 -2.9665
 5847SOL    HW218983   6.644   7.565   5.335 -1.3284 -0.7387 -0.6558
 5848SOL     OW18984   1.855   1.482  10.001  0.1701 -0.1629 -0.5297
 5848SOL    HW118985   1.883   1.473   9.909  1.5711 -0.1698 -0.1276
 5848SOL    HW218986   1.937   1.491  10.050 -0.5604 -0.1673  0.7311
 5849SOL     OW18987   1.548   5.798  11.936  0.0247 -0.1213 -0.0119
 5849SOL    HW118988   1.509   5.710  11.937  0.0998 -0.1564 -0.2154
 5849SOL    HW218989   1.639   5.784  11.964  0.1788 -0.1764 -0.5355
 5850SOL     OW18990   6.518   4.525  12.378 -0.1568  0.2430  0.2270
 5850SOL    HW118991   6.554   4.524  12.466  0.5047 -1.2706 -0.0220
 5850SOL    HW218992   6.437   4.474  12.384  0.2967 -0.5598 -0.1597
 5851SOL     OW18993   4.605   2.021   6.140 -0.3189  0.2958  0.0037
 5851SOL    HW118994   4.591   1.945   6.197  0.0031  0.3702  0.1835
 5851SOL    HW218995   4.697   2.045   6.154  0.0104 -0.2052 -1.1806
 5852SOL     OW18996   2.566   4.778  12.471 -0.0177 -0.2746  0.0580
 5852SOL    HW118997   2.552   4.766  12.565 -0.2362 -1.3251 -0.1011
 5852SOL    HW218998   2.529   4.865  12.453  0.6425  0.2369  1.0542
 5853SOL     OW18999   7.662   7.170  11.744  0.2089  0.3948 -0.2156
 5853SOL    HW119000   7.580   7.197  11.703 -1.9514 -0.0694  3.3275
 5853SOL    HW219001   7.710   7.252  11.758 -0.5165  0.9033 -0.6615
 5854SOL     OW19002   2.658   5.013  12.167  0.1644  0.1150  0.2051
 5854SOL    HW119003   2.598   5.073  12.123 -1.5991 -0.7466  1.3161
 5854SOL    HW219004   2.635   4.927  12.133 -0.6973 -0.4727  2.1512
 5855SOL     OW19005   2.284   3.995   5.925  0.4529  0.5912  0.1451
 5855SOL    HW119006   2.375   4.010   5.951  0.6933 -0.7986  0.1835
 5855SOL    HW219007   2.250   4.082   5.904  1.4085  1.2871  1.3613
 5856SOL     OW19008   2.019   3.869   2.390  0.3340  0.2342  0.1288
 5856SOL    HW119009   2.075   3.801   2.352 -1.2010 -1.3311  0.5414
 5856SOL    HW219010   2.013   3.936   2.321  2.3592  0.2925 -0.0556
 5857SOL     OW19011   3.927   6.412   0.516 -0.3424  0.0727 -0.5739
 5857SOL    HW119012   3.923   6.460   0.434  0.2637  0.4578 -0.3859
 5857SOL    HW219013   4.013   6.369   0.515 -0.7069 -0.6749 -0.5521
 5858SOL     OW19014   0.080   7.221   2.049 -0.5779  0.5057 -0.1436
 5858SOL    HW119015   0.077   7.261   2.136  1.4783  0.0165  0.2152
 5858SOL    HW219016   0.085   7.127   2.066 -3.9705  0.0489 -0.9405
 5859SOL     OW19017   5.946   7.956   4.688  0.0326  0.2394 -0.3206
 5859SOL    HW119018   5.865   7.919   4.653  0.4932 -0.4788 -0.6526
 5859SOL    HW219019   5.918   8.010   4.762 -0.6138 -1.2857  0.5774
 5860SOL     OW19020   6.015   0.561   8.119  0.2376 -0.1268  0.1144
 5860SOL    HW119021   6.086   0.565   8.183 -0.1489  0.3686  0.5176
 5860SOL    HW219022   5.936   0.550   8.171  0.1854 -3.1174 -0.4053
 5861SOL     OW19023   3.413   3.025   7.856  0.2911 -0.0154  0.2359
 5861SOL    HW119024   3.377   3.065   7.776 -1.2138  0.0364  0.9086
 5861SOL    HW219025   3.411   3.096   7.920  0.0880 -0.4503  0.7133
 5862SOL     OW19026   0.775   2.488   2.626 -0.1772  0.5978  0.0538
 5862SOL    HW119027   0.754   2.410   2.677  0.9602  0.6180  0.5798
 5862SOL    HW219028   0.690   2.530   2.609 -0.6462  0.1189  1.1693
 5863SOL     OW19029   6.428   7.560   3.293  0.0685 -0.0607 -0.3628
 5863SOL    HW119030   6.516   7.547   3.327 -0.3854 -0.8671  0.5538
 5863SOL    HW219031   6.409   7.481   3.243 -0.7380 -0.6439  0.8263
 5864SOL     OW19032   1.149   5.038   1.305  0.9202 -0.4361 -0.1661
 5864SOL    HW119033   1.130   5.080   1.389  0.7205  0.4568 -0.6322
 5864SOL    HW219034   1.242   5.053   1.291  0.7039  0.5576 -0.6784
 5865SOL     OW19035   0.937   0.121   5.741 -0.1292  0.1870  0.1668
 5865SOL    HW119036   0.962   0.207   5.775  0.8431 -0.8967  2.3826
 5865SOL    HW219037   0.974   0.118   5.653  2.9084  0.7498  1.3321
 5866SOL     OW19038   4.722   7.975   4.313 -0.3226 -0.1846  0.2054
 5866SOL    HW119039   4.648   8.036   4.312 -0.1280  0.0650 -0.8541
 5866SOL    HW219040   4.691   7.900   4.261 -0.3532 -0.7421  1.0110
 5867SOL     OW19041   7.046   4.179   2.419 -0.4688  0.2943 -0.0113
 5867SOL    HW119042   7.125   4.181   2.367 -0.8358 -0.1954 -0.5958
 5867SOL    HW219043   7.077   4.181   2.510  0.2422 -0.6126 -0.2154
 5868SOL     OW19044   1.410   1.700   8.499 -0.0367 -0.4052 -0.3606
 5868SOL    HW119045   1.421   1.623   8.443 -1.7072 -0.7373 -0.2674
 5868SOL    HW219046   1.457   1.678   8.579  1.0257 -0.5752 -1.0062
 5869SOL     OW19047   5.422   3.165   2.178  0.5929 -0.4394  0.1742
 5869SOL    HW119048   5.506   3.210   2.179  0.9290 -1.0692  1.2166
 5869SOL    HW219049   5.433   3.091   2.238 -0.3578 -1.1607 -0.5037
 5870SOL     OW19050   0.971   4.222   4.006 -0.2831 -0.0740 -0.0320
 5870SOL    HW119051   0.986   4.316   4.018 -0.3216 -0.1351  0.5189
 5870SOL    HW219052   0.877   4.214   3.990  0.1891  0.4229 -4.5459
 5871SOL     OW19053   6.682   1.922  11.788  0.4649 -0.4056  0.1614
 5871SOL    HW119054   6.773   1.948  11.800  0.5467 -0.1619 -0.8169
 5871SOL    HW219055   6.679   1.887  11.699 -0.7508  1.3505 -0.5603
 5872SOL     OW19056   3.731   0.923   6.905  0.3683 -0.5524  0.1616
 5872SOL    HW119057   3.719   0.842   6.955 -2.5119  0.5131  1.3786
 5872SOL    HW219058   3.705   0.900   6.816  0.0163 -1.0821  0.3953
 5873SOL     OW19059   1.143   3.933   7.546 -0.0539  0.1699 -0.9673
 5873SOL    HW119060   1.206   3.873   7.508 -0.7382 -0.6991 -0.7543
 5873SOL    HW219061   1.183   3.963   7.628  0.3294  0.0933 -1.1260
 5874SOL     OW19062   2.225   5.175   8.898  0.1393 -0.1281 -0.8780
 5874SOL    HW119063   2.233   5.223   8.816  2.1287  1.7463  0.2901
 5874SOL    HW219064   2.247   5.240   8.965 -1.7761 -1.4770  1.1980
 5875SOL     OW19065   2.142   3.743  11.408 -0.4712  0.2560  0.5187
 5875SOL    HW119066   2.172   3.652  11.410 -1.2895 -0.1297 -1.6289
 5875SOL    HW219067   2.213   3.791  11.365 -1.2400  0.0355 -1.0837
 5876SOL     OW19068   2.855   7.320   3.862 -0.2273  0.1045  0.2672
 5876SOL    HW119069   2.769   7.321   3.903 -0.9465 -1.0578 -1.1400
 5876SOL    HW219070   2.861   7.234   3.819  2.0964 -0.3161  1.2708
 5877SOL     OW19071   6.660   3.831   3.906  0.1664  0.0836 -0.1204
 5877SOL    HW119072   6.727   3.849   3.973  0.4812  0.5108 -0.5494
 5877SOL    HW219073   6.611   3.912   3.898 -1.8682 -0.8210  1.7668
 5878SOL     OW19074   7.413   2.649   8.404 -0.0191 -0.0241 -0.1952
 5878SOL    HW119075   7.490   2.592   8.398 -0.0075 -0.1020  0.5632
 5878SOL    HW219076   7.449   2.738   8.410 -0.0222  0.0250 -0.8584
 5879SOL     OW19077   7.950   6.662   5.776 -0.3470 -0.5813  0.0308
 5879SOL    HW119078   7.906   6.616   5.705 -0.9414  0.5275 -0.3380
 5879SOL    HW219079   7.902   6.638   5.855 -0.8010 -0.4073 -0.1927
 5880SOL     OW19080   5.875   3.539   0.266 -0.9318  0.3749  0.6356
 5880SOL    HW119081   5.890   3.578   0.180 -0.2557  0.5601  0.8341
 5880SOL    HW219082   5.943   3.473   0.275 -1.5194 -0.2347  0.6839
 5881SOL     OW19083   3.730   5.883   7.678 -0.4900  0.3216  0.1420
 5881SOL    HW119084   3.745   5.916   7.767  2.9777 -0.2584 -0.0934
 5881SOL    HW219085   3.646   5.921   7.652 -1.3267  0.9953  3.4077
 5882SOL     OW19086   6.648   7.234   0.768 -0.3805 -0.0497  0.0664
 5882SOL    HW119087   6.706   7.243   0.692 -1.8997 -0.3658 -1.1910
 5882SOL    HW219088   6.701   7.190   0.834  0.8921 -0.0440 -0.9114
 5883SOL     OW19089   6.835   6.327  11.864  0.2025 -0.1066  0.2067
 5883SOL    HW119090   6.832   6.277  11.782 -2.5330 -1.1448  0.8463
 5883SOL    HW219091   6.792   6.410  11.843 -1.1465 -0.6489  0.6937
 5884SOL     OW19092   4.404   0.210   9.743 -0.1225 -0.5732 -0.8091
 5884SOL    HW119093   4.483   0.155   9.736 -0.8139 -1.8594  0.8044
 5884SOL    HW219094   4.435   0.299   9.726  1.2084 -1.3237 -2.6041
 5885SOL     OW19095   6.707   3.793   4.895  0.2806 -0.2055  0.1364
 5885SOL    HW119096   6.755   3.720   4.858  2.2834 -0.3119  2.6236
 5885SOL    HW219097   6.731   3.869   4.842  2.1886 -0.5261  0.4856
 5886SOL     OW19098   2.228   7.225   4.417  0.5592 -0.3540 -0.5900
 5886SOL    HW119099   2.174   7.293   4.456 -2.5225 -3.0939  0.3758
 5886SOL    HW219100   2.299   7.212   4.480  0.6703  1.2511 -0.3410
 5887SOL     OW19101   3.226   2.185   1.685  0.0585  0.0200  0.5937
 5887SOL    HW119102   3.242   2.279   1.694 -1.0389  0.5039 -1.6801
 5887SOL    HW219103   3.313   2.146   1.681  0.5351  0.9829  1.1936
 5888SOL     OW19104   1.869   6.742   3.103 -0.1368 -0.3799 -0.1415
 5888SOL    HW119105   1.871   6.772   3.194  0.5156  0.6319 -0.4748
 5888SOL    HW219106   1.818   6.661   3.106 -1.2546  0.3221  0.9285
 5889SOL     OW19107   7.831   3.210  12.046 -0.1573  0.1565 -0.5358
 5889SOL    HW119108   7.884   3.256  11.982 -0.6514  1.3323 -0.1286
 5889SOL    HW219109   7.817   3.123  12.009 -1.4993  1.1906 -2.6534
 5890SOL     OW19110   5.181   7.352   3.257  0.5625  0.2977 -0.5223
 5890SOL    HW119111   5.170   7.359   3.352 -0.9130  1.3934 -0.7292
 5890SOL    HW219112   5.131   7.274   3.233  0.2902  0.4614 -0.4878
 5891SOL     OW19113   0.805   7.404   3.119 -0.2807  0.1140  0.6278
 5891SOL    HW119114   0.796   7.386   3.213  1.2369 -1.0544  0.5891
 5891SOL    HW219115   0.855   7.330   3.085  2.4917  2.2853 -0.3991
 5892SOL     OW19116   4.238   7.643   7.126 -0.3945 -0.5904 -0.1252
 5892SOL    HW119117   4.259   7.718   7.182  2.1245 -0.1951 -1.4272
 5892SOL    HW219118   4.228   7.570   7.187 -0.2649  0.2940  0.9993
 5893SOL     OW19119   5.795   2.946   9.419 -0.2322  0.5014  0.6072
 5893SOL    HW119120   5.799   2.986   9.332  1.1173  0.8835  0.8236
 5893SOL    HW219121   5.874   2.977   9.463  0.5840 -1.9211  1.0009
 5894SOL     OW19122   6.718   5.573   6.083 -0.0127 -0.0141 -0.1905
 5894SOL    HW119123   6.771   5.565   6.163 -0.8019 -0.0330  0.3493
 5894SOL    HW219124   6.766   5.635   6.029  1.0160 -0.7089 -0.1094
 5895SOL     OW19125   4.531   0.428   9.626  0.1332 -0.5760  0.3448
 5895SOL    HW119126   4.533   0.407   9.533 -0.4565  0.0980  0.1678
 5895SOL    HW219127   4.452   0.482   9.637 -1.0053 -2.3897  1.6292
 5896SOL     OW19128   6.013   6.936   6.575  0.0289  0.2875  0.2725
 5896SOL    HW119129   6.065   7.008   6.611  0.7394 -0.1205  0.0636
 5896SOL    HW219130   6.008   6.956   6.481  0.2188  0.0710  0.2161
 5897SOL     OW19131   1.438   3.059   3.018 -0.6423  0.4570  0.0930
 5897SOL    HW119132   1.411   2.976   2.979  0.5856 -0.1386  0.4615
 5897SOL    HW219133   1.360   3.090   3.065 -0.5770 -1.4425  1.5497
 5898SOL     OW19134   1.359   3.437   0.224  0.3857 -0.4662  0.2636
 5898SOL    HW119135   1.419   3.472   0.290 -0.9164  0.3990  1.0239
 5898SOL    HW219136   1.362   3.342   0.237 -1.2169 -0.2341  2.8374
 5899SOL     OW19137   0.600   4.036   7.492  0.2015 -0.0999  0.0071
 5899SOL    HW119138   0.550   4.100   7.441 -2.3341 -2.5939 -0.8876
 5899SOL    HW219139   0.554   4.030   7.575 -0.3191 -1.5465 -0.3596
 5900SOL     OW19140   3.837   6.267   2.708 -0.1740  0.0374 -0.0084
 5900SOL    HW119141   3.793   6.185   2.729 -0.4450  0.2361  0.2045
 5900SOL    HW219142   3.872   6.298   2.792  0.0717  0.0582 -0.1159
 5901SOL     OW19143   3.497   5.487   3.309  0.1495  0.1439 -0.4416
 5901SOL    HW119144   3.551   5.491   3.388  0.0242  2.1858 -0.4143
 5901SOL    HW219145   3.454   5.572   3.305 -1.6041 -0.7300 -1.5121
 5902SOL     OW19146   3.725   2.950  12.243 -0.4525  0.3250 -0.3402
 5902SOL    HW119147   3.744   3.028  12.191  0.8328 -0.7019 -1.4866
 5902SOL    HW219148   3.679   2.891  12.183 -1.9689  0.3967  0.6900
 5903SOL     OW19149   6.115   3.700   8.491 -0.4729  0.5964 -0.1783
 5903SOL    HW119150   6.205   3.702   8.522 -0.7056 -1.7201  0.8623
 5903SOL    HW219151   6.080   3.786   8.514  1.4713  1.5681 -0.6939
 5904SOL     OW19152   4.671   2.101   7.798  0.1396  0.1839  0.3147
 5904SOL    HW119153   4.604   2.064   7.741  0.8200 -1.1732  0.3670
 5904SOL    HW219154   4.637   2.187   7.823 -0.2140  0.7920 -2.0568
 5905SOL     OW19155   7.936   1.015   8.820 -0.0488 -0.2497  0.3362
 5905SOL    HW119156   7.961   1.059   8.902 -0.0078  1.5787 -0.6070
 5905SOL    HW219157   8.018   1.002   8.774 -0.2155  0.2245 -0.1091
 5906SOL     OW19158   0.500   3.493   1.391 -0.2227 -0.2555 -0.3770
 5906SOL    HW119159   0.408   3.467   1.393 -0.5814  0.9674 -0.0639
 5906SOL    HW219160   0.521   3.498   1.297 -0.5664 -0.2484 -0.4555
 5907SOL     OW19161   5.597   0.480  10.912 -0.4137 -0.2025  0.9097
 5907SOL    HW119162   5.544   0.403  10.935  2.7042 -2.4105  1.3583
 5907SOL    HW219163   5.642   0.454  10.831  0.7000  1.1895  1.0619
 5908SOL     OW19164   5.811   3.759   5.356  0.0455  0.2625  0.1229
 5908SOL    HW119165   5.783   3.838   5.310 -1.1068  0.6862  1.4620
 5908SOL    HW219166   5.758   3.689   5.317 -0.5560  0.5328  0.4348
 5909SOL     OW19167   3.779   0.270   0.338  0.3864 -0.1858  0.0912
 5909SOL    HW119168   3.872   0.287   0.323  0.5144 -0.5645  0.4193
 5909SOL    HW219169   3.769   0.176   0.322  0.7593 -0.8967  3.2840
 5910SOL     OW19170   1.334   2.877   1.227  0.0861 -0.2837  0.7886
 5910SOL    HW119171   1.239   2.881   1.214 -0.0858  1.5679  2.1252
 5910SOL    HW219172   1.370   2.880   1.139 -1.0845 -0.5826  0.2744
 5911SOL     OW19173   2.950   5.937   3.735 -1.0630 -0.0321 -0.6821
 5911SOL    HW119174   2.979   5.847   3.717 -0.4034  0.3023 -1.3305
 5911SOL    HW219175   2.877   5.950   3.676 -0.7043  0.0974 -1.1005
 5912SOL     OW19176   6.407   4.418   6.663 -0.2051 -0.0867  0.1307
 5912SOL    HW119177   6.500   4.428   6.644 -0.1428 -1.6857 -0.5496
 5912SOL    HW219178   6.370   4.505   6.644  1.0111  0.3511 -0.3692
 5913SOL     OW19179   4.695   2.550   5.363  0.5477 -0.0036 -0.4994
 5913SOL    HW119180   4.701   2.644   5.381 -1.9689  0.3154 -0.8599
 5913SOL    HW219181   4.740   2.538   5.280 -0.3552  1.1808 -1.1824
 5914SOL     OW19182   5.911   6.959  11.702 -0.1364 -0.0834 -0.2966
 5914SOL    HW119183   5.998   6.970  11.741  0.0560 -0.2362 -0.6792
 5914SOL    HW219184   5.929   6.935  11.611 -0.5802 -0.0563 -0.3908
 5915SOL     OW19185   2.252   7.379   6.428  0.0109  0.4550  0.5260
 5915SOL    HW119186   2.310   7.304   6.417  0.1080  0.5216  0.5863
 5915SOL    HW219187   2.174   7.343   6.470 -0.1380  0.2997  0.1221
 5916SOL     OW19188   0.835   2.713   3.017  0.6835  0.5348  0.3404
 5916SOL    HW119189   0.790   2.742   2.938  2.3992  1.5146 -0.3376
 5916SOL    HW219190   0.797   2.767   3.087 -2.6076 -2.0235  0.7389
 5917SOL     OW19191   5.406   6.639   6.759  0.6740 -0.5974 -0.7705
 5917SOL    HW119192   5.336   6.648   6.823  0.1178 -1.1863 -1.2760
 5917SOL    HW219193   5.484   6.619   6.810  0.9782  2.1482 -0.0056
 5918SOL     OW19194   7.185   3.872   6.465  0.2486 -0.0617 -0.2761
 5918SOL    HW119195   7.141   3.877   6.380  1.0501  1.6918 -0.6428
 5918SOL    HW219196   7.123   3.911   6.527 -0.2382 -1.1238 -0.0656
 5919SOL     OW19197   5.156   7.620   4.671 -0.3390  0.5270 -0.0629
 5919SOL    HW119198   5.199   7.631   4.587 -1.7790 -1.9208 -1.2545
 5919SOL    HW219199   5.225   7.631   4.736  1.2807  0.3457 -1.6877
 5920SOL     OW19200   3.506   1.284  10.071 -0.0398  0.5531  0.6520
 5920SOL    HW119201   3.417   1.251  10.083  0.0917  0.5088  1.6471
 5920SOL    HW219202   3.560   1.231  10.130  0.8277 -0.1078 -0.6907
 5921SOL     OW19203   0.775   0.857   8.310 -0.5427 -0.4547  0.5028
 5921SOL    HW119204   0.770   0.773   8.356 -3.7251 -1.1123 -0.8292
 5921SOL    HW219205   0.814   0.835   8.225  0.4062 -0.1764  0.8453
 5922SOL     OW19206   7.485   6.161  10.198  0.0002  0.2389  0.4443
 5922SOL    HW119207   7.492   6.252  10.228  0.6805 -0.3390  2.1112
 5922SOL    HW219208   7.398   6.156  10.158 -0.3629  1.4176  1.0454
 5923SOL     OW19209   6.261   7.267   5.040 -0.4061 -0.1912  0.3281
 5923SOL    HW119210   6.185   7.243   4.988 -1.2807  2.8703 -0.0001
 5923SOL    HW219211   6.225   7.291   5.126  0.1146  1.2771  0.1737
 5924SOL     OW19212   7.735   7.351   7.245 -0.4036 -0.6600 -0.0465
 5924SOL    HW119213   7.686   7.327   7.165 -1.2357 -1.5589  0.7004
 5924SOL    HW219214   7.674   7.404   7.295 -0.5529 -1.6142  0.8035
 5925SOL     OW19215   0.722   4.075  11.305 -0.4594  0.2330  0.1517
 5925SOL    HW119216   0.810   4.113  11.306 -0.4817  0.2724  1.0563
 5925SOL    HW219217   0.683   4.109  11.224  0.5661 -0.2886 -0.5921
 5926SOL     OW19218   5.319   6.818   1.571 -0.3104 -0.0735  0.4833
 5926SOL    HW119219   5.322   6.791   1.662 -2.2011 -1.4230  0.2067
 5926SOL    HW219220   5.226   6.836   1.554 -0.0424 -0.1204 -1.2217
 5927SOL     OW19221   6.582   6.944   6.264 -0.4243 -0.0917  0.3488
 5927SOL    HW119222   6.593   6.869   6.205  0.5986  0.7169 -0.5258
 5927SOL    HW219223   6.610   6.912   6.349 -1.1738 -1.0520  0.2601
 5928SOL     OW19224   3.938   0.642   3.939  0.9579  0.1451  0.1734
 5928SOL    HW119225   4.019   0.651   3.888  0.5343  0.8222 -0.3892
 5928SOL    HW219226   3.868   0.649   3.875  0.4469 -2.6345  0.3311
 5929SOL     OW19227   6.459   1.719  10.613 -0.6934 -0.0195 -0.2070
 5929SOL    HW119228   6.403   1.642  10.609  1.6349 -1.8969  1.0286
 5929SOL    HW219229   6.498   1.725  10.526 -0.6827 -0.3937 -0.2296
 5930SOL     OW19230   6.765   0.903  11.906 -0.0768  0.2685 -0.2128
 5930SOL    HW119231   6.748   0.813  11.934  2.4172  0.1348  1.1718
 5930SOL    HW219232   6.772   0.952  11.988 -0.5564  1.5881 -0.9307
 5931SOL     OW19233   2.977   5.224   8.854  0.0017 -0.4062 -0.2665
 5931SOL    HW119234   3.037   5.150   8.849  1.1673  0.5614 -0.9457
 5931SOL    HW219235   2.965   5.238   8.948  0.8768 -0.5855 -0.1190
 5932SOL     OW19236   5.982   1.613   3.343 -0.2979  0.0570 -0.1697
 5932SOL    HW119237   5.948   1.695   3.378  0.8379 -0.2710  1.8361
 5932SOL    HW219238   6.077   1.624   3.341 -0.1938 -0.7557 -1.1549
 5933SOL     OW19239   2.680   5.142   9.080 -0.2572  0.0783 -0.1299
 5933SOL    HW119240   2.689   5.156   9.175  1.7638 -0.8156 -0.1379
 5933SOL    HW219241   2.605   5.196   9.055 -0.6502  0.5767  1.9210
 5934SOL     OW19242   6.432   4.870  10.695  0.2804 -0.2032  0.4888
 5934SOL    HW119243   6.490   4.794  10.691  0.9856  0.3107  0.7650
 5934SOL    HW219244   6.381   4.866  10.614  0.6694 -0.6899  0.2659
 5935SOL     OW19245   7.471   2.744   5.690 -0.0415  0.3442 -0.5591
 5935SOL    HW119246   7.478   2.721   5.597  0.3207  0.7812 -0.6477
 5935SOL    HW219247   7.377   2.741   5.709  0.0235 -1.9701 -0.3511
 5936SOL     OW19248   5.977   5.141   9.349  0.2098 -0.0106 -0.6161
 5936SOL    HW119249   6.026   5.061   9.364 -0.2437 -0.1355  0.2488
 5936SOL    HW219250   5.984   5.156   9.254 -0.4748 -1.5779 -0.9534
 5937SOL     OW19251   3.969   5.910   0.946  0.0292 -0.0053 -0.2838
 5937SOL    HW119252   3.887   5.956   0.964 -0.2078 -0.9759  1.3325
 5937SOL    HW219253   4.006   5.956   0.871 -0.9737  1.7798  0.2417
 5938SOL     OW19254   7.330   2.353   3.489 -0.4229  0.0401 -0.0927
 5938SOL    HW119255   7.347   2.260   3.478 -2.1418 -0.2200 -0.7999
 5938SOL    HW219256   7.364   2.373   3.576  2.1822 -0.6613 -0.8579
 5939SOL     OW19257   3.732   5.977  12.012  0.3764 -0.1932  0.4580
 5939SOL    HW119258   3.801   5.999  12.073  1.2964 -1.2307 -0.1637
 5939SOL    HW219259   3.657   5.953  12.067  0.3311  1.4281  1.1289
 5940SOL     OW19260   2.674   1.293   4.920 -0.3253 -0.0373 -0.1379
 5940SOL    HW119261   2.603   1.248   4.966  0.8769 -1.6836  0.2083
 5940SOL    HW219262   2.730   1.328   4.990  0.3472 -0.6745 -0.3326
 5941SOL     OW19263   3.790   4.036   7.318 -0.5884 -0.1297 -0.3513
 5941SOL    HW119264   3.796   3.941   7.310 -1.3018 -0.4194  1.7520
 5941SOL    HW219265   3.696   4.053   7.324 -0.4514  0.6674 -0.4204
 5942SOL     OW19266   0.038   3.364   7.943  0.2338  0.0654  0.2449
 5942SOL    HW119267  -0.008   3.380   8.025  0.6129 -1.9151  0.9071
 5942SOL    HW219268  -0.024   3.389   7.874 -0.3859  0.9803  1.1187
 5943SOL     OW19269   0.876   1.398   2.237  0.4275  0.2330  0.1285
 5943SOL    HW119270   0.809   1.404   2.305 -1.0664 -2.8533 -0.8638
 5943SOL    HW219271   0.957   1.379   2.284 -0.4111 -1.0299  1.1234
 5944SOL     OW19272   5.615   6.314   6.583 -0.3871  0.1481 -0.6333
 5944SOL    HW119273   5.555   6.250   6.544  0.0064 -1.1225  0.7675
 5944SOL    HW219274   5.591   6.397   6.541 -3.0539 -0.3139 -0.2279
 5945SOL     OW19275   3.952   7.377   1.895 -0.1315 -0.9240 -0.1056
 5945SOL    HW119276   4.015   7.332   1.952 -0.3496 -1.1305 -0.0236
 5945SOL    HW219277   4.005   7.440   1.846 -0.1462  0.2809  1.3579
 5946SOL     OW19278   6.897   1.841   8.464 -0.2001  0.4746 -0.0072
 5946SOL    HW119279   6.870   1.921   8.509 -1.5285 -1.0750  2.1896
 5946SOL    HW219280   6.815   1.802   8.434  0.4176 -0.1124 -0.9836
 5947SOL     OW19281   4.059   0.289   2.322 -0.0007  0.3044 -0.2698
 5947SOL    HW119282   4.100   0.220   2.270  1.1151  0.9484 -0.2813
 5947SOL    HW219283   4.127   0.356   2.330  0.1696 -0.0645  2.6037
 5948SOL     OW19284   6.512   3.260   4.398 -0.3206  0.0136 -0.1309
 5948SOL    HW119285   6.502   3.169   4.368  0.3703  0.6731 -2.5498
 5948SOL    HW219286   6.591   3.259   4.452 -2.1008 -1.3904  2.7124
 5949SOL     OW19287   4.570   5.623   5.152  0.1229 -0.2487  0.3571
 5949SOL    HW119288   4.585   5.700   5.208 -1.7031 -0.0599  0.6329
 5949SOL    HW219289   4.492   5.582   5.188 -1.0463 -0.2021 -1.9880
 5950SOL     OW19290   3.998   3.261   0.581 -0.3438 -0.2064  0.4368
 5950SOL    HW119291   3.996   3.333   0.644  0.1317  0.8924 -0.7464
 5950SOL    HW219292   4.071   3.206   0.609  0.6111  0.9046  0.2075
 5951SOL     OW19293   2.502   3.684   8.496 -0.5593  0.4434 -0.5310
 5951SOL    HW119294   2.481   3.683   8.590 -2.3574 -1.4638 -0.8785
 5951SOL    HW219295   2.478   3.772   8.468 -3.1740  0.0747  0.2288
 5952SOL     OW19296   2.461   4.259  10.311  0.5195 -0.3159  0.5848
 5952SOL    HW119297   2.488   4.350  10.301 -0.1499 -0.2384 -0.8180
 5952SOL    HW219298   2.541   4.208  10.296  0.7387  0.0204  0.6079
 5953SOL     OW19299   1.328   4.955   0.633 -0.6758  0.4323  0.3689
 5953SOL    HW119300   1.278   5.006   0.696 -1.0001  0.4894  0.0687
 5953SOL    HW219301   1.284   4.970   0.549 -0.6223 -0.1303  0.2323
 5954SOL     OW19302   3.224   6.788   1.571  0.2269  0.6934  0.1114
 5954SOL    HW119303   3.304   6.823   1.610 -0.6857 -0.3869  3.3024
 5954SOL    HW219304   3.163   6.862   1.569 -0.0678  0.5592  1.9937
 5955SOL     OW19305   1.419   1.727   4.082  0.5127  0.4316  0.2805
 5955SOL    HW119306   1.465   1.792   4.134 -0.1964  0.1850  1.2469
 5955SOL    HW219307   1.440   1.644   4.124 -0.7060  0.3082  0.6685
 5956SOL     OW19308   5.908   3.127   1.645  0.4061 -0.0254 -0.0347
 5956SOL    HW119309   5.960   3.207   1.638  0.2036  0.2843  1.6804
 5956SOL    HW219310   5.854   3.127   1.566  0.8824  1.1858 -0.3852
 5957SOL     OW19311   4.575   1.195   7.338 -0.3910  0.0337  0.0997
 5957SOL    HW119312   4.611   1.269   7.386 -0.6860 -0.5792  1.3246
 5957SOL    HW219313   4.481   1.212   7.335 -0.3783  0.0465 -0.2183
 5958SOL     OW19314   0.492   0.613   8.834 -0.3544 -0.3920 -0.0469
 5958SOL    HW119315   0.427   0.673   8.797 -0.6001  0.8910  2.2557
 5958SOL    HW219316   0.447   0.529   8.838 -1.9013  0.4269  1.3132
 5959SOL     OW19317   4.723   2.172   5.093  0.4349  0.2083 -0.6003
 5959SOL    HW119318   4.776   2.099   5.125 -0.2726 -0.0124  0.1089
 5959SOL    HW219319   4.701   2.148   5.003  0.6755 -0.1790 -0.5610
 5960SOL     OW19320   6.050   2.974   8.817  0.0715 -0.4360 -0.1017
 5960SOL    HW119321   6.099   2.970   8.899 -0.9734  0.4612  0.5878
 5960SOL    HW219322   5.966   2.934   8.836 -0.5456  0.6548 -0.4512
 5961SOL     OW19323   7.222   4.762  10.921 -0.1350 -0.0314 -0.3133
 5961SOL    HW119324   7.280   4.743  10.847 -1.8061  1.8378 -2.2520
 5961SOL    HW219325   7.207   4.856  10.917 -1.9307 -0.1958  1.1446
 5962SOL     OW19326   3.490   5.629   7.902  0.2609 -0.5381 -0.3888
 5962SOL    HW119327   3.432   5.631   7.826 -0.4237 -0.2361  0.1284
 5962SOL    HW219328   3.470   5.546   7.945 -0.4612 -0.0330  0.2861
 5963SOL     OW19329   3.142   4.447   6.988 -0.0870  0.0873 -0.4824
 5963SOL    HW119330   3.083   4.486   7.052  0.7209  1.3366 -0.4600
 5963SOL    HW219331   3.164   4.361   7.025 -2.2147 -0.6062 -0.7322
 5964SOL     OW19332   3.687   1.378   5.001  0.3823  0.2073 -0.3070
 5964SOL    HW119333   3.764   1.395   5.055  0.6839 -0.5867 -0.4726
 5964SOL    HW219334   3.613   1.383   5.062  0.6699 -0.1325  0.0690
 5965SOL     OW19335   6.928   0.164   6.769  0.2771  0.2015  0.0071
 5965SOL    HW119336   7.016   0.201   6.764  0.2430  0.1988 -0.6730
 5965SOL    HW219337   6.870   0.239   6.757  0.2104 -0.0959 -1.7240
 5966SOL     OW19338   7.671   4.171   2.349  0.4865  0.4307 -0.0795
 5966SOL    HW119339   7.628   4.192   2.267  2.1128 -0.0378 -1.0994
 5966SOL    HW219340   7.760   4.143   2.324  0.4302 -1.6090  1.6534
 5967SOL     OW19341   0.575   0.662   9.889 -0.0703 -0.6133 -0.2259
 5967SOL    HW119342   0.648   0.603   9.868  0.3029 -0.7780  1.3453
 5967SOL    HW219343   0.614   0.728   9.946 -1.0262 -0.3773  0.1716
 5968SOL     OW19344   3.915   1.472   2.338 -0.6644  0.0469 -0.1460
 5968SOL    HW119345   3.890   1.388   2.299 -1.0616  0.2999 -0.4497
 5968SOL    HW219346   3.865   1.476   2.420 -1.0378  0.2129 -0.3807
 5969SOL     OW19347   4.234   7.087   6.174  0.2025 -0.3317  0.5420
 5969SOL    HW119348   4.138   7.093   6.172  0.1878 -0.6598 -0.0603
 5969SOL    HW219349   4.263   7.174   6.145  0.0908 -0.1864  0.8619
 5970SOL     OW19350   5.713   6.003  12.460 -0.5683 -0.2999 -0.0342
 5970SOL    HW119351   5.730   5.910  12.449 -1.1330 -0.1987 -2.0176
 5970SOL    HW219352   5.747   6.044  12.381 -1.3806  1.0458  0.2763
 5971SOL     OW19353   4.186   3.297   2.246 -0.4909  0.0791  0.2205
 5971SOL    HW119354   4.182   3.336   2.158 -2.7729  1.1602  0.7059
 5971SOL    HW219355   4.099   3.259   2.258 -0.1723 -0.1437  1.9676
 5972SOL     OW19356   5.022   6.138   0.687 -0.1206 -0.3227  0.2597
 5972SOL    HW119357   4.951   6.174   0.740 -0.5745  2.1629 -1.8206
 5972SOL    HW219358   5.058   6.214   0.642  1.4013 -2.0527 -1.5935
 5973SOL     OW19359   6.976   5.136   8.086 -0.1077  0.2590 -0.1212
 5973SOL    HW119360   7.032   5.163   8.159 -0.0965  1.6245 -0.6036
 5973SOL    HW219361   6.898   5.101   8.129 -0.1008  1.0371  0.5683
 5974SOL     OW19362   7.819   6.462   5.651 -0.4946 -0.2152 -0.5397
 5974SOL    HW119363   7.864   6.409   5.585  0.8015 -1.7101  1.4119
 5974SOL    HW219364   7.728   6.434   5.647 -0.5389  0.0697 -1.9812
 5975SOL     OW19365   3.469   3.671   3.971 -0.4152 -0.5144 -0.1135
 5975SOL    HW119366   3.387   3.675   3.921 -0.3773  1.2397 -0.1057
 5975SOL    HW219367   3.448   3.621   4.049 -0.7358 -2.4746 -1.3951
 5976SOL     OW19368   7.090   7.404  11.470  0.1479 -0.1996 -0.3861
 5976SOL    HW119369   6.999   7.430  11.480  0.2286 -0.2981  0.7655
 5976SOL    HW219370   7.138   7.486  11.467  0.2116 -0.1313  1.2687
 5977SOL     OW19371   0.284   3.557   3.680 -0.3113  0.3403 -0.5134
 5977SOL    HW119372   0.193   3.584   3.678 -0.1845  0.7708 -0.6875
 5977SOL    HW219373   0.326   3.616   3.742  0.0272  0.7385 -1.1156
 5978SOL     OW19374   0.264   1.890   1.990 -0.0146  0.2717  0.0801
 5978SOL    HW119375   0.291   1.972   1.947 -1.3945  1.3239  1.1360
 5978SOL    HW219376   0.299   1.897   2.079 -2.8855  1.3338  1.2549
 5979SOL     OW19377   3.153   6.749   3.236  0.7150  0.6705  0.5049
 5979SOL    HW119378   3.216   6.822   3.243  1.5138  0.1856 -1.2344
 5979SOL    HW219379   3.208   6.671   3.233 -0.0441  0.1429  0.2549
 5980SOL     OW19380   0.143   2.229   4.271  0.6183 -0.1011 -0.2690
 5980SOL    HW119381   0.204   2.301   4.255  0.3937  0.4324  1.1701
 5980SOL    HW219382   0.163   2.199   4.359 -1.7256  0.6384  0.5972
 5981SOL     OW19383   1.439   5.250   2.665 -0.0878 -0.1836  0.1972
 5981SOL    HW119384   1.498   5.194   2.716 -0.6445  0.5931  1.7971
 5981SOL    HW219385   1.497   5.316   2.626  0.4093 -1.0621 -0.5758
 5982SOL     OW19386   7.928   7.442   2.772 -0.0312 -0.2406 -0.4188
 5982SOL    HW119387   7.921   7.383   2.697 -0.8837  0.4676 -0.9088
 5982SOL    HW219388   7.980   7.393   2.836 -0.4175 -1.3776 -0.9526
 5983SOL     OW19389   0.348   3.174   1.323  0.0371  0.4698 -0.8039
 5983SOL    HW119390   0.366   3.162   1.416  1.1173  1.1529 -0.9136
 5983SOL    HW219391   0.286   3.246   1.319 -0.1291  0.3379 -0.6063
 5984SOL     OW19392   1.625   3.634  10.218  0.3753  0.1589  0.5017
 5984SOL    HW119393   1.658   3.630  10.128 -0.4386 -0.5410  0.2226
 5984SOL    HW219394   1.698   3.670  10.269  0.5983  1.2534 -0.5469
 5985SOL     OW19395   4.271   0.191  11.050 -0.1263  0.2207  0.3351
 5985SOL    HW119396   4.229   0.220  10.969  0.1486  2.2155  0.8532
 5985SOL    HW219397   4.310   0.270  11.086  0.7653 -0.8575  1.8342
 5986SOL     OW19398   5.533   1.598   1.010 -0.4257  0.0794  0.3388
 5986SOL    HW119399   5.497   1.648   1.083 -0.1633 -0.0544  0.5637
 5986SOL    HW219400   5.551   1.663   0.942 -0.1082  0.2905  0.6185
 5987SOL     OW19401   4.328   4.584   6.096 -0.0199 -0.5740  0.1687
 5987SOL    HW119402   4.352   4.496   6.066  1.4815  0.4704 -1.8562
 5987SOL    HW219403   4.402   4.612   6.150  0.2599  0.0543 -0.5283
 5988SOL     OW19404   6.827   4.877   1.008  0.0868 -0.0677  0.2736
 5988SOL    HW119405   6.754   4.920   0.963 -0.8974 -1.3770  0.5626
 5988SOL    HW219406   6.900   4.885   0.947 -0.6936 -0.0480 -0.6978
 5989SOL     OW19407   5.049   4.577   3.257 -0.4033  0.4843  0.3219
 5989SOL    HW119408   5.048   4.484   3.236  0.7022  0.0898  1.8250
 5989SOL    HW219409   4.957   4.599   3.273 -0.7333 -0.2094 -0.5249
 5990SOL     OW19410   6.685   0.312   2.681 -0.4480 -0.5572  0.2238
 5990SOL    HW119411   6.719   0.223   2.682 -0.3945 -0.5314  0.7540
 5990SOL    HW219412   6.760   0.367   2.702 -1.0902 -0.6082  3.1056
 5991SOL     OW19413   1.921   5.441   6.443  0.0606 -0.0361  0.1487
 5991SOL    HW119414   1.988   5.374   6.457 -0.0231  0.2925  2.5477
 5991SOL    HW219415   1.840   5.400   6.475  0.0075  1.1504  1.6316
 5992SOL     OW19416   5.497   2.637  11.259 -0.2895  0.5048  0.4601
 5992SOL    HW119417   5.507   2.610  11.168  0.6849 -1.3226  1.0386
 5992SOL    HW219418   5.574   2.691  11.276 -0.4931  0.8814  0.1876
 5993SOL     OW19419   2.348   3.126   0.403  0.0960 -0.0543 -0.0213
 5993SOL    HW119420   2.275   3.163   0.452  0.9491  0.8240  0.6393
 5993SOL    HW219421   2.419   3.189   0.415  1.7626 -2.0528  1.5250
 5994SOL     OW19422   2.958   5.839   4.725 -0.0432  0.1817 -0.3878
 5994SOL    HW119423   2.920   5.854   4.639  0.8396 -0.6874 -0.9504
 5994SOL    HW219424   2.943   5.747   4.744 -1.2039  0.6042  0.9034
 5995SOL     OW19425   0.673   3.935   1.353 -0.1648  0.0363 -0.3198
 5995SOL    HW119426   0.716   3.895   1.428  0.1595 -0.4430 -0.7529
 5995SOL    HW219427   0.580   3.933   1.374 -0.1958 -1.3227 -0.5008
 5996SOL     OW19428   5.884   7.711   8.270 -0.4455 -0.4012  0.8037
 5996SOL    HW119429   5.960   7.654   8.257  1.2347  1.4719  1.7929
 5996SOL    HW219430   5.858   7.736   8.181  1.6534  0.7809  0.4507
 5997SOL     OW19431   1.894   3.199   4.236 -0.7023  0.0517 -0.3074
 5997SOL    HW119432   1.951   3.181   4.311  0.0479  2.1015 -0.3173
 5997SOL    HW219433   1.949   3.179   4.160 -0.8806 -0.3934 -0.3226
 5998SOL     OW19434   6.608   3.238   3.821  0.2882 -0.2286  0.2208
 5998SOL    HW119435   6.583   3.260   3.731 -0.1315 -0.3517  0.3070
 5998SOL    HW219436   6.689   3.287   3.835 -0.6456  1.3314  0.4186
 5999SOL     OW19437   7.288   5.721   1.633  0.3925  0.3018  0.1998
 5999SOL    HW119438   7.287   5.769   1.550  1.4112 -1.8770 -1.1552
 5999SOL    HW219439   7.380   5.717   1.657  0.2658 -0.4954  0.5680
 6000SOL     OW19440   2.913   2.729   5.301 -0.3904 -0.3152  0.1694
 6000SOL    HW119441   2.827   2.700   5.331 -1.2597  2.5277  0.7498
 6000SOL    HW219442   2.906   2.734   5.206 -1.1599  0.6749  0.2691
 6001SOL     OW19443   4.423   5.100  10.553  0.1597  0.0552  0.2435
 6001SOL    HW119444   4.386   5.014  10.571  0.7815 -0.9558 -2.6558
 6001SOL    HW219445   4.353   5.147  10.508  0.5103  0.2476 -0.1068
 6002SOL     OW19446   1.552   6.414   7.800 -0.1451 -0.3797 -0.2550
 6002SOL    HW119447   1.535   6.415   7.706  2.2844  1.5174 -0.7726
 6002SOL    HW219448   1.474   6.455   7.839 -0.5442  0.1841 -1.5938
 6003SOL     OW19449   0.360   7.088   4.354 -0.0615  0.0771  0.3905
 6003SOL    HW119450   0.425   7.158   4.349  0.2613 -0.1498  1.3168
 6003SOL    HW219451   0.321   7.098   4.440 -1.4325  0.3541 -0.2353
 6004SOL     OW19452   4.900   0.475   2.343  0.9461 -0.9145 -0.1976
 6004SOL    HW119453   4.859   0.560   2.333  0.8383 -1.0183 -0.6790
 6004SOL    HW219454   4.918   0.467   2.437  0.8505 -0.4155 -0.1365
 6005SOL     OW19455   0.862   3.766   2.188  0.2949  0.0045  0.2685
 6005SOL    HW119456   0.935   3.815   2.148 -1.0041  1.6926 -0.1652
 6005SOL    HW219457   0.799   3.754   2.117 -0.4827 -0.1325  0.9653
 6006SOL     OW19458   7.260   4.412   5.433  0.2634 -0.3185  0.2214
 6006SOL    HW119459   7.289   4.370   5.351  0.3202  1.8476 -0.9366
 6006SOL    HW219460   7.165   4.413   5.426  0.2689 -0.1242  0.1623
 6007SOL     OW19461   7.237   5.702  11.856 -0.0978  0.1173 -0.2911
 6007SOL    HW119462   7.275   5.619  11.830 -0.2574 -0.0022 -0.1421
 6007SOL    HW219463   7.143   5.686  11.858 -0.0544 -0.0864  1.0785
 6008SOL     OW19464   4.260   2.505   3.840 -0.5276 -0.3388 -0.6718
 6008SOL    HW119465   4.207   2.556   3.778  0.9042  0.1477 -1.5299
 6008SOL    HW219466   4.308   2.570   3.890  0.3264 -0.8032 -0.8772
 6009SOL     OW19467   5.337   4.882   2.644  0.0578 -0.4054 -0.0807
 6009SOL    HW119468   5.259   4.828   2.658  0.1428 -0.0616  1.9621
 6009SOL    HW219469   5.303   4.961   2.600 -0.6630 -0.5058  0.2764
 6010SOL     OW19470   0.483   6.398   9.617 -0.3212  0.7055  0.2532
 6010SOL    HW119471   0.437   6.442   9.546 -0.4869  0.2648  0.0883
 6010SOL    HW219472   0.433   6.421   9.696 -1.1129 -0.1702  0.0158
 6011SOL     OW19473   6.700   5.516   9.133 -0.2323 -0.4749 -0.3478
 6011SOL    HW119474   6.616   5.494   9.173 -0.8827  2.2041 -0.0362
 6011SOL    HW219475   6.734   5.589   9.186  1.1295  0.0938 -1.8959
 6012SOL     OW19476   5.236   3.651   5.986 -0.5429  0.4619 -0.0192
 6012SOL    HW119477   5.205   3.704   5.912 -0.8404 -0.2239 -0.3877
 6012SOL    HW219478   5.164   3.591   6.004 -0.4884  0.6555  0.8635
 6013SOL     OW19479   5.347   6.824   0.006  0.2755  0.3495 -0.2405
 6013SOL    HW119480   5.341   6.743   0.055 -1.2585  1.0162  0.7219
 6013SOL    HW219481   5.380   6.797  -0.080  1.1138 -1.0874  0.4885
 6014SOL     OW19482   5.251   7.642   2.804  0.1161 -0.8224 -0.0847
 6014SOL    HW119483   5.229   7.735   2.809 -0.4784 -0.7984 -2.2350
 6014SOL    HW219484   5.174   7.597   2.841  0.7179 -0.5012  1.6820
 6015SOL     OW19485   3.436   1.922   1.425  0.0897  0.3313 -0.0048
 6015SOL    HW119486   3.384   1.876   1.359  1.5194  0.1459 -1.0609
 6015SOL    HW219487   3.457   2.006   1.384  1.0855  0.1726  0.1529
 6016SOL     OW19488   1.963   2.055   5.932 -0.1658  0.0150  0.3047
 6016SOL    HW119489   1.955   1.990   5.862 -1.6156  1.2042 -0.6860
 6016SOL    HW219490   1.927   2.012   6.010  0.8170 -1.0678  0.1929
 6017SOL     OW19491   3.885   0.279   6.406 -0.7399  0.4089 -0.0473
 6017SOL    HW119492   3.898   0.336   6.482  0.9459 -1.1168  0.8803
 6017SOL    HW219493   3.826   0.211   6.437  0.0238 -0.2688 -0.0369
 6018SOL     OW19494   1.913   7.330   6.156  0.2699  0.1251 -0.0950
 6018SOL    HW119495   1.923   7.265   6.087  0.1660  2.0141 -2.0050
 6018SOL    HW219496   1.997   7.376   6.159 -0.3313  1.2949 -0.3490
 6019SOL     OW19497   3.044   3.250   6.202 -0.0788  0.3213 -0.1733
 6019SOL    HW119498   2.960   3.295   6.187 -0.9028 -1.2413 -0.5011
 6019SOL    HW219499   3.021   3.174   6.255  1.1865  0.0224 -0.0316
 6020SOL     OW19500   6.376   2.119   3.000  0.1069  0.5108  0.4019
 6020SOL    HW119501   6.295   2.148   2.958  0.6945  0.6714 -0.6703
 6020SOL    HW219502   6.348   2.063   3.072 -0.9406 -0.6855 -0.8853
 6021SOL     OW19503   1.911   0.729   0.407 -0.1027 -0.1963 -0.1647
 6021SOL    HW119504   1.977   0.726   0.477  1.8232  0.1549 -1.8388
 6021SOL    HW219505   1.840   0.782   0.443  1.0761  0.4604  1.3185
 6022SOL     OW19506   1.447   5.017   9.820  0.5675  0.6111 -0.1424
 6022SOL    HW119507   1.387   5.089   9.841  0.2332 -0.2423  2.0908
 6022SOL    HW219508   1.427   4.949   9.885  2.1574 -0.7681 -1.0091
 6023SOL     OW19509   2.727   4.570   0.661 -0.5801 -0.9157  0.4823
 6023SOL    HW119510   2.754   4.565   0.752  0.0626 -1.0719  0.2918
 6023SOL    HW219511   2.631   4.569   0.663 -0.5810 -0.2030  1.1875
 6024SOL     OW19512   1.357   7.775  11.625  0.1557 -0.3022 -0.2207
 6024SOL    HW119513   1.337   7.763  11.717 -0.8126  0.2119 -0.3535
 6024SOL    HW219514   1.429   7.713  11.608 -0.4656 -1.2755  0.5773
 6025SOL     OW19515   4.314   3.441   5.421  0.2613  0.1946 -0.3185
 6025SOL    HW119516   4.343   3.528   5.446  0.5994 -0.1967  0.6733
 6025SOL    HW219517   4.360   3.382   5.480 -1.6868 -0.5241  0.5529
 6026SOL     OW19518   5.525   6.635   1.581  0.0816  0.2098 -0.6710
 6026SOL    HW119519   5.601   6.666   1.531 -0.0885  0.0004 -1.0614
 6026SOL    HW219520   5.454   6.695   1.557  0.1966  0.5827 -0.0825
 6027SOL     OW19521   4.944   2.022   7.757  0.0824  0.2044 -0.5246
 6027SOL    HW119522   4.989   2.065   7.684  0.3401  0.3219 -0.3004
 6027SOL    HW219523   4.858   2.064   7.760  0.1079  0.2714 -0.6973
 6028SOL     OW19524   5.411   0.947   9.686 -0.7015 -0.0115  0.1373
 6028SOL    HW119525   5.340   0.959   9.623  0.8678  0.8053 -1.5519
 6028SOL    HW219526   5.455   0.867   9.658  0.3484  0.6541 -0.1728
 6029SOL     OW19527   2.996   1.756   0.336  0.4206 -0.2020  0.4557
 6029SOL    HW119528   2.936   1.749   0.262  1.4215 -2.6762 -0.2429
 6029SOL    HW219529   2.941   1.782   0.410 -0.5445  2.7093 -1.1272
 6030SOL     OW19530   6.258   7.523  12.346 -0.0593 -0.2641  0.5367
 6030SOL    HW119531   6.168   7.497  12.366 -0.2809 -2.3200 -2.4844
 6030SOL    HW219532   6.312   7.455  12.385 -0.0727 -0.7953 -0.3446
 6031SOL     OW19533   1.438   2.016   2.354 -0.0228 -0.1227 -0.4676
 6031SOL    HW119534   1.501   2.082   2.382  0.8573 -1.8453  1.8775
 6031SOL    HW219535   1.372   2.014   2.423 -1.1249 -0.3513 -1.4869
 6032SOL     OW19536   4.470   5.463   8.926  0.0621  0.4853  0.6777
 6032SOL    HW119537   4.423   5.538   8.963  0.2096  0.8122  0.2053
 6032SOL    HW219538   4.401   5.400   8.907  0.0137  0.1372  1.8794
 6033SOL     OW19539   6.928   6.256  10.320 -0.0521 -0.9524  0.1804
 6033SOL    HW119540   6.869   6.190  10.355  1.7167 -1.7440  1.8581
 6033SOL    HW219541   6.957   6.306  10.396  0.1996  0.4789 -0.8083
 6034SOL     OW19542   7.599   5.705   9.377  0.3816 -0.2917  0.5842
 6034SOL    HW119543   7.646   5.632   9.336  0.7203 -0.5210  1.3611
 6034SOL    HW219544   7.507   5.681   9.370  0.4580 -0.5174  0.3198
 6035SOL     OW19545   0.325   2.088  10.036 -0.2062 -0.3660 -0.3168
 6035SOL    HW119546   0.355   1.999  10.053 -2.1930 -1.2798 -1.2589
 6035SOL    HW219547   0.356   2.106   9.947 -0.3400 -0.3421 -0.3571
 6036SOL     OW19548   4.451   2.008   7.652 -0.0538  0.3026 -0.0119
 6036SOL    HW119549   4.457   2.056   7.569 -1.0076  2.2850  0.9854
 6036SOL    HW219550   4.489   1.923   7.633  0.2071  0.8610 -2.3536
 6037SOL     OW19551   6.960   3.444   6.983 -0.1132  0.2368 -0.7073
 6037SOL    HW119552   6.882   3.497   6.964 -0.3517  0.6788  1.2670
 6037SOL    HW219553   7.028   3.508   7.005  0.1829 -0.2177 -0.2727
 6038SOL     OW19554   5.478   4.075   1.183  0.0061  0.7392  0.2123
 6038SOL    HW119555   5.425   4.022   1.123 -0.8810  1.0036  0.7445
 6038SOL    HW219556   5.420   4.093   1.257  0.6314  1.5939  0.5102
 6039SOL     OW19557   4.902   0.423   3.599 -0.2121 -0.1602  0.1598
 6039SOL    HW119558   4.997   0.435   3.602 -0.2397  0.9146 -1.6194
 6039SOL    HW219559   4.887   0.368   3.522 -1.0116 -0.9788  0.8657
 6040SOL     OW19560   7.320   7.678   7.295  0.2732 -0.3840  0.5543
 6040SOL    HW119561   7.394   7.688   7.355  0.1946 -0.6275  0.6941
 6040SOL    HW219562   7.261   7.749   7.318 -0.4105 -1.2886  1.7266
 6041SOL     OW19563   1.695   3.713   6.694 -0.0034 -0.1682 -0.0494
 6041SOL    HW119564   1.713   3.783   6.757 -0.1934 -0.0015 -0.1819
 6041SOL    HW219565   1.694   3.633   6.747 -0.6772  0.0281  0.2487
 6042SOL     OW19566   1.466   5.168   9.060 -0.2488 -0.1887  0.3441
 6042SOL    HW119567   1.428   5.167   8.972  1.1252  2.0313 -0.3466
 6042SOL    HW219568   1.410   5.227   9.111 -0.5577 -0.8124  0.7402
 6043SOL     OW19569   0.988   1.418   8.462  0.2714 -0.2052 -0.9182
 6043SOL    HW119570   0.907   1.401   8.509 -0.2021 -1.7891 -2.2139
 6043SOL    HW219571   0.969   1.495   8.409  0.0867  0.2539 -0.2062
 6044SOL     OW19572   3.121   2.962  11.608  0.0846  0.6740  0.4127
 6044SOL    HW119573   3.044   3.007  11.643 -1.9940 -2.1628 -0.0759
 6044SOL    HW219574   3.122   2.985  11.515 -0.7065  0.1664  0.2581
 6045SOL     OW19575   0.537   5.088   6.128 -0.3770  0.2241 -0.5926
 6045SOL    HW119576   0.515   5.010   6.180  0.9705  0.5527  0.5208
 6045SOL    HW219577   0.473   5.154   6.155 -0.6492 -0.0735 -0.5038
 6046SOL     OW19578   1.594   2.035   0.680 -0.4773 -0.0062 -0.4332
 6046SOL    HW119579   1.628   1.964   0.626 -2.4572 -0.3086 -1.3925
 6046SOL    HW219580   1.656   2.107   0.669  0.2311 -0.7639 -1.4788
 6047SOL     OW19581   5.683   1.112   0.898  0.7679 -0.5901 -0.4642
 6047SOL    HW119582   5.757   1.173   0.902  3.0782 -3.2243  2.7585
 6047SOL    HW219583   5.611   1.160   0.941  1.5256  0.9039 -0.7807
 6048SOL     OW19584   5.366   4.052   2.100 -0.2371 -0.2386  0.3847
 6048SOL    HW119585   5.275   4.074   2.080  0.2092 -0.4020 -2.1605
 6048SOL    HW219586   5.400   4.127   2.148 -1.6010 -0.0423  1.0720
 6049SOL     OW19587   1.713   6.631   5.609  0.1635 -0.3742 -0.3583
 6049SOL    HW119588   1.767   6.652   5.534 -0.0727  0.3033 -0.3468
 6049SOL    HW219589   1.737   6.541   5.632 -0.3839 -0.9153 -1.7673
 6050SOL     OW19590   6.314   0.633   5.280  0.1150 -0.3287  0.4157
 6050SOL    HW119591   6.391   0.615   5.333  1.8536  1.8109 -1.2198
 6050SOL    HW219592   6.309   0.559   5.220  1.2895 -0.1915  0.1259
 6051SOL     OW19593   7.222   6.032  10.200  0.1372 -0.5813  0.0296
 6051SOL    HW119594   7.205   6.080  10.281  0.7750 -1.0338  0.4420
 6051SOL    HW219595   7.208   5.940  10.224  1.9219 -0.8756  0.0862
 6052SOL     OW19596   2.735   1.947   6.933  0.3937 -0.0622 -0.2886
 6052SOL    HW119597   2.803   1.908   6.988 -0.2849 -1.8586 -0.6595
 6052SOL    HW219598   2.706   2.023   6.982  1.4998 -0.2237  0.6747
 6053SOL     OW19599   4.157   0.102  11.288  0.3464  0.0423 -0.9233
 6053SOL    HW119600   4.175   0.138  11.201 -0.0165  0.0342 -1.0041
 6053SOL    HW219601   4.099   0.028  11.271 -0.5685  0.6773 -0.5893
 6054SOL     OW19602   3.466   5.103  10.108  0.1705  0.4518  0.1479
 6054SOL    HW119603   3.508   5.019  10.127  0.9957  0.7423 -0.3331
 6054SOL    HW219604   3.376   5.092  10.138  0.3332 -0.5200  0.3199
 6055SOL     OW19605   1.313   0.250  11.078  0.1864  0.1557  0.3385
 6055SOL    HW119606   1.246   0.191  11.043 -0.5793  0.8321  0.6286
 6055SOL    HW219607   1.314   0.324  11.017 -0.1630  0.6903  0.9661
 6056SOL     OW19608   4.809   6.212  12.015  0.6451  0.0212  0.4639
 6056SOL    HW119609   4.735   6.264  11.984  1.2450  2.1406  2.3110
 6056SOL    HW219610   4.849   6.177  11.936  0.7631  3.2081 -1.0352
 6057SOL     OW19611   1.496   0.247   9.386  0.9604  0.3772 -0.1082
 6057SOL    HW119612   1.402   0.262   9.374  0.7541 -0.4158  0.4754
 6057SOL    HW219613   1.538   0.324   9.346  0.0442  1.0324  0.1650
 6058SOL     OW19614   5.183   6.340   3.630 -0.6388  0.4076  0.1805
 6058SOL    HW119615   5.211   6.390   3.553 -0.6516 -0.4133 -0.3743
 6058SOL    HW219616   5.177   6.404   3.700  1.3732  0.8247  0.0083
 6059SOL     OW19617   4.905   1.489   9.518  0.2566 -0.0490  0.0769
 6059SOL    HW119618   4.824   1.471   9.565 -0.4227 -1.3025 -1.4881
 6059SOL    HW219619   4.960   1.535   9.581 -1.6191  0.7345  1.2168
 6060SOL     OW19620   4.757   3.084   1.001  0.2335 -0.2572 -0.5251
 6060SOL    HW119621   4.799   3.169   0.988  1.2928 -0.7919 -0.7038
 6060SOL    HW219622   4.822   3.020   0.973 -0.5585 -1.1372 -0.4236
 6061SOL     OW19623   4.977   7.437   8.790  0.0007  0.5791  0.2351
 6061SOL    HW119624   4.935   7.383   8.857 -0.9598 -0.0441 -0.8280
 6061SOL    HW219625   4.957   7.527   8.817 -0.4019  0.3370  0.7648
 6062SOL     OW19626   3.958   1.822   1.461 -0.3419  0.2175 -0.7036
 6062SOL    HW119627   4.032   1.848   1.406 -0.2042 -2.0570 -1.6857
 6062SOL    HW219628   3.883   1.823   1.402 -0.4481 -0.8748 -0.5977
 6063SOL     OW19629   7.319   3.916   0.514  0.0451 -0.8785 -0.7558
 6063SOL    HW119630   7.284   3.978   0.450  0.2509 -1.6168 -1.5966
 6063SOL    HW219631   7.350   3.971   0.586 -2.0899 -0.1420 -0.3358
 6064SOL     OW19632   4.096   2.289   0.142 -0.1578 -0.0470  0.0672
 6064SOL    HW119633   4.154   2.266   0.069 -0.3177 -1.9243  0.4713
 6064SOL    HW219634   4.008   2.268   0.110 -0.4256  0.8228  0.1979
 6065SOL     OW19635   0.566   2.198   0.980 -0.1001  0.0890  0.6246
 6065SOL    HW119636   0.616   2.163   1.054  0.1301  0.4905  0.6604
 6065SOL    HW219637   0.556   2.291   0.999 -2.1894 -0.2407  1.3834
 6066SOL     OW19638   4.206   7.435   9.845  0.4257  0.3102 -0.0057
 6066SOL    HW119639   4.256   7.431   9.926  0.3075 -1.9564  0.0197
 6066SOL    HW219640   4.202   7.344   9.815  0.3661  1.0759 -2.5067
 6067SOL     OW19641   0.953   7.534   9.233  0.1120 -0.1103 -0.3466
 6067SOL    HW119642   0.871   7.495   9.261  0.3997 -0.4607  0.0201
 6067SOL    HW219643   0.951   7.623   9.267  1.0531 -0.9174  2.0448
 6068SOL     OW19644   6.525   6.419  10.797 -0.2080  0.3321  0.3144
 6068SOL    HW119645   6.439   6.457  10.780 -1.0709 -0.9692  1.5587
 6068SOL    HW219646   6.582   6.458  10.731 -1.2282  2.9687  0.8783
 6069SOL     OW19647   7.201   1.787   4.629 -0.1766  0.8223 -0.2545
 6069SOL    HW119648   7.218   1.778   4.723  0.1963  0.4945 -0.3546
 6069SOL    HW219649   7.107   1.806   4.624 -0.9838 -2.5164 -0.0018
 6070SOL     OW19650   4.987   5.757   6.293  0.2353 -0.4945  1.2076
 6070SOL    HW119651   4.940   5.770   6.211  0.6916  0.8758  1.1366
 6070SOL    HW219652   5.064   5.704   6.268  1.6297  1.8118  0.2378
 6071SOL     OW19653   2.274   3.525   3.457  0.3701  0.4193 -0.0555
 6071SOL    HW119654   2.287   3.499   3.548 -0.7314  1.4015  0.3990
 6071SOL    HW219655   2.242   3.615   3.462 -0.8680  0.0843 -1.3402
 6072SOL     OW19656   0.732   2.844  12.098 -0.0693  0.3432 -0.2864
 6072SOL    HW119657   0.769   2.876  12.181 -0.0930 -0.1860 -0.0685
 6072SOL    HW219658   0.759   2.753  12.094 -0.1601  0.3384 -0.8158
 6073SOL     OW19659   5.115   6.069   1.158 -0.4728 -0.3099 -0.0042
 6073SOL    HW119660   5.022   6.082   1.136 -0.3046  0.9883 -0.0288
 6073SOL    HW219661   5.129   5.974   1.149 -1.4151 -0.3315 -1.5127
 6074SOL     OW19662   2.131   4.666   1.041 -0.4765 -0.2213  0.6476
 6074SOL    HW119663   2.184   4.745   1.048 -0.0151 -0.5144  0.4663
 6074SOL    HW219664   2.186   4.596   1.076 -0.4109 -0.6698 -0.3022
 6075SOL     OW19665   6.105   7.847   9.653 -0.2572  0.2517  0.0623
 6075SOL    HW119666   6.020   7.875   9.620 -0.6325 -0.2600  0.5864
 6075SOL    HW219667   6.100   7.859   9.748 -0.3141 -1.2357  0.2689
 6076SOL     OW19668   3.966   5.664   8.843  0.1540 -0.5313  0.2167
 6076SOL    HW119669   3.938   5.572   8.837 -0.0569 -0.4614  0.1160
 6076SOL    HW219670   3.955   5.698   8.754 -0.9219 -0.0808  0.5022
 6077SOL     OW19671   6.639   3.019  11.140 -0.0812 -0.1656  0.5665
 6077SOL    HW119672   6.685   3.103  11.141  0.7302 -0.5962  0.7702
 6077SOL    HW219673   6.546   3.042  11.149  0.0037  0.7713 -0.7127
 6078SOL     OW19674   6.972   3.728   0.023  0.0376  0.4819  0.1245
 6078SOL    HW119675   7.016   3.690  -0.054  1.1506 -0.4165  1.1513
 6078SOL    HW219676   6.879   3.724   0.002  0.1015 -2.5318 -0.0135
 6079SOL     OW19677   3.637   5.275   2.531 -0.3706  0.4941  0.0667
 6079SOL    HW119678   3.674   5.359   2.559 -1.2844  1.2576 -0.9178
 6079SOL    HW219679   3.684   5.254   2.450  0.1247 -0.1417  0.5171
 6080SOL     OW19680   4.654   3.367   9.667  0.2093  0.0193 -0.6861
 6080SOL    HW119681   4.613   3.448   9.636 -0.6596 -0.5006 -0.9380
 6080SOL    HW219682   4.742   3.368   9.629 -0.8057 -0.6136 -3.3240
 6081SOL     OW19683   7.417   5.475   7.351 -0.4287  0.0115 -0.1231
 6081SOL    HW119684   7.471   5.501   7.425 -0.5493  0.8422 -0.3055
 6081SOL    HW219685   7.327   5.480   7.384 -0.4167 -1.0228  0.0809
 6082SOL     OW19686   7.862   4.985  11.498 -0.4354 -0.3347  0.2003
 6082SOL    HW119687   7.943   5.033  11.483 -0.7792  0.2075  0.0398
 6082SOL    HW219688   7.880   4.896  11.469  0.0573 -0.1812  0.0371
 6083SOL     OW19689   7.074   2.501   4.215 -0.6967 -0.0160  0.1926
 6083SOL    HW119690   7.010   2.495   4.285 -0.2750  0.8326  0.6705
 6083SOL    HW219691   7.025   2.536   4.140 -0.6196  1.5134  0.8225
 6084SOL     OW19692   5.062   4.534  10.486  0.0228  0.1251  0.5481
 6084SOL    HW119693   4.979   4.510  10.446 -0.0102  1.0521  0.0426
 6084SOL    HW219694   5.058   4.497  10.574 -1.2636  0.8466  0.8135
 6085SOL     OW19695   1.973   6.921  11.740 -0.3382 -0.1050  0.5460
 6085SOL    HW119696   2.031   6.891  11.670 -0.0453  0.9723  0.3068
 6085SOL    HW219697   1.907   6.974  11.695 -0.2324  0.4782  1.0573
 6086SOL     OW19698   4.521   0.010   6.384  0.4334  0.4960 -0.2652
 6086SOL    HW119699   4.613  -0.014   6.376  0.2647 -0.5212  0.5449
 6086SOL    HW219700   4.474  -0.057   6.334 -0.0101 -0.6127  1.5242
 6087SOL     OW19701   0.913   5.780   6.524  0.5747  0.2070  0.2339
 6087SOL    HW119702   0.887   5.871   6.535 -1.5867  0.3600 -4.0900
 6087SOL    HW219703   0.911   5.766   6.429  1.0831 -4.2740  0.6835
 6088SOL     OW19704   7.161   4.882   4.321 -0.2489  0.3060 -0.1128
 6088SOL    HW119705   7.225   4.940   4.360  0.0645  0.5116 -0.9065
 6088SOL    HW219706   7.214   4.815   4.277 -0.5782  0.3236 -0.5400
 6089SOL     OW19707   1.334   3.691   4.522  0.3344  0.1838 -0.1094
 6089SOL    HW119708   1.241   3.699   4.501  0.3936  0.1945 -0.3629
 6089SOL    HW219709   1.366   3.782   4.524  0.6084  0.1292 -1.2252
 6090SOL     OW19710   3.455   5.668   6.736  0.7337 -0.1426 -0.6337
 6090SOL    HW119711   3.478   5.581   6.704  0.9191  0.1219 -1.2408
 6090SOL    HW219712   3.362   5.677   6.716 -0.1571 -1.4643  2.4027
 6091SOL     OW19713   5.316   0.476   7.611 -0.2317  0.4814  0.2613
 6091SOL    HW119714   5.224   0.449   7.615 -0.4114 -0.0305 -3.5682
 6091SOL    HW219715   5.365   0.399   7.638 -0.9182 -0.1585 -0.2657
 6092SOL     OW19716   6.065   0.623   9.144  0.0895 -0.1125 -0.2686
 6092SOL    HW119717   5.990   0.564   9.149 -0.6784  0.5861 -2.3784
 6092SOL    HW219718   6.035   0.704   9.186  0.0511 -0.1877 -0.1494
 6093SOL     OW19719   3.605   7.513  12.039  0.4556  0.5759  0.0871
 6093SOL    HW119720   3.672   7.453  12.070 -0.4300 -0.6403 -0.2480
 6093SOL    HW219721   3.554   7.461  11.976 -0.5677  1.5647  0.0593
 6094SOL     OW19722   7.636   3.041   5.951 -0.1640 -0.3138 -0.7756
 6094SOL    HW119723   7.561   2.995   5.913 -1.2040  0.3015  0.4411
 6094SOL    HW219724   7.610   3.057   6.042  1.3889  0.0701 -0.3743
 6095SOL     OW19725   4.198   0.516   5.113  0.2779 -0.5677  0.1552
 6095SOL    HW119726   4.208   0.483   5.023  0.5563  0.4795 -0.2075
 6095SOL    HW219727   4.242   0.451   5.167  0.8517 -0.7840 -0.5502
 6096SOL     OW19728   0.742   0.567  11.308 -0.1478 -0.0656  0.9227
 6096SOL    HW119729   0.768   0.647  11.262 -0.3393 -0.1080  0.7370
 6096SOL    HW219730   0.747   0.590  11.401 -1.8361  0.6990  0.8598
 6097SOL     OW19731   2.252   3.255   7.131  0.5305 -0.1507 -0.0102
 6097SOL    HW119732   2.344   3.233   7.116  1.8448  2.6565  2.6586
 6097SOL    HW219733   2.238   3.337   7.084 -0.1451  0.1989  0.7597
 6098SOL     OW19734   7.351   7.341   6.622  0.4169  0.4912 -0.1648
 6098SOL    HW119735   7.366   7.282   6.549  0.5068  1.1035 -0.6453
 6098SOL    HW219736   7.284   7.297   6.675 -3.1846  2.0718 -3.0193
 6099SOL     OW19737   2.569   0.970   0.754  0.0696  0.9668 -0.0259
 6099SOL    HW119738   2.626   1.006   0.822  1.4351  0.4908 -0.8893
 6099SOL    HW219739   2.614   0.990   0.672 -0.3099 -0.6610 -0.6588
 6100SOL     OW19740   0.612   6.790   5.100 -0.1055  0.1839 -0.7162
 6100SOL    HW119741   0.646   6.700   5.105  2.0101  0.9898  0.4510
 6100SOL    HW219742   0.531   6.782   5.049  0.0710 -2.3626 -0.7186
 6101SOL     OW19743   3.742   4.805   6.752  1.1574  0.0494 -0.4724
 6101SOL    HW119744   3.793   4.878   6.716  0.3721  1.3764  1.0191
 6101SOL    HW219745   3.717   4.833   6.839 -1.8889 -0.6636 -1.0113
 6102SOL     OW19746   7.367   1.918   6.807 -0.0233  0.4021 -0.1392
 6102SOL    HW119747   7.430   1.852   6.777  0.6406  1.3705 -0.9441
 6102SOL    HW219748   7.293   1.867   6.841  0.1178 -0.7618 -1.4888
 6103SOL     OW19749   6.697   0.449   4.964  0.6008  0.2833 -0.0990
 6103SOL    HW119750   6.702   0.416   5.054 -1.8752 -1.2770 -0.4202
 6103SOL    HW219751   6.786   0.477   4.944  0.8173  3.2232  3.7096
 6104SOL     OW19752   4.704   5.108   1.894 -0.1181 -0.2677 -0.4996
 6104SOL    HW119753   4.739   5.148   1.974 -0.0316  0.4900 -0.9072
 6104SOL    HW219754   4.764   5.035   1.875 -0.9027 -1.3010  0.8553
 6105SOL     OW19755   0.117   4.331  12.213  0.5286 -0.0089 -0.1034
 6105SOL    HW119756   0.060   4.402  12.183  0.9095  0.2736 -0.1634
 6105SOL    HW219757   0.205   4.364  12.199  0.7316  0.2168  1.5039
 6106SOL     OW19758   1.498   4.012   6.906 -0.7358  0.1460  0.0269
 6106SOL    HW119759   1.543   4.094   6.928  0.0010 -0.6936  1.8914
 6106SOL    HW219760   1.436   4.000   6.978  0.6262 -1.9276  0.9634
 6107SOL     OW19761   2.704   2.650  12.234  0.1195 -0.1225 -0.2203
 6107SOL    HW119762   2.707   2.558  12.262 -1.0633 -0.2343 -0.4030
 6107SOL    HW219763   2.789   2.686  12.259 -0.3136 -0.6131  2.1334
 6108SOL     OW19764   4.029   5.139   2.263  0.0716  0.3480  0.2844
 6108SOL    HW119765   4.067   5.086   2.193 -1.0550  0.8230 -0.7342
 6108SOL    HW219766   4.082   5.218   2.266 -0.4658  0.7668 -0.7509
 6109SOL     OW19767   3.041   7.434   1.237  0.3626  0.3232 -0.0641
 6109SOL    HW119768   3.023   7.437   1.143 -0.1299  0.0925  0.0182
 6109SOL    HW219769   3.073   7.346   1.253  2.1578  0.9052 -0.3029
 6110SOL     OW19770   7.623   3.572   5.421  0.0772 -0.6294 -0.6493
 6110SOL    HW119771   7.627   3.507   5.491 -1.0862 -0.7982 -0.7099
 6110SOL    HW219772   7.614   3.656   5.466  1.3142 -0.5231 -0.5760
 6111SOL     OW19773   6.046   6.488  12.233 -0.0742 -0.5313  0.3684
 6111SOL    HW119774   6.112   6.511  12.299  1.4873  0.0387 -1.2948
 6111SOL    HW219775   5.969   6.462  12.284  1.4942 -1.4883  2.4165
 6112SOL     OW19776   7.596   2.233   7.369 -0.5140  0.5563  0.6350
 6112SOL    HW119777   7.503   2.234   7.346 -0.4924  0.5564  0.5520
 6112SOL    HW219778   7.626   2.323   7.354 -0.9543  1.0623  2.4605
 6113SOL     OW19779   1.015   1.328   9.339  0.0801  0.4108  0.0784
 6113SOL    HW119780   1.096   1.381   9.339  0.1218  0.3483  0.4056
 6113SOL    HW219781   1.040   1.246   9.382 -0.6637  1.1916  2.1551
 6114SOL     OW19782   7.960   4.795   0.023 -0.5128  0.0447  0.0398
 6114SOL    HW119783   8.031   4.733   0.004 -0.8397  0.2631 -2.2725
 6114SOL    HW219784   7.884   4.757  -0.022 -0.9207  1.6915 -0.7157
 6115SOL     OW19785   3.406   2.884   0.224  0.4435 -0.2262  0.0364
 6115SOL    HW119786   3.429   2.806   0.273  0.1152 -1.4860 -1.7360
 6115SOL    HW219787   3.312   2.895   0.239  0.4582 -0.2607  0.1543
 6116SOL     OW19788   7.696   7.014   8.204  0.0930  0.3547  0.5224
 6116SOL    HW119789   7.759   6.980   8.140 -0.6083  1.7449 -0.9984
 6116SOL    HW219790   7.633   6.942   8.217 -0.2059  0.3105 -1.0083
 6117SOL     OW19791   2.240   5.282   2.151 -0.0256 -0.6104 -0.3916
 6117SOL    HW119792   2.167   5.336   2.122  0.0560 -0.8340 -1.0296
 6117SOL    HW219793   2.200   5.200   2.179 -0.1914 -0.0862  0.9672
 6118SOL     OW19794   7.610   3.235   9.455  0.7532 -0.2604  0.0154
 6118SOL    HW119795   7.660   3.158   9.428 -0.5120 -1.1984  0.2243
 6118SOL    HW219796   7.519   3.207   9.447  0.2799  1.0743  0.5541
 6119SOL     OW19797   5.136   3.495   6.470 -0.2230  0.1348 -0.1617
 6119SOL    HW119798   5.187   3.449   6.403 -1.2038 -0.0213 -0.8226
 6119SOL    HW219799   5.199   3.513   6.539  0.6964 -0.1814 -0.8897
 6120SOL     OW19800   2.759   1.895   9.216 -0.0395  0.2491  0.1136
 6120SOL    HW119801   2.664   1.904   9.202 -0.2789  0.7742  1.8560
 6120SOL    HW219802   2.796   1.893   9.128 -1.6878 -0.1848 -0.6024
 6121SOL     OW19803   7.849   1.549  12.312  0.6798  0.0760 -0.5917
 6121SOL    HW119804   7.827   1.518  12.225  2.7525 -0.3034 -1.0394
 6121SOL    HW219805   7.780   1.515  12.368 -2.3901  2.7665 -2.4075
 6122SOL     OW19806   7.018   5.404   3.445 -0.3359 -0.3684  0.4552
 6122SOL    HW119807   6.993   5.425   3.535 -0.7153  0.4226  0.1795
 6122SOL    HW219808   6.994   5.483   3.395 -1.1656 -1.2150 -0.5267
 6123SOL     OW19809   0.212   7.677   9.682  0.6287  0.3518  0.3780
 6123SOL    HW119810   0.122   7.705   9.702  0.9662  0.4824  1.7711
 6123SOL    HW219811   0.236   7.729   9.606 -0.9427 -0.6554 -0.8976
 6124SOL     OW19812   3.183   2.043   7.793  0.9831  0.0781 -0.3300
 6124SOL    HW119813   3.246   2.112   7.812 -0.3706  1.3505 -0.3098
 6124SOL    HW219814   3.097   2.083   7.807  0.0645 -0.8941 -2.5999
 6125SOL     OW19815   7.497   4.674   1.163  0.2181 -0.3681 -0.1076
 6125SOL    HW119816   7.514   4.730   1.238 -1.6096  1.0407 -0.6679
 6125SOL    HW219817   7.421   4.621   1.190  0.9992 -1.5497 -0.1400
 6126SOL     OW19818   3.375   4.643   6.301  0.6402  0.3565 -0.0287
 6126SOL    HW119819   3.364   4.707   6.230 -2.4196  1.6751  1.4803
 6126SOL    HW219820   3.293   4.594   6.302  1.5214 -1.1551  1.2187
 6127SOL     OW19821   3.471   2.114   8.519 -0.3120 -0.1285  0.0480
 6127SOL    HW119822   3.376   2.130   8.516 -0.3242  0.2105  1.5614
 6127SOL    HW219823   3.483   2.036   8.464 -1.4968 -0.3303  0.0307
 6128SOL     OW19824   7.043   7.056   3.412  0.2440  0.5799  0.8515
 6128SOL    HW119825   7.027   6.962   3.404 -1.7759  0.8056  1.7801
 6128SOL    HW219826   7.126   7.062   3.459  1.0507 -0.7077 -0.3412
 6129SOL     OW19827   2.926   5.601   6.577 -0.8474 -0.5600  0.2152
 6129SOL    HW119828   2.839   5.585   6.614 -0.6965 -0.2416  0.7105
 6129SOL    HW219829   2.930   5.544   6.500 -1.0897 -1.3782  0.7971
 6130SOL     OW19830   7.129   3.473   1.923 -0.1074 -0.1255 -0.0510
 6130SOL    HW119831   7.070   3.468   1.847  0.2460  0.7808 -0.4089
 6130SOL    HW219832   7.206   3.422   1.897  0.6592  1.3998 -0.9531
 6131SOL     OW19833   5.693   1.082   2.154 -0.1400  0.0366  0.5954
 6131SOL    HW119834   5.681   0.988   2.164 -1.6084  0.2036  0.6728
 6131SOL    HW219835   5.710   1.095   2.061  0.3331 -0.3134  0.6266
 6132SOL     OW19836   0.139   1.972   0.580  0.5903 -0.0594  0.0760
 6132SOL    HW119837   0.139   1.907   0.650  1.2088  1.5374  1.6464
 6132SOL    HW219838   0.209   1.944   0.521  1.1341 -0.5898  0.9571
 6133SOL     OW19839   5.589   5.592   0.102 -0.4802  0.0057  0.2481
 6133SOL    HW119840   5.652   5.624   0.167  0.8592 -1.0099 -0.5086
 6133SOL    HW219841   5.623   5.624   0.019 -1.7621  0.6391 -0.0575
 6134SOL     OW19842   1.918   6.215   6.736 -0.0274 -0.1565 -0.1157
 6134SOL    HW119843   1.946   6.280   6.800 -2.2171  0.8521 -0.0742
 6134SOL    HW219844   1.943   6.251   6.652 -0.6178  0.4234 -0.0489
 6135SOL     OW19845   6.766   4.084   2.484  0.3204  0.5119 -0.2143
 6135SOL    HW119846   6.840   4.137   2.457  0.5733  0.9011  1.1525
 6135SOL    HW219847   6.804   4.018   2.543 -0.5092  1.2467  1.1853
 6136SOL     OW19848   2.818   3.964   5.533 -0.7121  0.0410  0.2790
 6136SOL    HW119849   2.794   4.005   5.450  2.5689  1.9502  0.1101
 6136SOL    HW219850   2.829   3.871   5.511 -1.2912  0.2605 -1.0659
 6137SOL     OW19851   7.568   2.371   1.113  0.5138  0.1689 -0.3294
 6137SOL    HW119852   7.653   2.395   1.076  0.4283 -0.2459 -0.8099
 6137SOL    HW219853   7.567   2.413   1.198  1.4587 -0.3155 -0.0557
 6138SOL     OW19854   4.185   4.723   1.230 -0.0665 -0.5722 -0.3140
 6138SOL    HW119855   4.102   4.694   1.190 -0.2619  0.2993 -0.5643
 6138SOL    HW219856   4.246   4.725   1.156 -0.7610  2.3480 -0.9219
 6139SOL     OW19857   0.382   3.541  11.356 -0.1464  0.6110  0.2910
 6139SOL    HW119858   0.340   3.467  11.313 -2.6445  1.5280  1.0123
 6139SOL    HW219859   0.310   3.593  11.390  1.5673  2.8543  0.7007
 6140SOL     OW19860   3.961   3.987   6.851  0.0587  0.2929 -0.4427
 6140SOL    HW119861   4.036   3.930   6.832 -0.2412  0.2678 -1.6440
 6140SOL    HW219862   3.975   4.064   6.796 -0.3712  0.6574 -0.0450
 6141SOL     OW19863   1.223   2.866   8.795  0.0856 -0.5874 -0.3923
 6141SOL    HW119864   1.310   2.903   8.780  0.9151 -2.2164  0.1585
 6141SOL    HW219865   1.169   2.902   8.725  1.2494  0.2811 -0.8756
 6142SOL     OW19866   0.071   1.763  12.102 -0.3295  0.4501 -0.1373
 6142SOL    HW119867   0.070   1.856  12.125  0.8271  0.2316  0.9421
 6142SOL    HW219868   0.098   1.761  12.010  1.2161  1.1482  0.2580
 6143SOL     OW19869   1.004   1.486  10.953 -0.3710 -0.0340  0.1231
 6143SOL    HW119870   1.090   1.444  10.963  0.7219  1.4754 -2.0381
 6143SOL    HW219871   0.997   1.544  11.028  0.6812  0.0928  0.1422
 6144SOL     OW19872   3.963   0.505   3.126 -0.0640  0.8202  0.1196
 6144SOL    HW119873   3.970   0.427   3.071  0.3892  0.7525  0.2656
 6144SOL    HW219874   4.042   0.503   3.180  1.2319  2.6498 -1.5421
 6145SOL     OW19875   1.813   6.382   5.338 -0.2823  0.5121  0.8804
 6145SOL    HW119876   1.817   6.441   5.262  0.7733 -0.6478  0.0077
 6145SOL    HW219877   1.901   6.346   5.346 -0.8099 -0.6815  1.6195
 6146SOL     OW19878   2.928   5.186   5.306  0.3575  0.0052  0.2797
 6146SOL    HW119879   2.993   5.186   5.377  1.5196  1.7789 -0.6937
 6146SOL    HW219880   2.978   5.210   5.228 -0.4402 -3.9492 -1.6969
 6147SOL     OW19881   7.444   4.851  12.459 -0.3355 -0.1957 -0.0078
 6147SOL    HW119882   7.440   4.936  12.414 -0.3469 -1.1381 -1.8781
 6147SOL    HW219883   7.363   4.847  12.510 -0.8019  0.5202 -0.6595
 6148SOL     OW19884   5.724   1.323   3.291  0.1386  0.0275  0.1110
 6148SOL    HW119885   5.638   1.283   3.300 -0.1234  0.6453  0.3628
 6148SOL    HW219886   5.757   1.331   3.381  0.3817 -0.0335  0.0295
 6149SOL     OW19887   3.926   1.746   2.713 -0.0116  0.2639 -0.4003
 6149SOL    HW119888   3.912   1.833   2.750 -0.8231 -0.7632  1.8574
 6149SOL    HW219889   3.839   1.712   2.696  0.1809 -0.8414  0.6393
 6150SOL     OW19890   4.506   3.669   4.720 -0.4626 -0.1628 -0.5764
 6150SOL    HW119891   4.582   3.620   4.689 -0.2941  0.2150 -0.7624
 6150SOL    HW219892   4.431   3.622   4.683 -0.4864 -1.9696  1.5222
 6151SOL     OW19893   0.044   3.102   8.016  0.3745 -0.0601  0.2856
 6151SOL    HW119894   0.020   3.084   7.925 -1.6492 -0.0202  0.7711
 6151SOL    HW219895   0.060   3.196   8.018 -0.4775  0.0929  0.1522
 6152SOL     OW19896   6.044   3.072   2.528  0.7579 -0.2762  0.0381
 6152SOL    HW119897   6.001   3.108   2.606  0.3852 -0.9006  0.1288
 6152SOL    HW219898   6.005   3.119   2.455  0.7692 -0.0148  0.1991
 6153SOL     OW19899   0.337   0.174   6.123 -0.1444  0.2887  0.2982
 6153SOL    HW119900   0.422   0.177   6.078  0.3171 -0.9754  1.0418
 6153SOL    HW219901   0.341   0.095   6.176 -2.9367 -1.5798 -1.9419
 6154SOL     OW19902   6.366   1.482   7.520 -0.2342  0.1456 -0.2014
 6154SOL    HW119903   6.433   1.460   7.455 -0.1224  0.0881 -0.0687
 6154SOL    HW219904   6.322   1.399   7.538 -0.1829  0.1382 -0.1116
 6155SOL     OW19905   0.792   2.371   1.358 -0.4930  0.3847 -0.0608
 6155SOL    HW119906   0.840   2.407   1.283  2.7970 -0.8364  1.2626
 6155SOL    HW219907   0.783   2.278   1.337 -2.2799  0.5488 -0.1907
 6156SOL     OW19908   3.304   6.655   7.220  0.5673  0.0275  0.2306
 6156SOL    HW119909   3.208   6.658   7.225  0.3880 -0.8670 -1.6934
 6156SOL    HW219910   3.333   6.721   7.283 -1.3609  1.9757 -0.7932
 6157SOL     OW19911   2.880   2.236   0.718 -0.6632  0.0381 -0.0349
 6157SOL    HW119912   2.841   2.297   0.655 -0.4835 -0.1376 -0.3170
 6157SOL    HW219913   2.814   2.168   0.731  0.0755 -1.0252 -1.5893
 6158SOL     OW19914   4.086   2.500   3.333 -0.1273 -0.1989 -0.4607
 6158SOL    HW119915   4.010   2.557   3.321 -0.3980 -0.5103 -0.2433
 6158SOL    HW219916   4.050   2.420   3.370  0.4701  0.1221  0.8556
 6159SOL     OW19917   4.689   5.385   2.343  0.0442 -0.3297  0.3896
 6159SOL    HW119918   4.691   5.385   2.438  0.6768  0.5446  0.3872
 6159SOL    HW219919   4.597   5.377   2.320 -0.0519 -1.2409  1.0666
 6160SOL     OW19920   3.880   6.830  10.426 -0.1727 -0.4366  0.0995
 6160SOL    HW119921   3.832   6.847  10.507  1.0941 -0.1724  0.8096
 6160SOL    HW219922   3.926   6.748  10.441 -0.7999 -0.9667 -0.7777
 6161SOL     OW19923   6.119   1.195   3.208  0.0689 -0.1565 -0.1957
 6161SOL    HW119924   6.083   1.107   3.194  1.5310 -1.0518  1.3265
 6161SOL    HW219925   6.105   1.212   3.301 -1.4041  1.8306 -0.7267
 6162SOL     OW19926   3.735   0.351   7.329 -0.9271  0.0684  0.0623
 6162SOL    HW119927   3.808   0.329   7.387 -0.2075 -0.4382 -1.0049
 6162SOL    HW219928   3.721   0.272   7.277 -1.3451  0.6089 -0.6711
 6163SOL     OW19929   5.808   6.358   1.796 -0.1682 -0.5926  0.3672
 6163SOL    HW119930   5.783   6.423   1.861  0.7727  0.5598 -0.3860
 6163SOL    HW219931   5.742   6.367   1.727  0.6006  0.3898 -0.2627
 6164SOL     OW19932   3.467   5.471   9.012 -0.0216  0.0113 -0.0970
 6164SOL    HW119933   3.512   5.554   8.994 -2.6575  1.3950 -0.8757
 6164SOL    HW219934   3.507   5.439   9.093  0.1200  2.8434  1.0754
 6165SOL     OW19935   6.276   7.669  11.151  0.0289 -0.1601  0.0325
 6165SOL    HW119936   6.339   7.681  11.222  0.6451  0.1116 -0.5526
 6165SOL    HW219937   6.327   7.680  11.071 -0.8844  0.7377 -0.4557
 6166SOL     OW19938   4.118   2.978  10.065  0.0906  0.0347 -0.1606
 6166SOL    HW119939   4.142   2.940   9.981  0.4952  1.4023 -0.6840
 6166SOL    HW219940   4.028   3.009  10.053  0.5302  1.2520 -0.4857
 6167SOL     OW19941   6.622   3.591   0.950 -0.8584 -0.1979 -0.0773
 6167SOL    HW119942   6.559   3.573   0.880 -1.2810  0.7757  0.0256
 6167SOL    HW219943   6.578   3.561   1.030 -0.5797 -0.8576 -0.1676
 6168SOL     OW19944   2.300   4.275  10.750  0.2915  0.6485  0.5727
 6168SOL    HW119945   2.378   4.282  10.805  1.0256  0.4319 -0.3922
 6168SOL    HW219946   2.327   4.218  10.678 -0.2115  1.8967 -0.6701
 6169SOL     OW19947   1.627   6.887  11.456 -0.1096 -0.0098  0.1267
 6169SOL    HW119948   1.687   6.838  11.399 -0.8019  0.0258 -0.6567
 6169SOL    HW219949   1.582   6.948  11.397 -2.1611 -1.2107  0.3390
 6170SOL     OW19950   4.630   6.349   4.112  0.6570 -0.7416  0.4683
 6170SOL    HW119951   4.615   6.302   4.031 -0.8270 -1.9223  1.3711
 6170SOL    HW219952   4.723   6.370   4.111  0.6900 -0.8133 -1.4578
 6171SOL     OW19953   4.996   3.068   5.453 -0.3886  0.1734  0.3546
 6171SOL    HW119954   5.055   3.057   5.528  0.9431  0.0759 -0.6720
 6171SOL    HW219955   4.922   3.118   5.488  0.5914  0.8528  1.5431
 6172SOL     OW19956   0.585   7.406   9.847  0.8378  0.2326 -0.0697
 6172SOL    HW119957   0.647   7.425   9.917 -0.0382 -1.4535  1.2478
 6172SOL    HW219958   0.500   7.435   9.881  0.1763 -1.8429  0.2086
 6173SOL     OW19959   1.745   2.946   3.536 -0.2350  0.1635 -0.1620
 6173SOL    HW119960   1.748   3.003   3.459  2.1103 -0.7209 -0.8190
 6173SOL    HW219961   1.824   2.892   3.529 -0.1054 -0.1875  2.6939
 6174SOL     OW19962   4.247   5.147   2.620  0.0077 -0.0482 -0.3888
 6174SOL    HW119963   4.194   5.087   2.569 -0.0214  1.4767 -2.2719
 6174SOL    HW219964   4.337   5.118   2.607 -0.1460 -0.9914  0.5547
 6175SOL     OW19965   2.941   2.389   6.219 -0.0968 -0.1349  0.0373
 6175SOL    HW119966   2.862   2.360   6.174 -0.6847  1.8813 -0.3144
 6175SOL    HW219967   2.911   2.419   6.305  0.5667 -0.9804  0.5882
 6176SOL     OW19968   5.856   2.222   7.660 -0.3206  0.1746 -0.2785
 6176SOL    HW119969   5.932   2.244   7.605 -1.0228 -0.6813 -1.6729
 6176SOL    HW219970   5.889   2.157   7.721  0.1538  0.0323 -0.6760
 6177SOL     OW19971   1.592   2.265   7.585 -0.8126  0.0401 -0.1231
 6177SOL    HW119972   1.646   2.343   7.575 -1.7223  0.9136  1.3529
 6177SOL    HW219973   1.520   2.277   7.523 -1.5694  0.9777  0.8975
 6178SOL     OW19974   3.237   5.221  12.306  0.2327 -0.4102  0.2668
 6178SOL    HW119975   3.217   5.189  12.394 -0.2604 -1.9261 -0.3626
 6178SOL    HW219976   3.331   5.240  12.308  0.5432 -1.8424  0.7267
 6179SOL     OW19977   0.648   2.341   4.530 -0.2194  0.7910 -0.5615
 6179SOL    HW119978   0.739   2.322   4.552 -0.3574  0.4442 -0.2819
 6179SOL    HW219979   0.610   2.256   4.509 -0.5601  0.8945 -0.3746
 6180SOL     OW19980   5.054   6.207   9.475 -0.4680  0.1331 -0.6923
 6180SOL    HW119981   5.037   6.283   9.420 -0.5484  0.6419  0.0167
 6180SOL    HW219982   4.973   6.157   9.473 -0.1893 -0.3058 -1.7130
 6181SOL     OW19983   0.600   6.551   1.079  0.0837 -0.0066 -0.0627
 6181SOL    HW119984   0.660   6.625   1.063  1.5814 -1.4280 -1.4682
 6181SOL    HW219985   0.616   6.492   1.005 -1.2595 -1.6253  0.8803
 6182SOL     OW19986   7.547   2.392   6.300  0.0106  0.1562 -0.0078
 6182SOL    HW119987   7.568   2.388   6.393  0.0751 -0.5075 -0.0433
 6182SOL    HW219988   7.600   2.464   6.267  1.2654 -0.6417  0.1701
 6183SOL     OW19989   7.160   1.550   7.693  0.5641 -0.3091 -0.4884
 6183SOL    HW119990   7.225   1.510   7.750 -1.1028 -0.8840  1.0986
 6183SOL    HW219991   7.209   1.614   7.642  2.3995 -0.8856  0.4622
 6184SOL     OW19992   5.422   1.342   3.369  0.2572  0.3440 -0.0322
 6184SOL    HW119993   5.381   1.308   3.449 -1.7381 -0.5940 -1.3534
 6184SOL    HW219994   5.367   1.308   3.298  1.3750  1.9502 -1.7615
 6185SOL     OW19995   3.825   7.489   3.751  0.3951 -0.1575  0.0634
 6185SOL    HW119996   3.864   7.480   3.664 -1.2950 -0.4906 -0.6917
 6185SOL    HW219997   3.769   7.412   3.761  2.1598 -1.2983  2.3716
 6186SOL     OW19998   7.511   6.808   7.875  0.7765 -0.0578  0.0062
 6186SOL    HW119999   7.465   6.815   7.959  0.0945 -0.8987 -0.2771
 6186SOL    HW220000   7.481   6.884   7.826 -0.2275 -0.5089 -0.1164
 6187SOL     OW20001   3.499   3.683  10.471  0.0076 -0.0577  0.0757
 6187SOL    HW120002   3.408   3.709  10.481 -0.2213 -0.8398  0.0203
 6187SOL    HW220003   3.499   3.588  10.477  0.9049 -0.0348  0.7216
 6188SOL     OW20004   7.020   1.990  10.905 -0.3714  0.0489 -0.4379
 6188SOL    HW120005   7.041   1.916  10.848  2.4133 -0.4757  1.0801
 6188SOL    HW220006   7.061   2.065  10.862  1.7176 -0.3449  0.7746
 6189SOL     OW20007   7.214   7.252   2.514  0.1914  0.5355  0.4448
 6189SOL    HW120008   7.300   7.218   2.538  0.7770  0.6506 -1.3995
 6189SOL    HW220009   7.173   7.272   2.598  0.6590 -2.5751  1.5446
 6190SOL     OW20010   6.541   6.932   3.810  0.1326  0.2112 -0.1429
 6190SOL    HW120011   6.530   6.909   3.717  0.0454  0.9590 -0.3203
 6190SOL    HW220012   6.579   6.853   3.849  0.8600  0.1382 -0.9539
 6191SOL     OW20013   6.348   0.203  10.267  0.1858  0.2265 -0.3403
 6191SOL    HW120014   6.325   0.195  10.359 -1.9215 -0.3353 -0.8633
 6191SOL    HW220015   6.264   0.207  10.221  1.1419 -1.1189 -2.3639
 6192SOL     OW20016   3.176   6.421   9.953  0.2693 -0.2956  0.5289
 6192SOL    HW120017   3.151   6.414  10.045  0.3886 -0.4758  0.5473
 6192SOL    HW220018   3.129   6.351   9.909  0.2507 -0.2407  0.4617
 6193SOL     OW20019   2.969   1.247   2.428  0.0193 -0.3602 -0.9449
 6193SOL    HW120020   3.024   1.175   2.460 -0.0533 -0.9692 -2.1436
 6193SOL    HW220021   2.984   1.249   2.334 -0.7724  0.5354 -1.0687
 6194SOL     OW20022   5.931   2.998   7.060  0.0890  0.9753  0.3866
 6194SOL    HW120023   5.978   2.925   7.018 -0.2198  0.8902  0.1895
 6194SOL    HW220024   5.898   3.050   6.987  0.5029  1.4457  0.5244
 6195SOL     OW20025   7.776   4.805   0.276  0.0474  0.0491 -0.4428
 6195SOL    HW120026   7.823   4.746   0.334  1.2445  0.8683 -0.5365
 6195SOL    HW220027   7.783   4.765   0.190 -0.6876 -0.5593 -0.2268
 6196SOL     OW20028   5.479   0.238   4.083 -0.2353  0.5751  0.7583
 6196SOL    HW120029   5.426   0.177   4.134  0.6294 -0.8549  0.0254
 6196SOL    HW220030   5.559   0.188   4.062  0.4157  1.8970 -0.0327
 6197SOL     OW20031   0.578   0.123   6.029 -0.6010  0.2043 -0.5580
 6197SOL    HW120032   0.659   0.093   6.070  0.3676  2.6543 -0.5534
 6197SOL    HW220033   0.603   0.143   5.938 -1.5581 -0.3770 -0.9632
 6198SOL     OW20034   0.167   2.241   2.560 -0.3180  0.5477 -0.1611
 6198SOL    HW120035   0.204   2.295   2.631 -0.5793 -0.3161  0.6580
 6198SOL    HW220036   0.079   2.219   2.590  0.6331 -2.4185  0.7579
 6199SOL     OW20037   4.754   7.354   8.965 -0.0936 -0.0362 -0.0990
 6199SOL    HW120038   4.729   7.275   8.918  0.9939  0.6094 -1.8240
 6199SOL    HW220039   4.809   7.323   9.037 -1.3101 -0.9752  0.4833
 6200SOL     OW20040   7.208   2.235  10.447 -0.2245  0.0550  0.1556
 6200SOL    HW120041   7.247   2.200  10.367 -1.2267 -0.6187 -0.0589
 6200SOL    HW220042   7.138   2.293  10.416 -1.5274 -1.2681  0.5132
 6201SOL     OW20043   4.244   7.562   3.778  0.1134  0.2983  0.4339
 6201SOL    HW120044   4.238   7.657   3.778  0.7506  0.3464 -0.0132
 6201SOL    HW220045   4.326   7.543   3.825  1.1197  0.0769 -1.3261
 6202SOL     OW20046   7.719   5.570   1.519 -0.0128 -0.3569  0.7105
 6202SOL    HW120047   7.806   5.591   1.487 -0.4819  0.6069  0.0254
 6202SOL    HW220048   7.684   5.506   1.456 -0.1492 -0.0456  0.4715
 6203SOL     OW20049   5.520   1.790   1.247  1.0419  0.4349  0.1271
 6203SOL    HW120050   5.481   1.874   1.221  0.2763 -0.0126 -0.1989
 6203SOL    HW220051   5.614   1.808   1.252  0.7751  1.6792  1.4297
 6204SOL     OW20052   3.452   3.008   5.797  0.1284  0.1201 -0.1209
 6204SOL    HW120053   3.370   3.035   5.757  0.4292 -0.4688 -1.1512
 6204SOL    HW220054   3.479   3.084   5.848  1.1915  2.0740 -3.3015
 6205SOL     OW20055   1.814   1.226  11.458 -0.4471 -0.7864 -0.4340
 6205SOL    HW120056   1.869   1.164  11.505  1.1246 -1.4723 -3.0096
 6205SOL    HW220057   1.821   1.308  11.508  0.0804 -1.7898  1.1868
 6206SOL     OW20058   5.641   6.303   9.890  0.2622 -0.0985 -0.1971
 6206SOL    HW120059   5.690   6.373   9.933 -0.6276 -0.2419  1.1133
 6206SOL    HW220060   5.550   6.335   9.888 -0.0846 -1.0240  0.0268
 6207SOL     OW20061   2.878   4.476  11.831  0.3669  0.2453 -0.2405
 6207SOL    HW120062   2.914   4.395  11.867  0.8716  1.5249  2.4333
 6207SOL    HW220063   2.866   4.533  11.907 -3.4757  1.4295 -1.5040
 6208SOL     OW20064   5.844   1.135   5.255 -0.3822 -0.0266  0.1221
 6208SOL    HW120065   5.867   1.052   5.297 -2.2771 -1.0619 -0.7395
 6208SOL    HW220066   5.920   1.156   5.201  0.0224 -1.3624  0.1379
 6209SOL     OW20067   5.479   2.924   5.718  0.1791 -0.1572  0.7882
 6209SOL    HW120068   5.500   3.009   5.680 -0.7469  0.4187  1.5247
 6209SOL    HW220069   5.387   2.930   5.743  0.6579 -0.5540  2.9038
 6210SOL     OW20070   6.412   3.541  10.653 -0.2135 -0.1926  0.4876
 6210SOL    HW120071   6.380   3.612  10.598 -0.8997 -0.6327  0.3039
 6210SOL    HW220072   6.463   3.486  10.593  1.3757  0.7830  0.8877
 6211SOL     OW20073   4.192   6.728   6.916 -0.3819 -0.0453 -0.2067
 6211SOL    HW120074   4.182   6.763   7.004 -0.0788 -0.5000  0.0125
 6211SOL    HW220075   4.247   6.650   6.927 -1.0044 -0.5678 -0.6834
 6212SOL     OW20076   4.793   6.013   4.201 -0.1803  0.4730  0.3371
 6212SOL    HW120077   4.701   6.037   4.192 -0.3578 -0.6044 -1.0925
 6212SOL    HW220078   4.837   6.096   4.221 -0.9875  1.7924 -2.7526
 6213SOL     OW20079   7.133   6.232   7.225 -0.1977 -0.1213  0.4841
 6213SOL    HW120080   7.108   6.324   7.236  2.6589  0.8150 -0.1771
 6213SOL    HW220081   7.201   6.217   7.290  1.4590 -0.8683 -1.3434
 6214SOL     OW20082   5.089   6.878   4.645  0.4067 -0.2707 -0.4759
 6214SOL    HW120083   5.081   6.786   4.671 -1.9704 -0.0579 -0.2179
 6214SOL    HW220084   5.146   6.877   4.569  2.6325 -1.6187  1.1005
 6215SOL     OW20085   3.627   1.366   0.935 -0.4725  0.1713 -0.1399
 6215SOL    HW120086   3.635   1.271   0.946 -0.5693  0.0289 -1.2414
 6215SOL    HW220087   3.717   1.396   0.924 -0.1782  0.5525  2.5787
 6216SOL     OW20088   6.395   0.760   0.993 -0.1402 -0.3073 -0.3917
 6216SOL    HW120089   6.423   0.706   0.919  0.1377  1.0666 -1.3423
 6216SOL    HW220090   6.476   0.786   1.036 -0.3117 -1.2429  0.5208
 6217SOL     OW20091   1.518   4.785   3.691 -0.1491 -0.1384 -0.4037
 6217SOL    HW120092   1.570   4.710   3.719  0.2897 -0.1194 -1.1607
 6217SOL    HW220093   1.456   4.799   3.763  0.2440 -0.7670  0.0667
 6218SOL     OW20094   4.711   3.322   8.353  0.2425 -0.1312  0.4546
 6218SOL    HW120095   4.660   3.400   8.373  0.9337  0.0779  1.4956
 6218SOL    HW220096   4.663   3.251   8.396 -0.2453 -0.2493 -0.2723
 6219SOL     OW20097   3.372   6.921   3.210  0.2044  0.2962 -0.1358
 6219SOL    HW120098   3.393   6.958   3.124  0.7539 -0.4179 -0.3200
 6219SOL    HW220099   3.417   6.977   3.272  0.8787  0.0497 -0.3996
 6220SOL     OW20100   4.752   1.756   1.193 -0.2654  0.2843 -0.6382
 6220SOL    HW120101   4.674   1.711   1.161 -0.1256  0.1149 -0.7401
 6220SOL    HW220102   4.718   1.826   1.249 -0.5330  0.8436 -1.4772
 6221SOL     OW20103   6.829   2.061   8.618 -0.2278 -0.9414  0.0583
 6221SOL    HW120104   6.881   2.140   8.632  1.2679 -1.8900  0.1206
 6221SOL    HW220105   6.747   2.078   8.665  0.4643  0.1632  0.9421
 6222SOL     OW20106   2.031   3.703   4.608  0.1786 -0.2720 -0.4990
 6222SOL    HW120107   1.948   3.666   4.638 -0.2087  1.6759  1.0771
 6222SOL    HW220108   2.008   3.753   4.530 -0.0541 -0.1862 -0.3775
 6223SOL     OW20109   5.315   4.516   0.803 -0.3376  0.0986  0.0850
 6223SOL    HW120110   5.318   4.579   0.875 -0.1740  1.1230 -0.7925
 6223SOL    HW220111   5.222   4.506   0.784 -0.3287  1.6851 -1.0900
 6224SOL     OW20112   6.208   4.087   6.398  0.4624  0.2187  0.3579
 6224SOL    HW120113   6.181   4.179   6.404  1.1339  0.4173  0.4233
 6224SOL    HW220114   6.156   4.052   6.326 -1.0059  0.2103  1.3862
 6225SOL     OW20115   2.938   1.762   8.737  0.2025 -0.2936 -0.1162
 6225SOL    HW120116   3.012   1.741   8.793  0.0579  1.1513  0.6720
 6225SOL    HW220117   2.972   1.829   8.677  0.1980 -1.4021 -1.4037
 6226SOL     OW20118   1.999   7.120  10.569 -0.4631  0.0481  0.3775
 6226SOL    HW120119   1.954   7.187  10.518  0.3691  1.6018  1.5787
 6226SOL    HW220120   2.069   7.090  10.513 -0.1200  1.0696  0.2332
 6227SOL     OW20121   2.713   5.633   3.036  0.0529 -0.1665 -0.3612
 6227SOL    HW120122   2.718   5.588   3.120 -0.2568  0.3201 -0.0738
 6227SOL    HW220123   2.751   5.572   2.973 -0.0326 -0.6767  0.0769
 6228SOL     OW20124   4.633   6.920   4.659  0.1323  0.2092  0.0686
 6228SOL    HW120125   4.584   6.887   4.734  0.3086 -0.9108 -0.2923
 6228SOL    HW220126   4.566   6.960   4.603 -0.3002 -0.7749 -0.1353
 6229SOL     OW20127   3.313   2.413   8.159  0.1769  0.1770 -0.5107
 6229SOL    HW120128   3.372   2.469   8.211 -1.3478  0.4869  0.9545
 6229SOL    HW220129   3.323   2.446   8.070  3.2425 -0.6828 -0.6179
 6230SOL     OW20130   4.507   4.398   1.489 -0.0739 -0.5341 -0.2557
 6230SOL    HW120131   4.474   4.486   1.471 -0.4260 -0.2525  1.5359
 6230SOL    HW220132   4.448   4.363   1.556 -0.0034 -2.1870 -1.0031
 6231SOL     OW20133   5.855   5.634   4.483 -0.2073 -0.4630  0.8617
 6231SOL    HW120134   5.761   5.642   4.470  0.1606  0.5934 -1.9428
 6231SOL    HW220135   5.869   5.540   4.498 -1.6591 -0.7166  0.7523
 6232SOL     OW20136   1.313   6.412   5.796 -0.5351  0.3787  0.3592
 6232SOL    HW120137   1.347   6.342   5.852 -1.2843  0.6261  1.1397
 6232SOL    HW220138   1.231   6.377   5.763 -0.9152  0.8924  0.7579
 6233SOL     OW20139   0.704   5.362   3.449 -0.2738 -0.9502  0.7057
 6233SOL    HW120140   0.748   5.407   3.377  0.4011  0.4773  1.9455
 6233SOL    HW220141   0.611   5.384   3.437 -0.0878 -0.1487  0.6343
 6234SOL     OW20142   1.700   5.956   3.457  0.2287  0.5095  0.1253
 6234SOL    HW120143   1.787   5.985   3.433 -0.6596  3.5479  0.1476
 6234SOL    HW220144   1.709   5.921   3.546  1.2406  1.9180  0.6014
 6235SOL     OW20145   4.277   6.740  11.664 -0.0542 -0.3761 -0.0797
 6235SOL    HW120146   4.330   6.810  11.627  1.4765 -1.1979  0.4462
 6235SOL    HW220147   4.246   6.774  11.747 -0.0931 -0.0050 -0.2447
 6236SOL     OW20148   5.220   7.858   9.858  1.1170 -0.2545  0.5138
 6236SOL    HW120149   5.281   7.917   9.814 -1.3430  0.8533 -1.6806
 6236SOL    HW220150   5.203   7.901   9.942  0.1261  1.8042 -0.6384
 6237SOL     OW20151   2.838   7.495   6.143 -0.2473 -0.2483 -0.2134
 6237SOL    HW120152   2.828   7.419   6.086  1.7283  1.1500 -2.6517
 6237SOL    HW220153   2.760   7.494   6.198 -1.7591 -2.3640 -2.1744
 6238SOL     OW20154   0.996   3.937   7.253 -0.0041  0.0202  0.0872
 6238SOL    HW120155   0.959   3.996   7.187 -1.4322 -0.8853  0.0163
 6238SOL    HW220156   0.958   3.967   7.336  0.7174  0.3236  0.3111
 6239SOL     OW20157   0.464   0.038  10.515 -0.0695 -0.1980  0.3160
 6239SOL    HW120158   0.525  -0.032  10.534  0.6443  0.2283 -0.3512
 6239SOL    HW220159   0.411   0.005  10.443 -0.8782 -0.7017  1.1171
 6240SOL     OW20160   7.327   3.434  10.630 -0.3951  0.0822 -0.2652
 6240SOL    HW120161   7.400   3.486  10.664 -1.7686  1.2818  0.9458
 6240SOL    HW220162   7.254   3.495  10.624 -1.7299 -1.4152  0.0009
 6241SOL     OW20163   1.424   6.288  10.215 -0.0574  0.0311 -0.6451
 6241SOL    HW120164   1.335   6.306  10.185 -0.3554 -1.1137 -0.5107
 6241SOL    HW220165   1.468   6.252  10.138  0.8929  2.3402 -1.2626
 6242SOL     OW20166   2.802   6.410  11.351 -0.2117 -0.9567 -0.4601
 6242SOL    HW120167   2.726   6.425  11.295 -0.2445  1.7838  0.1590
 6242SOL    HW220168   2.765   6.388  11.437 -0.4282  1.1523  0.0486
 6243SOL     OW20169   1.222   2.061   0.283  0.3969  0.1331 -0.2110
 6243SOL    HW120170   1.216   1.973   0.246  0.3846 -0.1849  0.5299
 6243SOL    HW220171   1.316   2.079   0.287  0.4651 -0.3917  0.8728
 6244SOL     OW20172   2.642   4.760   9.519 -0.3132 -0.2867 -0.0110
 6244SOL    HW120173   2.631   4.761   9.424  2.0922 -0.5757 -0.3592
 6244SOL    HW220174   2.675   4.672   9.538 -0.6837 -0.1995  1.0974
 6245SOL     OW20175   0.726   3.931  12.432 -0.5122 -0.1717  0.0321
 6245SOL    HW120176   0.679   3.907  12.512 -1.1745 -2.6108 -1.0028
 6245SOL    HW220177   0.663   3.984  12.383 -0.2573  0.9632  0.8796
 6246SOL     OW20178   5.546   0.144   1.254  0.1534  0.0977 -0.1864
 6246SOL    HW120179   5.540   0.119   1.346  1.4211  1.0119  0.1754
 6246SOL    HW220180   5.605   0.079   1.215 -0.4997 -0.3764 -0.3988
 6247SOL     OW20181   7.716   2.532   1.330 -0.4573  0.5991  0.7347
 6247SOL    HW120182   7.795   2.485   1.301 -0.1358  1.5725 -0.0174
 6247SOL    HW220183   7.692   2.489   1.412 -0.1623 -0.8655  0.1008
 6248SOL     OW20184   5.064   5.654   4.455 -0.1262  0.2109  0.3014
 6248SOL    HW120185   5.015   5.592   4.509 -0.3348 -0.0525 -0.1799
 6248SOL    HW220186   5.141   5.675   4.507 -0.0730 -0.4268  0.4920
 6249SOL     OW20187   7.978   7.540   4.461 -0.2795 -0.2573 -0.2308
 6249SOL    HW120188   7.994   7.481   4.535 -1.6801 -2.3994 -1.5332
 6249SOL    HW220189   8.054   7.529   4.405  0.2358  0.4676  0.3174
 6250SOL     OW20190   6.089   1.562   8.433 -0.0674 -0.7024 -0.0526
 6250SOL    HW120191   6.082   1.551   8.528  0.1852  1.2498  0.2415
 6250SOL    HW220192   6.170   1.517   8.409  0.1442 -0.7565  0.7495
 6251SOL     OW20193   7.975   3.040   0.831  0.2652 -0.0243  0.1370
 6251SOL    HW120194   7.980   3.121   0.882 -1.0870 -0.6306  1.2950
 6251SOL    HW220195   7.966   3.070   0.740 -1.5856  1.1884  0.6584
 6252SOL     OW20196   7.702   5.986   7.056  0.2706  0.0189 -0.6918
 6252SOL    HW120197   7.635   6.022   7.113 -0.5812 -0.3950 -1.3988
 6252SOL    HW220198   7.769   5.953   7.115 -0.2319  0.2774  0.0358
 6253SOL     OW20199   1.694   5.336   6.557 -0.3311 -0.3192 -0.6178
 6253SOL    HW120200   1.616   5.385   6.532 -0.3272  0.8578  1.4349
 6253SOL    HW220201   1.704   5.270   6.489 -1.8334  0.9001 -2.1024
 6254SOL     OW20202   1.134   0.104   0.434  0.0121 -0.1913  0.2883
 6254SOL    HW120203   1.134   0.199   0.422 -2.0924 -0.2790 -0.7107
 6254SOL    HW220204   1.214   0.074   0.390  0.6200  1.0806  0.4977
 6255SOL     OW20205   3.392   0.469   2.123  0.2626 -0.7549  0.3142
 6255SOL    HW120206   3.486   0.470   2.140  0.4246 -1.5314 -0.4967
 6255SOL    HW220207   3.359   0.545   2.171  1.2391 -0.6969  0.9272
 6256SOL     OW20208   4.634   1.792  11.902 -0.6016 -0.0164 -0.3450
 6256SOL    HW120209   4.672   1.863  11.953  0.2441 -1.1171  0.6251
 6256SOL    HW220210   4.636   1.717  11.961 -1.3535 -0.8793 -1.3794
 6257SOL     OW20211   2.406   6.052   2.605 -0.1663 -0.5882  0.0915
 6257SOL    HW120212   2.427   6.067   2.513  0.3330 -0.2483  0.2550
 6257SOL    HW220213   2.346   6.124   2.628  1.5292  0.7334  0.6369
 6258SOL     OW20214   4.600   6.406   2.085 -0.1709  0.3689 -0.0108
 6258SOL    HW120215   4.619   6.312   2.090  2.4603  0.7080 -1.6226
 6258SOL    HW220216   4.528   6.412   2.023  0.2490 -0.5384 -0.6144
 6259SOL     OW20217   1.751   4.674   5.111  0.3057 -0.2086  0.3765
 6259SOL    HW120218   1.837   4.716   5.104  0.7548 -1.0059  0.9176
 6259SOL    HW220219   1.755   4.601   5.050 -0.2335  0.1366 -0.0795
 6260SOL     OW20220   3.259   0.651   6.609  0.2142 -0.1508  0.0735
 6260SOL    HW120221   3.232   0.742   6.616  1.0166  0.2591 -1.5974
 6260SOL    HW220222   3.177   0.601   6.604 -0.2311  0.5742  0.0537
 6261SOL     OW20223   2.665   2.982   3.721  0.4051 -0.2199  0.7815
 6261SOL    HW120224   2.655   2.900   3.673 -0.2186 -1.1964  2.5079
 6261SOL    HW220225   2.741   2.967   3.778  3.4808  2.1707 -2.2498
 6262SOL     OW20226   0.234   1.741   5.671  0.1463 -0.1140 -0.1900
 6262SOL    HW120227   0.209   1.824   5.629 -0.6419 -0.6562 -0.8255
 6262SOL    HW220228   0.159   1.718   5.726 -0.9635 -1.8417 -2.2477
 6263SOL     OW20229   6.392   4.633   6.033 -0.9377  0.3123 -0.4832
 6263SOL    HW120230   6.315   4.622   5.978 -2.7367 -1.2712  2.1301
 6263SOL    HW220231   6.464   4.601   5.979 -2.4041 -0.0917 -2.3048
 6264SOL     OW20232   1.677   4.262   6.940 -0.5136  0.0678  0.1397
 6264SOL    HW120233   1.705   4.308   6.861 -2.5160  0.4464 -0.4269
 6264SOL    HW220234   1.589   4.297   6.958 -0.3939 -0.5055  2.1447
 6265SOL     OW20235   2.352   6.710  10.647  0.0565 -0.8144 -0.0839
 6265SOL    HW120236   2.344   6.618  10.622 -1.6942 -0.3375 -1.4444
 6265SOL    HW220237   2.436   6.737  10.611 -1.2217 -0.8486 -3.3566
 6266SOL     OW20238   2.051   3.403   9.393  0.1836 -0.6133 -0.4312
 6266SOL    HW120239   1.956   3.394   9.391  0.2574 -2.1803 -3.9300
 6266SOL    HW220240   2.082   3.325   9.440 -0.1580  1.2734  3.3074
 6267SOL     OW20241   2.970   4.807   0.787 -0.3736 -0.2751  0.3420
 6267SOL    HW120242   2.977   4.712   0.798  0.0535 -0.4113 -0.9451
 6267SOL    HW220243   2.985   4.821   0.694 -0.6282  1.0469  0.4881
 6268SOL     OW20244   6.054   0.285   3.695  0.0756  0.5970  0.1607
 6268SOL    HW120245   6.062   0.378   3.719 -0.0013  0.2567  1.5592
 6268SOL    HW220246   6.051   0.239   3.778 -0.1385 -0.6565 -0.5231
 6269SOL     OW20247   0.912   6.087   6.840 -0.4129 -0.2181 -0.3069
 6269SOL    HW120248   0.870   6.172   6.855  0.1493  0.1704 -0.8614
 6269SOL    HW220249   0.971   6.076   6.915 -1.2221 -0.5946  0.2826
 6270SOL     OW20250   6.023   5.486   3.234  0.1413 -0.3236 -0.0333
 6270SOL    HW120251   5.959   5.558   3.227 -0.0428 -0.2867  1.6233
 6270SOL    HW220252   5.976   5.417   3.281  1.2246 -0.3724  1.0339
 6271SOL     OW20253   6.928   0.218   5.005 -0.4057  0.0471 -0.0506
 6271SOL    HW120254   6.884   0.272   5.071  0.7304 -1.8971  2.4681
 6271SOL    HW220255   6.984   0.160   5.056  0.8758 -1.2945 -2.8183
 6272SOL     OW20256   2.286   4.768   7.097  0.2566 -0.4285 -0.3964
 6272SOL    HW120257   2.275   4.728   7.010 -0.2825  0.7675 -0.9103
 6272SOL    HW220258   2.202   4.753   7.141  1.0486 -2.3911  0.5427
 6273SOL     OW20259   5.199   5.589   6.255  0.0925 -0.2223 -0.5100
 6273SOL    HW120260   5.212   5.510   6.202 -0.2432 -1.0872  0.6521
 6273SOL    HW220261   5.287   5.613   6.284  0.0032 -1.5086  0.9602
 6274SOL     OW20262   0.075   0.258   3.161  0.3305 -0.3546 -0.5562
 6274SOL    HW120263   0.016   0.192   3.196  0.7923  0.1318  1.2521
 6274SOL    HW220264   0.110   0.303   3.239  0.8815  1.2616 -1.6752
 6275SOL     OW20265   3.916   6.569   3.467  0.4986 -0.1339  0.0175
 6275SOL    HW120266   4.012   6.569   3.469  0.4990 -0.2076  0.0000
 6275SOL    HW220267   3.891   6.485   3.505  0.4513 -0.2870 -0.3424
 6276SOL     OW20268   3.790   2.811   7.719 -0.2598 -0.1658  0.1672
 6276SOL    HW120269   3.854   2.743   7.698 -0.6611 -0.4930 -0.0240
 6276SOL    HW220270   3.747   2.830   7.635 -0.7512 -0.3087  0.3786
 6277SOL     OW20271   7.949   4.634   7.983  0.5531 -0.4708 -0.3480
 6277SOL    HW120272   7.895   4.684   7.922 -0.9136  1.5843  2.4070
 6277SOL    HW220273   7.918   4.543   7.974 -1.6402  0.2458 -0.6694
 6278SOL     OW20274   5.958   5.871   6.729  0.0578 -0.2107 -0.2774
 6278SOL    HW120275   5.975   5.870   6.634  0.2333  1.2650 -0.2928
 6278SOL    HW220276   6.040   5.902   6.767  0.8653 -3.2075  0.6327
 6279SOL     OW20277   7.287   3.421   3.857 -0.3996 -0.6742 -0.3456
 6279SOL    HW120278   7.363   3.478   3.870 -0.4387 -0.7915  0.4505
 6279SOL    HW220279   7.212   3.479   3.866 -0.4115 -0.5888 -0.9696
 6280SOL     OW20280   5.809   2.142   3.298  0.4854 -0.1543 -0.5526
 6280SOL    HW120281   5.716   2.162   3.288 -0.0372 -1.0913  1.7634
 6280SOL    HW220282   5.828   2.079   3.228 -0.1802  1.1945 -2.0038
 6281SOL     OW20283   0.945   5.501   2.020  0.5932 -0.2101  0.6893
 6281SOL    HW120284   0.888   5.545   2.082 -0.3160 -2.9379  1.9637
 6281SOL    HW220285   0.915   5.530   1.934 -1.2519  0.1122  1.4098
 6282SOL     OW20286   7.205   1.984   0.320 -0.1363  0.0039  0.4976
 6282SOL    HW120287   7.168   1.924   0.384 -0.3585  1.2845  1.6017
 6282SOL    HW220288   7.260   1.928   0.264  0.0151 -1.1438  1.7461
 6283SOL     OW20289   1.898   1.947   7.308  0.1853  0.0706 -0.3753
 6283SOL    HW120290   1.899   1.875   7.245  0.9157 -0.8131  0.6052
 6283SOL    HW220291   1.806   1.954   7.335 -0.0928  0.3160 -1.3554
 6284SOL     OW20292   0.965   6.108   9.762  0.5091  0.0442 -0.3329
 6284SOL    HW120293   0.904   6.105   9.689  3.2305  0.1641 -2.7681
 6284SOL    HW220294   0.974   6.017   9.790 -0.9426  0.0600  0.3170
 6285SOL     OW20295   2.671   3.842   9.675  0.3482 -0.0287  0.0765
 6285SOL    HW120296   2.757   3.882   9.688  1.2489 -1.4901 -0.9662
 6285SOL    HW220297   2.628   3.898   9.610  1.3985 -0.4378 -1.0136
 6286SOL     OW20298   7.971   3.276   1.369  0.0505  0.2152  0.7523
 6286SOL    HW120299   8.055   3.319   1.352 -0.0156 -0.0851 -0.4510
 6286SOL    HW220300   7.960   3.216   1.295 -0.7756 -0.4446  1.3992
 6287SOL     OW20301   4.167   0.659  12.456  0.2084  0.5739  0.6247
 6287SOL    HW120302   4.145   0.567  12.442  0.4660  0.7421 -1.1727
 6287SOL    HW220303   4.158   0.699  12.369 -1.6143  2.6371  1.6631
 6288SOL     OW20304   6.211   1.385   4.288 -0.1838  0.2742 -0.4927
 6288SOL    HW120305   6.241   1.463   4.243 -1.5872 -0.0381 -2.0772
 6288SOL    HW220306   6.125   1.409   4.323  0.5932  0.3012  1.5507
 6289SOL     OW20307   0.324   1.999   7.193 -0.1008 -0.7054  0.5941
 6289SOL    HW120308   0.347   1.997   7.286  0.7165  2.7175  0.6066
 6289SOL    HW220309   0.237   2.037   7.190  0.0357 -0.4289 -0.0463
 6290SOL     OW20310   4.507   0.043   0.324 -0.0478  0.6890  0.1948
 6290SOL    HW120311   4.515  -0.040   0.371  0.5602 -0.1539 -1.3133
 6290SOL    HW220312   4.412   0.056   0.316 -0.1516  0.5006  1.0464
 6291SOL     OW20313   2.979   0.084   7.363  0.0107  0.0619  0.0022
 6291SOL    HW120314   3.048   0.132   7.317  0.4110 -1.1983 -0.7662
 6291SOL    HW220315   2.914   0.064   7.295  0.4570 -1.5458  0.0060
 6292SOL     OW20316   7.370   1.522   8.049 -0.0944 -0.1904  0.2965
 6292SOL    HW120317   7.290   1.520   8.101 -1.4246  1.8847 -1.4889
 6292SOL    HW220318   7.383   1.615   8.029  1.5144 -0.7043 -1.3081
 6293SOL     OW20319   2.734   6.765   5.925 -0.6398  0.3559 -0.3614
 6293SOL    HW120320   2.753   6.854   5.956  1.1404  0.0507 -0.4645
 6293SOL    HW220321   2.813   6.739   5.877 -2.5958  0.1390 -3.7289
 6294SOL     OW20322   1.544   1.071   5.869  0.3709  0.1415 -0.4069
 6294SOL    HW120323   1.505   1.139   5.924  0.5182  1.5624 -1.9880
 6294SOL    HW220324   1.602   1.023   5.928 -2.3588 -0.9570  1.6088
 6295SOL     OW20325   6.570   3.555   6.494 -0.2204 -0.2129  0.5259
 6295SOL    HW120326   6.565   3.531   6.587 -0.7365 -0.7759  0.3645
 6295SOL    HW220327   6.630   3.491   6.456  0.3279  0.2813  0.5442
 6296SOL     OW20328   2.508   4.172   4.394  0.3001 -0.1014 -0.1497
 6296SOL    HW120329   2.517   4.122   4.314  1.2415  0.0703 -0.1631
 6296SOL    HW220330   2.590   4.157   4.441 -0.5228 -0.7810  1.1199
 6297SOL     OW20331   1.657   6.331   3.630 -0.1653  0.4652 -0.4240
 6297SOL    HW120332   1.741   6.289   3.649  0.4953  1.9838  0.1729
 6297SOL    HW220333   1.611   6.334   3.714 -0.4433  0.4404 -0.5721
 6298SOL     OW20334   4.625   5.098   8.764  0.0452 -0.0539  0.1822
 6298SOL    HW120335   4.569   5.045   8.820  0.5082 -0.9443 -0.1626
 6298SOL    HW220336   4.647   5.039   8.691  0.8978  0.4858 -0.0089
 6299SOL     OW20337   2.358   3.777   9.912 -0.0530  0.0071 -0.1972
 6299SOL    HW120338   2.288   3.784   9.847  0.1631 -1.1931 -0.5874
 6299SOL    HW220339   2.436   3.807   9.867  0.1094 -0.8890 -0.5270
 6300SOL     OW20340   4.917   0.076   3.549 -0.2489 -0.1113  0.1879
 6300SOL    HW120341   4.947  -0.014   3.561  0.2997  0.0220 -0.1271
 6300SOL    HW220342   4.964   0.126   3.615 -1.0679 -0.1542  0.8129
 6301SOL     OW20343   2.332   6.240  10.455 -0.6443 -0.0806  0.5891
 6301SOL    HW120344   2.261   6.188  10.490 -0.6051  0.1552  1.0190
 6301SOL    HW220345   2.394   6.176  10.420 -0.7184 -0.3096  0.8819
 6302SOL     OW20346   7.928   0.579  11.564 -0.2174 -0.2135 -0.1095
 6302SOL    HW120347   7.887   0.595  11.649  0.5287 -0.4667  0.3014
 6302SOL    HW220348   7.902   0.654  11.510  0.5450  0.7106  0.7896
 6303SOL     OW20349   6.338   0.286  11.666  0.2044  0.1800 -0.3424
 6303SOL    HW120350   6.402   0.223  11.631 -0.6768 -0.4597 -0.8486
 6303SOL    HW220351   6.271   0.292  11.598 -0.7629  0.1061  0.5769
 6304SOL     OW20352   4.613   0.219  10.049 -0.0568  0.0934 -0.2112
 6304SOL    HW120353   4.631   0.161   9.975 -0.4167  0.5509 -0.6607
 6304SOL    HW220354   4.700   0.249  10.077  0.1054 -0.3709 -0.2075
 6305SOL     OW20355   1.667   5.041   1.517 -0.1581 -0.6416  0.0281
 6305SOL    HW120356   1.682   4.988   1.439 -3.0510  0.2416 -1.2613
 6305SOL    HW220357   1.584   5.009   1.552 -0.2270  0.7361  1.2240
 6306SOL     OW20358   4.945   3.357   9.820  0.4996  0.0719  0.1538
 6306SOL    HW120359   5.025   3.362   9.873  0.7973 -0.5202 -0.2260
 6306SOL    HW220360   4.900   3.440   9.837  0.6146 -0.0800  1.2857
 6307SOL     OW20361   3.937   7.579   2.516  0.0127 -0.1527 -0.4384
 6307SOL    HW120362   3.940   7.674   2.505 -0.8612  0.0467  0.7612
 6307SOL    HW220363   3.847   7.555   2.493 -0.2872 -0.4227  0.9134
 6308SOL     OW20364   7.384   2.462   4.510  0.5940 -0.0452  0.1193
 6308SOL    HW120365   7.411   2.372   4.494  0.0283 -0.1426 -0.3333
 6308SOL    HW220366   7.395   2.506   4.426 -0.2371  0.0109  0.0273
 6309SOL     OW20367   6.037   3.020   3.916 -0.2587  0.0387  0.0417
 6309SOL    HW120368   6.130   3.041   3.926 -0.2562  0.4277 -0.7036
 6309SOL    HW220369   5.991   3.101   3.936 -0.2348  0.9557 -3.0840
 6310SOL     OW20370   1.683   7.445   4.300 -0.3515  0.4819  0.0317
 6310SOL    HW120371   1.685   7.541   4.293 -0.1752  0.6304  1.7235
 6310SOL    HW220372   1.639   7.428   4.384  1.7548 -0.8301  0.9386
 6311SOL     OW20373   0.551   7.138   6.466 -0.2179  0.1595  0.5053
 6311SOL    HW120374   0.544   7.048   6.498 -0.7887 -0.5459 -1.4947
 6311SOL    HW220375   0.502   7.190   6.530 -0.7881 -1.0909  1.1151
 6312SOL     OW20376   3.158   4.698   3.581 -0.4821 -0.0137 -0.0574
 6312SOL    HW120377   3.092   4.686   3.514 -0.9389  0.7641  0.2450
 6312SOL    HW220378   3.202   4.780   3.558 -0.3342  0.0219  0.3340
 6313SOL     OW20379   7.685   7.896  10.517 -0.1789 -0.0645  0.1282
 6313SOL    HW120380   7.690   7.928  10.607  1.2799  0.9598 -0.2839
 6313SOL    HW220381   7.724   7.809  10.520 -0.7930 -0.3360  0.5885
 6314SOL     OW20382   5.964   1.527   3.655  0.1824 -0.0956 -0.2567
 6314SOL    HW120383   6.055   1.528   3.625 -0.0017 -3.4235 -1.2549
 6314SOL    HW220384   5.912   1.505   3.578 -1.4089  0.8850  0.4740
 6315SOL     OW20385   1.363   2.916  10.411 -0.0586 -0.3474  0.2657
 6315SOL    HW120386   1.268   2.925  10.412 -0.1347 -0.9355 -0.4373
 6315SOL    HW220387   1.397   3.003  10.431 -0.7266  0.6557 -2.6116
 6316SOL     OW20388   7.805   3.155   5.761 -0.6984  0.1667  0.0621
 6316SOL    HW120389   7.736   3.188   5.818 -1.0730  0.9996 -0.8396
 6316SOL    HW220390   7.778   3.065   5.740 -1.3744  0.3886 -0.0558
 6317SOL     OW20391   4.074   7.235   0.894 -0.4043 -0.2093  0.1823
 6317SOL    HW120392   4.009   7.300   0.868  0.2412  0.2896 -0.2297
 6317SOL    HW220393   4.128   7.223   0.816  0.7658  0.3273  0.8809
 6318SOL     OW20394   2.425   4.329   3.008 -0.4021  0.4510 -0.3187
 6318SOL    HW120395   2.429   4.312   3.102  1.3998  0.7009 -0.3278
 6318SOL    HW220396   2.395   4.419   3.001 -0.4533  0.4622  0.0214
 6319SOL     OW20397   0.215   7.735   8.473 -0.0302 -0.6754  0.3376
 6319SOL    HW120398   0.267   7.657   8.493  0.1553 -0.5343  0.4111
 6319SOL    HW220399   0.129   7.717   8.512  0.4011 -0.2996  1.5034
 6320SOL     OW20400   4.772   6.644   6.796 -0.0142  0.5413  0.7239
 6320SOL    HW120401   4.784   6.551   6.778  0.0265  0.5723  0.5869
 6320SOL    HW220402   4.713   6.674   6.726 -0.1660  0.5808  0.8692
 6321SOL     OW20403   2.446   1.489   0.032 -0.0053  0.6598 -0.2393
 6321SOL    HW120404   2.364   1.440   0.017 -0.3894  1.2404 -0.0611
 6321SOL    HW220405   2.422   1.556   0.096  1.3125 -1.0765  2.2853
 6322SOL     OW20406   2.057   5.155   7.786 -0.2983  0.0688 -0.1030
 6322SOL    HW120407   2.111   5.145   7.707 -0.1916  0.1657 -0.0423
 6322SOL    HW220408   1.973   5.186   7.754  0.1153  1.2852 -0.0727
 6323SOL     OW20409   5.289   6.567   8.908 -0.0817  0.0702  0.4443
 6323SOL    HW120410   5.227   6.604   8.845  1.9135 -0.0530 -1.7331
 6323SOL    HW220411   5.250   6.484   8.935 -1.8104  0.9405  0.8221
 6324SOL     OW20412   7.734   1.412   8.502 -0.7106  0.6500  0.2757
 6324SOL    HW120413   7.679   1.487   8.477 -0.7437  0.1600 -1.2303
 6324SOL    HW220414   7.777   1.386   8.421 -2.2878 -2.2503  0.2194
 6325SOL     OW20415   0.082   0.701   4.042  0.3244  0.0077 -0.1412
 6325SOL    HW120416  -0.011   0.726   4.042  0.3854  0.2912  1.0771
 6325SOL    HW220417   0.088   0.632   4.108  0.0747 -3.7820 -3.6487
 6326SOL     OW20418   3.221   6.046   9.048 -0.2469 -0.3500  0.2906
 6326SOL    HW120419   3.222   6.076   8.957 -3.5364  0.9727  0.5655
 6326SOL    HW220420   3.265   6.115   9.097 -0.0376 -0.2107 -0.0928
 6327SOL     OW20421   3.925   5.774   4.799 -0.7624  0.4016  0.3368
 6327SOL    HW120422   3.940   5.803   4.709  0.2276  0.2179  0.4312
 6327SOL    HW220423   3.927   5.679   4.795  2.1063  0.3226  0.9273
 6328SOL     OW20424   5.756   5.787   8.333 -0.0036 -0.1868  0.2435
 6328SOL    HW120425   5.843   5.767   8.369 -0.3387  0.5388  1.4980
 6328SOL    HW220426   5.701   5.715   8.363  0.3555 -1.2117 -1.4357
 6329SOL     OW20427   3.772   3.105   9.324 -0.1043 -0.7258  0.1104
 6329SOL    HW120428   3.691   3.064   9.355 -1.0914  0.5272 -0.7065
 6329SOL    HW220429   3.771   3.193   9.363  1.2974 -0.9712  0.7608
 6330SOL     OW20430   7.200   4.285   7.726  0.1547  0.2967  0.0302
 6330SOL    HW120431   7.162   4.369   7.698  1.4348  0.5006 -1.2430
 6330SOL    HW220432   7.213   4.237   7.644 -1.7914 -1.7542  0.8321
 6331SOL     OW20433   1.592   2.586   6.491 -0.0260 -0.4827  0.1675
 6331SOL    HW120434   1.652   2.515   6.468  0.8827  0.4656 -0.5264
 6331SOL    HW220435   1.587   2.584   6.586  0.3116 -1.2131  0.1775
 6332SOL     OW20436   3.544   4.944   5.036 -0.2223 -0.2098  0.0391
 6332SOL    HW120437   3.541   4.874   4.971 -1.0180  0.4097 -0.6022
 6332SOL    HW220438   3.590   4.905   5.111 -1.4938 -1.7487  0.0741
 6333SOL     OW20439   0.309   7.134  12.288 -0.1779 -0.0418  0.0294
 6333SOL    HW120440   0.331   7.227  12.295  0.7485 -0.0451 -2.1875
 6333SOL    HW220441   0.393   7.089  12.290 -0.5076 -0.6990 -0.5908
 6334SOL     OW20442   4.933   3.026   1.460  0.3703  0.0339  0.1369
 6334SOL    HW120443   4.997   3.039   1.390  0.7158  0.5405  0.5465
 6334SOL    HW220444   4.949   3.097   1.522 -0.7929  0.3509  0.1018
 6335SOL     OW20445   3.644   0.490   2.149 -0.2329  0.6966 -0.3488
 6335SOL    HW120446   3.719   0.432   2.135 -0.8965 -0.1347 -0.5263
 6335SOL    HW220447   3.675   0.554   2.213  0.3358 -0.1966  0.2923
 6336SOL     OW20448   7.678   4.709   0.036 -0.7695  0.1792  0.1067
 6336SOL    HW120449   7.653   4.621   0.011 -0.0774  0.1089 -0.3486
 6336SOL    HW220450   7.601   4.763   0.018 -0.8200 -0.1441 -0.6618
 6337SOL     OW20451   5.717   6.729  12.127  0.1936 -0.1194  0.2172
 6337SOL    HW120452   5.719   6.635  12.147 -0.0501  0.0091  0.8876
 6337SOL    HW220453   5.803   6.761  12.153 -0.4337  0.2171  2.0147
 6338SOL     OW20454   3.988   6.997   3.438  0.5861 -0.3492  0.4696
 6338SOL    HW120455   3.969   7.052   3.514 -0.6614  0.7153 -0.5622
 6338SOL    HW220456   3.937   6.917   3.452  1.3257 -0.6924  1.3107
 6339SOL     OW20457   3.239   4.703   3.974 -0.2699  0.0007 -0.0235
 6339SOL    HW120458   3.238   4.675   4.065  1.0441  0.4303  0.1507
 6339SOL    HW220459   3.308   4.769   3.970 -1.5150  1.3244 -0.9540
 6340SOL     OW20460   7.260   1.929   5.560  0.2606  0.3131  0.0955
 6340SOL    HW120461   7.345   1.901   5.527 -0.9212 -1.7925 -1.4024
 6340SOL    HW220462   7.257   2.023   5.543  2.5272  0.6057  0.8846
 6341SOL     OW20463   1.244   7.152   8.495 -0.3683  0.2478 -0.1256
 6341SOL    HW120464   1.175   7.193   8.549 -1.3399 -0.5988 -0.7008
 6341SOL    HW220465   1.280   7.224   8.444 -0.3243  0.8311  0.7034
 6342SOL     OW20466   7.743   4.407   1.924 -0.2521  0.3989  0.0679
 6342SOL    HW120467   7.820   4.414   1.867  0.3538  1.7975  1.0024
 6342SOL    HW220468   7.750   4.320   1.963 -0.0541 -0.1296 -1.0908
 6343SOL     OW20469   4.527   5.086   2.620  0.5411 -0.0596  0.0571
 6343SOL    HW120470   4.608   5.035   2.629  1.1382  0.9998  0.8528
 6343SOL    HW220471   4.483   5.076   2.705  0.0903 -0.1876 -0.1869
 6344SOL     OW20472   7.788   2.797   4.282  0.0671 -0.2634 -0.0533
 6344SOL    HW120473   7.720   2.772   4.219  1.6637 -1.3584 -1.4474
 6344SOL    HW220474   7.865   2.746   4.255  1.2350  0.3654  1.9115
 6345SOL     OW20475   1.706   6.450   1.191  0.4515  0.3657 -0.1536
 6345SOL    HW120476   1.729   6.486   1.277  1.3547 -0.0559 -0.2100
 6345SOL    HW220477   1.675   6.526   1.141 -1.6905  0.3776  1.0349
 6346SOL     OW20478   2.705   7.284   3.421 -0.1833  0.1443  0.0200
 6346SOL    HW120479   2.722   7.345   3.493 -1.4288  0.8949 -0.2955
 6346SOL    HW220480   2.758   7.317   3.349 -0.6041  0.6846 -0.0513
 6347SOL     OW20481   4.142   0.685  11.884  0.0577  0.3679 -0.1695
 6347SOL    HW120482   4.153   0.592  11.902 -1.0623  0.0726 -0.8945
 6347SOL    HW220483   4.192   0.729  11.952  1.3017 -0.7634 -0.3108
 6348SOL     OW20484   7.894   3.838   6.662 -0.1072  0.1329 -0.0750
 6348SOL    HW120485   7.869   3.898   6.732 -1.0705 -0.0875 -0.2121
 6348SOL    HW220486   7.920   3.758   6.707 -2.0620 -0.4983  0.0266
 6349SOL     OW20487   0.763   1.130   5.495  0.4309 -0.3075 -0.0879
 6349SOL    HW120488   0.827   1.101   5.560  0.2282  1.0465  0.7456
 6349SOL    HW220489   0.791   1.218   5.472 -1.4721  0.5510  0.7452
 6350SOL     OW20490   3.931   1.419   5.129  0.0283  0.0902  0.1790
 6350SOL    HW120491   4.015   1.425   5.176 -0.9615  0.3777  1.9899
 6350SOL    HW220492   3.909   1.509   5.107  0.1984  0.0112 -0.3295
 6351SOL     OW20493   2.833   4.594   7.727 -0.1448  0.3383 -0.3767
 6351SOL    HW120494   2.854   4.629   7.814 -0.0696  0.0584 -0.2790
 6351SOL    HW220495   2.820   4.671   7.673 -0.5871  0.5156 -0.0229
 6352SOL     OW20496   3.948   5.707  10.150  0.1959 -0.0894 -0.4962
 6352SOL    HW120497   3.883   5.754  10.098 -1.5225 -0.8018  0.8579
 6352SOL    HW220498   3.898   5.634  10.188  1.6303 -0.2554  1.1711
 6353SOL     OW20499   6.939   7.205   3.066  0.3060 -0.4189 -0.6269
 6353SOL    HW120500   6.930   7.258   2.986 -1.3598 -0.5348 -0.5490
 6353SOL    HW220501   7.006   7.141   3.044  0.0232 -0.3153 -1.8720
 6354SOL     OW20502   2.494   5.806  12.105  0.0401 -0.2214  0.2002
 6354SOL    HW120503   2.480   5.729  12.160 -1.2827 -0.5464 -0.5564
 6354SOL    HW220504   2.514   5.876  12.168 -1.2065 -0.6277  1.1057
 6355SOL     OW20505   7.442   2.773   9.539 -0.0305 -0.3756 -0.0246
 6355SOL    HW120506   7.511   2.764   9.472 -1.7000 -1.3620 -1.7044
 6355SOL    HW220507   7.448   2.693   9.590 -0.3228 -0.7658 -0.5865
 6356SOL     OW20508   0.845   7.623  10.672  0.5275 -0.4609  1.1039
 6356SOL    HW120509   0.914   7.677  10.634 -1.7314  0.7919 -1.6020
 6356SOL    HW220510   0.882   7.535  10.673  1.1446 -0.5178 -3.6235
 6357SOL     OW20511   5.916   5.279   1.016  0.2018 -0.1217  0.4269
 6357SOL    HW120512   6.002   5.321   1.016 -0.0205  0.4364 -1.2622
 6357SOL    HW220513   5.904   5.247   1.105  2.7472 -1.4352  0.3654
 6358SOL     OW20514   1.361   5.821   9.063 -0.4789 -0.0647 -0.0884
 6358SOL    HW120515   1.335   5.744   9.012  0.1779  0.5692 -1.4324
 6358SOL    HW220516   1.357   5.792   9.154 -0.1291 -1.7254 -0.5684
 6359SOL     OW20517   1.697   3.264   8.855 -0.2645  0.0819  0.6451
 6359SOL    HW120518   1.791   3.275   8.865  0.1375 -1.8452 -0.4799
 6359SOL    HW220519   1.678   3.299   8.768  0.0086 -2.2540 -0.4348
 6360SOL     OW20520   7.825   0.996  12.438 -0.1971 -0.3249 -0.1545
 6360SOL    HW120521   7.762   0.925  12.454  0.1914 -0.8855 -1.0714
 6360SOL    HW220522   7.864   1.012  12.524  2.0426 -3.4637 -0.4269
 6361SOL     OW20523   5.749   5.198  11.161  0.1175 -0.4709 -0.0093
 6361SOL    HW120524   5.681   5.210  11.095  0.1400  0.5118  0.1344
 6361SOL    HW220525   5.804   5.128  11.126 -0.0131 -0.1270 -0.9146
 6362SOL     OW20526   5.198   3.802   6.781 -0.2352  0.0589  0.2029
 6362SOL    HW120527   5.120   3.753   6.757  0.3564 -0.8656  0.0984
 6362SOL    HW220528   5.165   3.884   6.818 -1.2351 -0.1703 -0.1581
 6363SOL     OW20529   4.611   4.128   1.164  0.0257  0.7601 -0.1307
 6363SOL    HW120530   4.617   4.042   1.206  0.9745  0.9787  0.2054
 6363SOL    HW220531   4.653   4.116   1.078 -0.6539  0.6668 -0.4554
 6364SOL     OW20532   2.675   4.545   7.020  0.1248  0.2967 -0.0960
 6364SOL    HW120533   2.709   4.619   6.969  0.0674  0.9639  0.8063
 6364SOL    HW220534   2.599   4.580   7.065  0.7719  0.0415  1.2545
 6365SOL     OW20535   1.128   5.985   1.547 -0.2500  0.7227 -0.9288
 6365SOL    HW120536   1.084   5.912   1.504  0.5423  0.1508 -0.7851
 6365SOL    HW220537   1.218   5.982   1.514  1.0684 -1.1087  2.2769
 6366SOL     OW20538   5.244   3.743   2.421 -0.0441  0.1115  0.3888
 6366SOL    HW120539   5.252   3.728   2.515  2.2863  1.2265  0.4259
 6366SOL    HW220540   5.217   3.834   2.413 -2.2927 -0.5373 -0.0418
 6367SOL     OW20541   2.363   0.039   1.401  0.1683 -0.2445  0.4097
 6367SOL    HW120542   2.304  -0.015   1.453  1.6996 -1.4017  1.0134
 6367SOL    HW220543   2.372  -0.008   1.319  1.8675 -1.2264  1.1077
 6368SOL     OW20544   7.499   2.045  10.119 -0.0374 -0.3341 -0.0819
 6368SOL    HW120545   7.538   1.962  10.093  0.2959  0.2157 -1.3979
 6368SOL    HW220546   7.572   2.097  10.152  0.0551  0.0568 -0.8874
 6369SOL     OW20547   4.598   6.261   9.188  0.2407 -0.0055  0.0940
 6369SOL    HW120548   4.661   6.213   9.135 -0.5465 -1.0417  0.0672
 6369SOL    HW220549   4.630   6.351   9.188  1.7898 -0.5304  0.1968
 6370SOL     OW20550   5.357   6.552   1.820 -0.0546  0.9014  0.4236
 6370SOL    HW120551   5.436   6.577   1.773  0.4739  0.7452  1.2016
 6370SOL    HW220552   5.326   6.633   1.860 -0.0746  0.8929  0.4255
 6371SOL     OW20553   4.788   2.712   2.481  0.0148 -0.0239 -0.2156
 6371SOL    HW120554   4.790   2.617   2.469  1.2919  0.0292 -0.6136
 6371SOL    HW220555   4.861   2.745   2.427  0.2314  1.0833  0.7060
 6372SOL     OW20556   5.222   1.802   8.590 -0.0750  0.0515 -0.2890
 6372SOL    HW120557   5.225   1.811   8.495 -1.5033  0.4812 -0.3163
 6372SOL    HW220558   5.129   1.792   8.610  0.2372 -0.3977  1.0380
 6373SOL     OW20559   2.515   4.593   8.778  0.5728  0.1154  0.0810
 6373SOL    HW120560   2.525   4.601   8.683 -2.5929 -1.2753 -0.5161
 6373SOL    HW220561   2.443   4.653   8.799 -0.5490 -1.5327  1.1102
 6374SOL     OW20562   0.776   3.508  10.095 -0.2096 -0.2417  0.2604
 6374SOL    HW120563   0.817   3.541  10.175  2.0359 -1.6583 -0.2145
 6374SOL    HW220564   0.846   3.511  10.030 -1.4914 -0.7879 -1.1954
 6375SOL     OW20565   6.985   1.423   3.237  0.9319  0.0421  0.1214
 6375SOL    HW120566   6.962   1.497   3.292 -0.2683 -0.3363  0.1630
 6375SOL    HW220567   6.906   1.407   3.184  1.2899 -0.9793 -0.1300
 6376SOL     OW20568   6.370   5.320   0.285 -0.4139  0.4519 -0.5150
 6376SOL    HW120569   6.290   5.288   0.328 -0.2246 -0.6370 -0.9370
 6376SOL    HW220570   6.417   5.367   0.354 -1.1439  0.5958 -0.1102
 6377SOL     OW20571   5.653   7.344   7.043  0.8767 -0.0094 -0.2316
 6377SOL    HW120572   5.740   7.304   7.053 -0.4694 -2.8971  1.0689
 6377SOL    HW220573   5.642   7.353   6.948  2.7229  0.8291 -0.4116
 6378SOL     OW20574   1.366   1.912   1.937 -0.0051  0.5967 -0.4003
 6378SOL    HW120575   1.447   1.898   1.888  0.1878  0.9027 -0.1781
 6378SOL    HW220576   1.299   1.925   1.870 -0.3447 -1.9803 -0.6470
 6379SOL     OW20577   0.300   0.560   2.906 -0.0619  0.1816 -0.2044
 6379SOL    HW120578   0.270   0.648   2.884  0.1575  0.0286 -1.1469
 6379SOL    HW220579   0.305   0.515   2.822 -0.5417 -0.8499  0.2995
 6380SOL     OW20580   0.712   7.730   0.219  0.7439  0.1294  0.1445
 6380SOL    HW120581   0.792   7.697   0.260  0.9722  0.3203 -0.1443
 6380SOL    HW220582   0.742   7.776   0.141  0.3303  0.0022 -0.0925
 6381SOL     OW20583   6.575   0.771   8.803  1.0584  0.2522  0.2083
 6381SOL    HW120584   6.642   0.812   8.749 -0.6481  3.4277  0.2796
 6381SOL    HW220585   6.557   0.835   8.872 -1.3422 -0.9119  0.7650
 6382SOL     OW20586   0.055   6.748   6.628 -0.6631 -0.1418  0.6277
 6382SOL    HW120587   0.018   6.761   6.716 -3.6409  0.8424 -0.6170
 6382SOL    HW220588  -0.006   6.688   6.586  0.5134 -0.3175 -0.8977
 6383SOL     OW20589   1.493   4.357   7.731  0.2919 -0.6688  0.1715
 6383SOL    HW120590   1.561   4.405   7.780 -0.8731  0.2741  0.9147
 6383SOL    HW220591   1.465   4.419   7.663  0.3657 -1.1581 -0.3060
 6384SOL     OW20592   6.152   1.852   2.752 -0.2459 -0.5481 -0.3229
 6384SOL    HW120593   6.217   1.787   2.725 -0.1878  0.0096 -1.5861
 6384SOL    HW220594   6.199   1.911   2.811  0.1589 -0.6632 -0.5322
 6385SOL     OW20595   2.568   0.864   9.539 -0.1509  0.2671 -0.3748
 6385SOL    HW120596   2.581   0.923   9.613  0.1736  0.2004 -0.3729
 6385SOL    HW220597   2.487   0.892   9.498  0.4886  1.3510 -0.9517
 6386SOL     OW20598   6.298   2.339   7.720  0.0591  0.1179 -0.0655
 6386SOL    HW120599   6.248   2.407   7.767 -0.2603 -0.3849  0.3370
 6386SOL    HW220600   6.243   2.261   7.725  0.2753 -0.0905 -0.8122
 6387SOL     OW20601   1.666   7.129   7.478  0.1492 -0.1796 -0.0881
 6387SOL    HW120602   1.743   7.142   7.533  0.1966 -0.3299 -0.1195
 6387SOL    HW220603   1.597   7.102   7.540 -0.0891  0.7159  0.0542
 6388SOL     OW20604   4.195   4.632   6.682 -0.1265  0.4863 -1.0673
 6388SOL    HW120605   4.223   4.721   6.700  2.1829 -0.4637  0.5098
 6388SOL    HW220606   4.201   4.623   6.587 -1.2957  2.2326 -1.3449
 6389SOL     OW20607   1.702   1.429   1.347 -0.9223 -0.0645  0.7989
 6389SOL    HW120608   1.683   1.464   1.434  0.2603  1.0766  0.6276
 6389SOL    HW220609   1.795   1.447   1.334 -0.4100 -2.5756  0.3393
 6390SOL     OW20610   6.686   3.674  10.341  0.2467  0.7170 -0.4326
 6390SOL    HW120611   6.680   3.710  10.252  0.2968 -1.1233 -1.2296
 6390SOL    HW220612   6.767   3.710  10.376  0.6368  0.8359 -1.4327
 6391SOL     OW20613   1.831   0.184  11.165  0.6136 -0.1838  0.2838
 6391SOL    HW120614   1.834   0.197  11.070 -0.0564  2.6728  0.5631
 6391SOL    HW220615   1.756   0.125  11.179  0.4520 -0.2819 -0.9236
 6392SOL     OW20616   2.882   4.747   5.413 -0.1402  0.3417  0.3723
 6392SOL    HW120617   2.928   4.831   5.420  3.1316 -1.3646  1.5638
 6392SOL    HW220618   2.865   4.737   5.319  0.9689  1.5718  0.0101
 6393SOL     OW20619   6.294   0.265   0.527  0.5420  0.8951  0.0485
 6393SOL    HW120620   6.320   0.321   0.454  0.8175  0.2917 -0.3255
 6393SOL    HW220621   6.350   0.188   0.519  0.3180  0.6573  0.6811
 6394SOL     OW20622   3.229   4.206   9.943 -0.1332 -1.2844 -0.7016
 6394SOL    HW120623   3.191   4.120   9.926 -0.2890 -1.4939  0.6397
 6394SOL    HW220624   3.322   4.196   9.925  0.5119 -2.7367  2.6624
 6395SOL     OW20625   0.997   2.301   3.874 -0.7458  0.4859 -0.0640
 6395SOL    HW120626   1.017   2.382   3.921  0.8694 -0.9261  1.7877
 6395SOL    HW220627   1.081   2.270   3.842 -0.9816 -1.5432  1.1184
 6396SOL     OW20628   4.152   5.398   7.483 -0.0731  0.4892 -0.2253
 6396SOL    HW120629   4.105   5.323   7.448  0.2663  0.2799 -0.2401
 6396SOL    HW220630   4.204   5.430   7.410  2.0993 -1.0997  0.5210
 6397SOL     OW20631   4.155   4.821   3.431 -0.5087  0.2400 -0.1518
 6397SOL    HW120632   4.149   4.844   3.524 -0.5176 -0.9421  0.1533
 6397SOL    HW220633   4.185   4.730   3.431  0.9973  0.6952 -1.3370
 6398SOL     OW20634   7.123   3.995   4.758 -0.0976 -0.0771  0.5701
 6398SOL    HW120635   7.115   4.087   4.733  0.0917  0.0067  0.8203
 6398SOL    HW220636   7.137   3.949   4.675  2.0962  0.3641  0.6541
 6399SOL     OW20637   3.153   7.775   0.905 -0.1487  0.1612 -0.4333
 6399SOL    HW120638   3.132   7.742   0.992 -1.9832  2.7741  0.2483
 6399SOL    HW220639   3.161   7.697   0.850 -0.8842 -1.4713  1.6849
 6400SOL     OW20640   7.222   6.061   3.053 -0.0991  0.4732  0.1322
 6400SOL    HW120641   7.181   6.126   3.110 -0.6449  0.1772  0.0787
 6400SOL    HW220642   7.196   6.086   2.965  0.5804  0.8108  0.0144
 6401SOL     OW20643   7.685   2.302   4.288  0.1142 -0.3268  0.3585
 6401SOL    HW120644   7.691   2.247   4.209  0.6422  1.4926 -0.9403
 6401SOL    HW220645   7.754   2.367   4.277 -1.1300  1.2390  1.3118
 6402SOL     OW20646   0.863   2.111   3.258 -0.4461  0.0130 -0.1730
 6402SOL    HW120647   0.863   2.203   3.232 -0.9563 -0.0707 -0.4805
 6402SOL    HW220648   0.869   2.113   3.354 -0.4439  0.3627 -0.1778
 6403SOL     OW20649   0.350   2.970  10.469  0.2497  0.0741 -0.3671
 6403SOL    HW120650   0.423   2.933  10.519 -0.8043 -2.2570 -0.4340
 6403SOL    HW220651   0.384   2.979  10.380  0.5187 -0.8786 -0.3726
 6404SOL     OW20652   3.143   2.783   3.218  0.0843 -0.2233 -0.4275
 6404SOL    HW120653   3.215   2.739   3.265  0.7269  1.0913 -0.1349
 6404SOL    HW220654   3.093   2.827   3.287 -0.1215  0.0967 -0.7803
 6405SOL     OW20655   5.456   7.083  10.258 -0.8449  0.2312  0.0139
 6405SOL    HW120656   5.513   7.153  10.227 -2.0996  1.5542  0.5815
 6405SOL    HW220657   5.448   7.099  10.352 -1.0953 -0.7307  0.1639
 6406SOL     OW20658   0.703   2.930   8.509 -0.1840 -0.4386 -0.2927
 6406SOL    HW120659   0.675   2.994   8.443 -0.1739  0.3749  0.4638
 6406SOL    HW220660   0.651   2.952   8.587  1.0587 -0.2188  0.5085
 6407SOL     OW20661   6.119   4.560  10.367 -0.2297 -0.4030  0.3128
 6407SOL    HW120662   6.085   4.647  10.346 -1.0361 -1.0256 -1.0194
 6407SOL    HW220663   6.049   4.500  10.344  1.5448 -1.7073 -2.2254
 6408SOL     OW20664   4.560   2.356   9.684 -0.5284  0.0664 -0.6250
 6408SOL    HW120665   4.473   2.333   9.716 -1.2680 -1.3055 -3.3064
 6408SOL    HW220666   4.588   2.430   9.739 -1.3425 -2.3333  3.3566
 6409SOL     OW20667   6.468   2.501   7.590 -0.8299 -0.5875  0.0297
 6409SOL    HW120668   6.382   2.467   7.566  0.2121 -3.7773  0.3747
 6409SOL    HW220669   6.525   2.477   7.518  0.3463 -1.2911  1.1524
 6410SOL     OW20670   3.899   5.460  12.131 -0.3685  0.3226 -0.1690
 6410SOL    HW120671   3.886   5.521  12.204  3.4049  0.5332  0.5002
 6410SOL    HW220672   3.836   5.389  12.148  0.4939  0.2163  3.4959
 6411SOL     OW20673   4.369   7.215   0.859  0.1017  0.0463  0.8928
 6411SOL    HW120674   4.365   7.222   0.763  3.4036 -0.0176  0.6409
 6411SOL    HW220675   4.377   7.122   0.876  1.0223  0.1509  1.0878
 6412SOL     OW20676   0.258   4.145   9.913 -0.5672  0.2886 -0.3569
 6412SOL    HW120677   0.338   4.163   9.863 -0.0638 -1.0798 -0.1050
 6412SOL    HW220678   0.279   4.067   9.964 -1.7929  0.4072  0.3723
 6413SOL     OW20679   2.898   6.271   9.101 -0.5722 -0.5623 -0.0108
 6413SOL    HW120680   2.826   6.288   9.040 -1.8473 -0.8029  1.3770
 6413SOL    HW220681   2.871   6.192   9.148  1.3553 -1.5823 -0.5520
 6414SOL     OW20682   7.543   4.308   3.194  0.2415 -0.5852  0.5223
 6414SOL    HW120683   7.632   4.278   3.215  0.4397  1.6710  3.6960
 6414SOL    HW220684   7.552   4.402   3.183 -1.9449 -0.0210  2.7330
 6415SOL     OW20685   1.637   0.390   1.476 -0.6815 -0.6266  0.1412
 6415SOL    HW120686   1.697   0.408   1.405 -0.1762 -2.6278 -0.0075
 6415SOL    HW220687   1.595   0.474   1.495  0.1396  0.2161 -1.6018
 6416SOL     OW20688   5.646   6.038  11.844  0.2171 -0.3355  0.3904
 6416SOL    HW120689   5.735   6.013  11.822 -0.1594 -0.3134 -1.2717
 6416SOL    HW220690   5.615   6.087  11.768 -1.7919 -1.8269  0.1691
 6417SOL     OW20691   0.608   4.678  10.510  0.4779  0.8579 -0.2131
 6417SOL    HW120692   0.702   4.693  10.520  0.6964 -0.0757 -0.6727
 6417SOL    HW220693   0.590   4.602  10.565  0.5507 -0.6282 -2.1074
 6418SOL     OW20694   1.842   6.888   1.060 -0.2479 -0.1593  0.0164
 6418SOL    HW120695   1.910   6.925   1.004  0.6261  0.7948  1.6068
 6418SOL    HW220696   1.875   6.901   1.149 -1.4179 -1.8924  0.7729
 6419SOL     OW20697   1.528   3.504  12.437  0.5688  0.7418  0.0569
 6419SOL    HW120698   1.436   3.525  12.423  0.7446  0.3644 -2.0709
 6419SOL    HW220699   1.527   3.434  12.503 -0.6727  0.6802 -0.0049
 6420SOL     OW20700   2.039   0.200   8.504 -0.0083  0.1307  0.0068
 6420SOL    HW120701   1.955   0.179   8.463 -1.1174  1.9045  1.1893
 6420SOL    HW220702   2.064   0.120   8.550 -2.0700  0.1130  1.2191
 6421SOL     OW20703   4.832   7.187   6.503  0.3156 -0.3394  0.4844
 6421SOL    HW120704   4.781   7.246   6.559 -0.0001 -1.1241  1.0397
 6421SOL    HW220705   4.815   7.217   6.414  0.1710  0.4164  0.7627
 6422SOL     OW20706   0.916   1.078   3.326  0.8190 -0.1782 -0.0510
 6422SOL    HW120707   0.941   1.171   3.324  0.8839 -0.2015 -0.6744
 6422SOL    HW220708   0.837   1.074   3.271  1.1665 -0.5906 -0.5279
 6423SOL     OW20709   4.198   7.218  12.080 -0.4234  0.0586 -0.1096
 6423SOL    HW120710   4.245   7.163  12.143 -0.7107  1.1334  1.0848
 6423SOL    HW220711   4.106   7.196  12.093 -0.4205 -0.5265 -0.9742
 6424SOL     OW20712   2.334   7.505   7.798 -0.2539 -0.5462  0.6686
 6424SOL    HW120713   2.352   7.559   7.721 -0.5711 -2.0682 -0.5194
 6424SOL    HW220714   2.247   7.531   7.827 -0.5143 -0.6077 -0.0534
 6425SOL     OW20715   3.999   6.626   8.371 -0.2887 -0.1740  0.1922
 6425SOL    HW120716   4.002   6.663   8.459  1.1674  1.8114 -0.6103
 6425SOL    HW220717   4.024   6.534   8.383 -0.3192  0.0031  1.8641
 6426SOL     OW20718   4.860   0.123   2.442  0.0631 -0.3607 -0.1367
 6426SOL    HW120719   4.845   0.042   2.490  0.3804  0.1637  0.8766
 6426SOL    HW220720   4.776   0.169   2.447  0.8190  0.9299  2.3679
 6427SOL     OW20721   1.446   0.784  11.121 -0.3162  0.5979 -0.2354
 6427SOL    HW120722   1.403   0.771  11.036 -0.2820 -1.3347 -0.0017
 6427SOL    HW220723   1.463   0.878  11.125 -2.5634  1.1199 -1.2828
 6428SOL     OW20724   1.514   3.913   6.453 -0.1014 -0.1087 -0.1684
 6428SOL    HW120725   1.483   3.982   6.511  0.4977 -0.4228  0.5276
 6428SOL    HW220726   1.541   3.842   6.511 -0.4827 -0.8444 -0.8651
 6429SOL     OW20727   6.556   2.200   7.381  0.2832 -0.0175 -0.0760
 6429SOL    HW120728   6.529   2.288   7.355 -0.1329 -0.1588 -0.1197
 6429SOL    HW220729   6.613   2.214   7.457  0.5578  0.3155 -0.3389
 6430SOL     OW20730   4.707   6.224   8.116  0.0664 -0.1586 -0.0063
 6430SOL    HW120731   4.622   6.254   8.148  0.3437  1.4829 -0.6799
 6430SOL    HW220732   4.686   6.158   8.049 -0.7061  0.4559 -0.3849
 6431SOL     OW20733   0.733   2.025   5.767  0.1201  0.0792 -0.1307
 6431SOL    HW120734   0.669   2.082   5.810 -0.3468 -1.2379  0.9635
 6431SOL    HW220735   0.814   2.039   5.816  0.0397 -0.0973  0.0525
 6432SOL     OW20736   4.425   5.007   1.108 -0.6229  0.0894  0.3615
 6432SOL    HW120737   4.497   4.979   1.165 -0.0102  1.5910  0.3974
 6432SOL    HW220738   4.429   4.948   1.033  1.5931  0.9882 -0.3262
 6433SOL     OW20739   2.042   1.494   0.844 -0.5494 -0.3397  0.1319
 6433SOL    HW120740   2.035   1.564   0.909  1.7192  0.9355 -0.8867
 6433SOL    HW220741   2.128   1.455   0.861 -1.5137 -2.5204  0.2655
 6434SOL     OW20742   4.086   1.487   6.360 -0.1752  0.3381  0.2275
 6434SOL    HW120743   4.017   1.435   6.320  0.2501 -0.6276  0.7048
 6434SOL    HW220744   4.150   1.500   6.290 -0.9336  1.4620 -0.2904
 6435SOL     OW20745   5.170   1.087   2.957  0.0448  0.3248  0.2938
 6435SOL    HW120746   5.093   1.089   2.901  0.9985 -0.7233 -1.0983
 6435SOL    HW220747   5.238   1.043   2.906  1.2443  0.1511  1.9135
 6436SOL     OW20748   2.020   7.890  10.357 -1.0790  0.4696 -0.4798
 6436SOL    HW120749   2.072   7.815  10.385 -1.0818  0.1530 -1.2948
 6436SOL    HW220750   1.930   7.858  10.358 -1.4021  1.3182  1.9195
 6437SOL     OW20751   2.643   5.389  11.838  0.4185 -0.3013 -0.6037
 6437SOL    HW120752   2.736   5.397  11.860  0.2391  1.6640 -0.4106
 6437SOL    HW220753   2.642   5.382  11.742  0.8673 -3.0633 -0.4808
 6438SOL     OW20754   1.257   5.158   4.229 -0.2434 -0.0738 -0.4058
 6438SOL    HW120755   1.237   5.145   4.322 -0.4255 -1.7924 -0.6562
 6438SOL    HW220756   1.207   5.236   4.205 -0.9282 -0.1419  0.7248
 6439SOL     OW20757   3.490   6.809  12.100 -0.4051  0.3727  0.0270
 6439SOL    HW120758   3.394   6.806  12.099 -0.4077  0.4063 -0.7062
 6439SOL    HW220759   3.517   6.727  12.060 -0.1178  0.2020  0.5693
 6440SOL     OW20760   6.776   0.882   8.628 -0.2025  0.3864  0.1873
 6440SOL    HW120761   6.775   0.949   8.561 -2.7984 -2.0623 -2.5263
 6440SOL    HW220762   6.859   0.836   8.616 -0.2260  0.5707 -0.7392
 6441SOL     OW20763   4.646   7.825   9.484 -0.9021 -0.0571  0.4767
 6441SOL    HW120764   4.737   7.853   9.495 -1.2394  1.1545  0.3814
 6441SOL    HW220765   4.641   7.742   9.531  0.5774 -0.8630 -0.6923
 6442SOL     OW20766   7.817   7.543   3.452 -0.3213  0.2391 -0.2284
 6442SOL    HW120767   7.900   7.564   3.410 -0.5636  3.8005  0.7378
 6442SOL    HW220768   7.750   7.574   3.392 -0.7678  1.7912  1.0066
 6443SOL     OW20769   1.414   0.970  10.464  0.2354  0.0866  0.4931
 6443SOL    HW120770   1.394   0.984  10.556 -1.2491  2.0122 -0.0607
 6443SOL    HW220771   1.467   1.045  10.439 -0.2467  0.1248 -0.4654
 6444SOL     OW20772   7.298   4.036   6.962  0.4842 -0.0263  0.2587
 6444SOL    HW120773   7.352   4.084   7.024 -1.0222  0.7513  1.0189
 6444SOL    HW220774   7.215   4.083   6.961 -0.0272 -0.8877 -1.2516
 6445SOL     OW20775   2.987   1.201   6.741 -0.2007  0.0822  0.4501
 6445SOL    HW120776   3.026   1.179   6.826  2.7098  2.1484 -0.1766
 6445SOL    HW220777   3.061   1.199   6.680 -1.9247  0.1632 -1.7394
 6446SOL     OW20778   1.874   2.243  10.228 -0.1314  0.1465 -0.0803
 6446SOL    HW120779   1.868   2.276  10.138  2.5595  0.2981 -0.2931
 6446SOL    HW220780   1.867   2.322  10.283 -1.3338  0.1040 -0.1462
 6447SOL     OW20781   7.107   4.453  10.130  0.1156  1.0099  0.1643
 6447SOL    HW120782   7.091   4.445  10.224 -0.1973  1.7307  0.1751
 6447SOL    HW220783   7.044   4.518  10.100 -0.3275  0.2157 -0.6940
 6448SOL     OW20784   2.486   2.029   9.080  0.1881 -0.3550 -1.0026
 6448SOL    HW120785   2.428   1.977   9.136 -0.5773  1.9472  0.4806
 6448SOL    HW220786   2.436   2.045   9.001 -0.9098  0.8538 -0.1024
 6449SOL     OW20787   4.274   1.181   6.105  0.7014  0.9530  0.2655
 6449SOL    HW120788   4.267   1.090   6.076 -1.1085  1.6005 -1.5799
 6449SOL    HW220789   4.207   1.190   6.173 -1.0749  1.5275 -1.4834
 6450SOL     OW20790   2.326   7.698   7.584 -0.3166 -0.5563  0.2685
 6450SOL    HW120791   2.328   7.650   7.501 -0.4876  1.8012 -1.2194
 6450SOL    HW220792   2.404   7.754   7.581  0.4511 -1.4075  2.4088
 6451SOL     OW20793   4.424   4.448  11.736  0.6062  0.2280 -0.1974
 6451SOL    HW120794   4.336   4.487  11.735 -0.1721 -1.4022  0.6456
 6451SOL    HW220795   4.425   4.392  11.658  0.6489 -0.2692  0.1608
 6452SOL     OW20796   6.156   7.287   4.500 -0.1236 -0.5924 -0.0198
 6452SOL    HW120797   6.151   7.382   4.505  0.1019 -0.5142 -1.1637
 6452SOL    HW220798   6.211   7.262   4.575 -0.1868  0.1611  0.2884
 6453SOL     OW20799   7.797   6.415   9.837 -0.4383  0.2661  0.2180
 6453SOL    HW120800   7.808   6.373   9.923 -1.7283 -0.5606  0.0102
 6453SOL    HW220801   7.869   6.381   9.784  0.8024  1.3434  1.1572
 6454SOL     OW20802   5.620   5.893  10.453  0.0324  0.2554 -0.1681
 6454SOL    HW120803   5.708   5.929  10.459 -0.0932  0.3925  1.4887
 6454SOL    HW220804   5.632   5.798  10.461 -0.0702  0.3882  2.8494
 6455SOL     OW20805   5.758   0.173   5.998  0.6177 -0.2808 -0.2715
 6455SOL    HW120806   5.693   0.238   5.970  0.5321 -0.1750  0.1680
 6455SOL    HW220807   5.840   0.201   5.955  0.6098  0.1907  0.0170
 6456SOL     OW20808   3.033   5.053   2.957 -0.3514 -0.5106  0.4713
 6456SOL    HW120809   2.991   4.987   2.901 -1.0631 -0.5261  1.0041
 6456SOL    HW220810   3.069   5.003   3.030  0.3071 -0.4550  0.1926
 6457SOL     OW20811   2.352   1.506   2.813  0.3208 -0.3452 -0.2931
 6457SOL    HW120812   2.331   1.544   2.898 -1.2239  0.7600 -1.1147
 6457SOL    HW220813   2.430   1.554   2.784 -0.1139  0.4484 -0.1917
 6458SOL     OW20814   6.976   3.112  12.388 -0.3115  0.2874 -0.1503
 6458SOL    HW120815   6.985   3.173  12.461 -0.7813  1.3570 -0.9592
 6458SOL    HW220816   7.065   3.079  12.373 -0.2269 -0.0039  0.9418
 6459SOL     OW20817   5.835   4.027  11.737  0.5392 -0.2223 -0.2717
 6459SOL    HW120818   5.869   4.116  11.738 -1.5242  0.6128  0.6504
 6459SOL    HW220819   5.761   4.029  11.677  0.9419 -1.5379 -0.8577
 6460SOL     OW20820   2.723   5.244   3.165 -0.0029  0.6498 -0.0239
 6460SOL    HW120821   2.733   5.318   3.224 -0.5799  2.0104 -1.5348
 6460SOL    HW220822   2.775   5.267   3.088  2.0318 -1.7880  0.4991
 6461SOL     OW20823   2.962   3.742  10.007 -0.5254 -0.1932  0.3457
 6461SOL    HW120824   2.978   3.671  10.069  0.3195 -1.7944 -1.5925
 6461SOL    HW220825   2.959   3.699   9.921  1.3609  2.2478 -1.0779
 6462SOL     OW20826   1.167   1.881   4.112  0.5587  1.1122  0.3514
 6462SOL    HW120827   1.102   1.937   4.155 -0.4183  0.1725  0.1435
 6462SOL    HW220828   1.236   1.870   4.178 -0.8149 -0.1326  1.6467
 6463SOL     OW20829   2.663   7.067   2.957 -0.0188 -0.0564 -0.3394
 6463SOL    HW120830   2.580   7.033   2.923  0.2761 -0.9034 -0.2370
 6463SOL    HW220831   2.676   7.150   2.911 -1.3922  0.5640  0.3419
 6464SOL     OW20832   3.338   4.360   2.869 -0.4019  0.0992 -0.1059
 6464SOL    HW120833   3.318   4.303   2.795  1.5571 -0.2369 -0.4267
 6464SOL    HW220834   3.399   4.310   2.923  2.4862  2.2661 -1.0871
 6465SOL     OW20835   7.499   2.088   4.126  0.2752 -0.1531 -0.0048
 6465SOL    HW120836   7.514   2.064   4.035  0.8751 -0.5754  0.1994
 6465SOL    HW220837   7.518   2.008   4.176  0.2641  0.1596  0.5126
 6466SOL     OW20838   7.981   3.439   1.665  0.1863 -0.4108 -0.2798
 6466SOL    HW120839   8.003   3.455   1.573  0.7737  0.8742  0.0559
 6466SOL    HW220840   7.981   3.526   1.705 -0.9787 -0.8619  0.7500
 6467SOL     OW20841   0.533   4.007   7.153 -0.2194 -0.3696  0.1582
 6467SOL    HW120842   0.482   4.019   7.233  0.8560 -1.5281  1.0373
 6467SOL    HW220843   0.504   3.923   7.118  1.2592 -1.1994  0.8395
 6468SOL     OW20844   0.041   4.341   7.123 -0.7675  0.3968  0.1193
 6468SOL    HW120845   0.091   4.419   7.100  0.2654 -0.1923  0.3025
 6468SOL    HW220846  -0.021   4.330   7.051 -1.1482  1.5491  0.2482
 6469SOL     OW20847   3.325   7.941  11.367  0.4227  0.2555  0.3879
 6469SOL    HW120848   3.388   7.870  11.352 -0.7622 -0.6011 -0.8045
 6469SOL    HW220849   3.245   7.911  11.323 -0.4183  1.8947  0.7397
 6470SOL     OW20850   7.783   3.174   4.705 -0.0643  0.2091  0.2827
 6470SOL    HW120851   7.751   3.143   4.620 -0.5815  1.6439 -0.0643
 6470SOL    HW220852   7.870   3.210   4.686 -0.7642  1.8619  0.0474
 6471SOL     OW20853   4.121   7.865   0.789  0.5292  0.2331 -0.2804
 6471SOL    HW120854   4.206   7.861   0.832 -0.5364 -0.7790  1.8683
 6471SOL    HW220855   4.067   7.919   0.846 -0.0988  1.5315 -2.0179
 6472SOL     OW20856   7.042   1.114   8.993  0.0990 -0.3480 -0.0589
 6472SOL    HW120857   7.016   1.167   9.069 -0.6899 -0.1484 -0.4551
 6472SOL    HW220858   6.994   1.032   9.003  0.0263 -0.3384 -0.3195
 6473SOL     OW20859   6.212   0.346   7.066 -0.4107  0.4354  0.8193
 6473SOL    HW120860   6.121   0.355   7.093 -1.5019  1.1887 -2.6172
 6473SOL    HW220861   6.240   0.435   7.044  0.6679  0.0203  0.4220
 6474SOL     OW20862   5.859   6.682   3.458 -0.0435  0.4432 -0.4612
 6474SOL    HW120863   5.908   6.757   3.427  0.4747  0.0887 -0.5007
 6474SOL    HW220864   5.901   6.658   3.540 -0.2886  0.2684 -0.3837
 6475SOL     OW20865   3.475   6.633   0.565 -1.1153  0.2352  0.6792
 6475SOL    HW120866   3.562   6.654   0.600 -1.2577  0.0832  1.1218
 6475SOL    HW220867   3.431   6.718   0.559 -0.0845  0.6916 -1.9178
 6476SOL     OW20868   5.710   0.071   7.243  0.0052 -0.3506 -0.4355
 6476SOL    HW120869   5.712   0.143   7.305 -0.9589 -1.3237  0.7876
 6476SOL    HW220870   5.714  -0.008   7.297  0.1931 -1.2312 -1.6750
 6477SOL     OW20871   3.730   1.014   7.200  0.1495 -0.6806 -0.5561
 6477SOL    HW120872   3.687   0.994   7.116  0.0968  1.6797 -1.1658
 6477SOL    HW220873   3.710   0.939   7.256  0.1699 -2.3161 -2.6312
 6478SOL     OW20874   0.505   6.982   5.292  0.5404  0.4629  0.6531
 6478SOL    HW120875   0.455   6.945   5.365  0.2504  0.6921  0.5754
 6478SOL    HW220876   0.563   6.912   5.264 -0.8351 -0.3705 -0.2677
 6479SOL     OW20877   0.994   5.374   5.459  0.3399  0.7386 -0.1923
 6479SOL    HW120878   1.014   5.330   5.376  0.8727  3.2290 -1.4840
 6479SOL    HW220879   0.909   5.339   5.484 -0.2403  0.4992 -2.2769
 6480SOL     OW20880   2.928   4.360  10.165  0.0513  0.2787  0.1965
 6480SOL    HW120881   2.943   4.438  10.219 -0.8086  0.5216  0.0921
 6480SOL    HW220882   2.934   4.392  10.075  1.6779 -0.1611  0.1091
 6481SOL     OW20883   2.800   4.764  10.405 -0.0718  0.1082 -0.1872
 6481SOL    HW120884   2.806   4.747  10.499  0.7756 -0.3442 -0.3192
 6481SOL    HW220885   2.793   4.677  10.365 -0.1253  0.2826 -0.5629
 6482SOL     OW20886   3.586   1.275   6.317  0.4147 -0.1937 -0.1160
 6482SOL    HW120887   3.573   1.366   6.342  1.2068  0.0026 -0.3842
 6482SOL    HW220888   3.613   1.232   6.399 -0.3414 -0.2842  0.0987
 6483SOL     OW20889   0.386   6.082  11.213 -0.2265 -0.0450  0.4651
 6483SOL    HW120890   0.401   6.010  11.152  0.6069 -1.5854  2.3506
 6483SOL    HW220891   0.388   6.040  11.299 -2.4802  1.8120  1.5355
 6484SOL     OW20892   1.655   6.245   8.192  0.3276  0.0713 -0.2214
 6484SOL    HW120893   1.623   6.201   8.113  0.0660 -0.4244  0.1563
 6484SOL    HW220894   1.600   6.211   8.263 -0.4898  1.6794 -0.0396
 6485SOL     OW20895   2.451   0.801   4.490  0.2163  0.0340 -0.7208
 6485SOL    HW120896   2.449   0.772   4.398 -2.2420  1.8799 -1.3410
 6485SOL    HW220897   2.541   0.831   4.503  0.3168  0.8553 -2.9304
 6486SOL     OW20898   4.151   7.516   7.953  0.6667 -0.3009 -0.2809
 6486SOL    HW120899   4.164   7.535   7.860  0.3639  0.2112 -0.2188
 6486SOL    HW220900   4.079   7.453   7.955  0.4606 -0.0681 -0.3714
 6487SOL     OW20901   7.652   4.623   8.741 -0.1994  0.1727  0.8868
 6487SOL    HW120902   7.572   4.675   8.749 -0.1774  0.2320  0.7314
 6487SOL    HW220903   7.723   4.686   8.751 -0.1725  0.0881  1.2237
 6488SOL     OW20904   5.297   6.021  10.130 -0.2458 -0.5352 -0.0356
 6488SOL    HW120905   5.250   5.938  10.133 -1.1701 -0.0993 -1.4391
 6488SOL    HW220906   5.347   6.018  10.048 -0.0573  0.1694  0.0481
 6489SOL     OW20907   5.894   1.824   9.436  0.3842  0.7751  0.5038
 6489SOL    HW120908   5.817   1.790   9.482  1.1854  0.1885  1.4725
 6489SOL    HW220909   5.871   1.913   9.413 -1.0071  0.2464 -0.2424
 6490SOL     OW20910   3.346   4.534   0.175 -0.1256  0.8785 -0.1766
 6490SOL    HW120911   3.300   4.557   0.094  0.8694 -1.4978 -1.5151
 6490SOL    HW220912   3.279   4.491   0.228 -0.3676  0.8373 -0.5064
 6491SOL     OW20913   4.962   5.880   5.431  0.3338  0.2355 -0.1886
 6491SOL    HW120914   4.878   5.871   5.476 -0.7484  1.9419 -1.7162
 6491SOL    HW220915   4.994   5.790   5.423 -0.9290 -0.3802  1.1563
 6492SOL     OW20916   1.086   3.129   1.790 -0.0992  0.0761  0.2062
 6492SOL    HW120917   1.152   3.188   1.827 -1.7289  2.2079 -0.1104
 6492SOL    HW220918   1.108   3.124   1.697  0.2635 -0.1252  0.3011
 6493SOL     OW20919   1.588   6.615   1.002 -0.5100 -0.1718 -0.2233
 6493SOL    HW120920   1.578   6.684   1.068  0.3049 -0.2614  0.0121
 6493SOL    HW220921   1.522   6.635   0.936 -0.3040  0.8279 -0.1531
 6494SOL     OW20922   4.484   6.770   1.276  0.2185  0.1580 -0.4723
 6494SOL    HW120923   4.408   6.792   1.330  1.1734 -0.6934  1.3043
 6494SOL    HW220924   4.531   6.852   1.267 -0.0752  0.3599 -0.1990
 6495SOL     OW20925   3.920   6.412   4.140  0.2735  0.5490 -0.1284
 6495SOL    HW120926   3.969   6.455   4.070  0.8408 -1.3525 -0.9889
 6495SOL    HW220927   3.835   6.455   4.140  0.5005  1.0600 -1.5424
 6496SOL     OW20928   0.324   3.425   7.952  0.4333 -0.0282  0.3478
 6496SOL    HW120929   0.237   3.390   7.971 -0.1771  1.0810 -0.3388
 6496SOL    HW220930   0.343   3.396   7.863  1.7282 -2.0787  1.1872
 6497SOL     OW20931   2.168   2.090  10.293 -0.3783 -0.1726 -0.5441
 6497SOL    HW120932   2.184   2.123  10.382 -1.0099 -1.6734  0.1648
 6497SOL    HW220933   2.083   2.127  10.269 -1.0865 -1.2285  0.2463
 6498SOL     OW20934   2.480   1.162   3.649 -0.3254 -0.1210  0.5324
 6498SOL    HW120935   2.480   1.172   3.744 -0.0073  0.3993  0.4779
 6498SOL    HW220936   2.551   1.218   3.619 -0.0772 -0.6910  0.0259
 6499SOL     OW20937   2.617   3.467  11.622  0.4943  0.4175 -0.0413
 6499SOL    HW120938   2.578   3.450  11.708 -0.7348 -0.7674 -0.8005
 6499SOL    HW220939   2.570   3.408  11.562  1.4702  1.0654 -1.4919
 6500SOL     OW20940   2.438   2.036   1.827  0.4699 -0.0589 -0.3043
 6500SOL    HW120941   2.399   1.979   1.894  0.2121 -1.5211 -1.6292
 6500SOL    HW220942   2.490   2.100   1.876 -1.7033  0.5037  1.4118
 6501SOL     OW20943   6.940   2.565   3.106 -0.3381 -0.5126 -0.4205
 6501SOL    HW120944   6.868   2.518   3.064 -0.3411 -0.9451  0.0495
 6501SOL    HW220945   6.922   2.557   3.200  1.1024 -1.9511 -0.2186
 6502SOL     OW20946   2.839   6.250  10.634  0.5522 -0.8858  0.1079
 6502SOL    HW120947   2.792   6.167  10.621 -0.1705 -0.4086 -0.3697
 6502SOL    HW220948   2.854   6.254  10.728 -2.3723  0.0043  0.6237
 6503SOL     OW20949   4.985   6.263   5.032 -0.2177 -0.3645  0.0519
 6503SOL    HW120950   4.941   6.316   5.099 -0.6993 -0.8259  0.1099
 6503SOL    HW220951   5.076   6.293   5.032 -0.4929  0.4872  0.0554
 6504SOL     OW20952   6.065   6.504   5.168 -0.1544 -0.1599 -0.2516
 6504SOL    HW120953   6.146   6.552   5.149 -0.6191  0.8668  0.3067
 6504SOL    HW220954   6.006   6.570   5.205 -0.4932 -1.3369  1.4192
 6505SOL     OW20955   4.968   6.353   4.620 -0.2403  0.1085  0.0582
 6505SOL    HW120956   4.896   6.309   4.665  1.2342 -1.1473  1.3541
 6505SOL    HW220957   4.959   6.445   4.644 -1.0245 -0.1427  0.7659
 6506SOL     OW20958   0.979   5.043   3.204 -0.1903 -0.0512 -0.2128
 6506SOL    HW120959   1.014   5.038   3.115 -0.8410 -2.6059 -0.4015
 6506SOL    HW220960   0.887   5.067   3.193  0.1524  1.4398 -0.0603
 6507SOL     OW20961   5.011   5.472   9.245  0.2335  0.6266 -0.0455
 6507SOL    HW120962   4.956   5.475   9.323  1.5160  0.3659  0.8979
 6507SOL    HW220963   4.955   5.433   9.178 -0.8578  0.7582  0.7649
 6508SOL     OW20964   7.843   3.763  12.083  0.4473 -0.1134  0.0822
 6508SOL    HW120965   7.868   3.693  12.022  0.1755 -0.6331  0.5597
 6508SOL    HW220966   7.868   3.844  12.038  1.0215 -0.5263 -0.3611
 6509SOL     OW20967   1.160   4.739  11.792  0.6558  0.2288 -0.3196
 6509SOL    HW120968   1.215   4.664  11.769  0.3959  0.5678 -2.1761
 6509SOL    HW220969   1.221   4.813  11.793  0.4223  0.4530 -1.4570
 6510SOL     OW20970   3.064   7.437   8.965 -0.5496 -0.2432  0.1773
 6510SOL    HW120971   3.078   7.525   8.930 -1.7525 -1.0949 -2.7130
 6510SOL    HW220972   3.120   7.380   8.913  0.8755 -1.1687  2.5817
 6511SOL     OW20973   6.373   6.231  10.568 -0.1484 -0.9361 -0.6201
 6511SOL    HW120974   6.448   6.252  10.511  0.4650 -2.1270 -0.2853
 6511SOL    HW220975   6.339   6.317  10.594  0.7388 -0.3687 -1.2452
 6512SOL     OW20976   7.628   0.427   2.035  0.6134 -0.5318  0.0815
 6512SOL    HW120977   7.652   0.519   2.046  0.0585 -0.3544 -0.1490
 6512SOL    HW220978   7.681   0.398   1.961  1.9030 -0.8199  1.0928
 6513SOL     OW20979   5.886   2.509   7.919  0.1569 -0.3631 -0.0715
 6513SOL    HW120980   5.828   2.567   7.869 -1.9135 -0.8832  1.6193
 6513SOL    HW220981   5.969   2.556   7.922 -0.6313  1.1912 -1.1489
 6514SOL     OW20982   7.892   7.565   1.991 -0.7061 -0.3206  0.7535
 6514SOL    HW120983   7.969   7.592   1.940  0.6133 -2.7171  1.3009
 6514SOL    HW220984   7.928   7.543   2.077 -2.3441  0.2451  1.6224
 6515SOL     OW20985   1.233   0.672   4.009 -0.4872  0.0489 -0.1638
 6515SOL    HW120986   1.237   0.615   4.086  0.2041 -0.2706 -0.4232
 6515SOL    HW220987   1.316   0.656   3.964  0.1987  2.0349  0.3026
 6516SOL     OW20988   6.290   4.533  11.951 -0.4430  0.1454 -0.4454
 6516SOL    HW120989   6.237   4.604  11.915  0.3750  1.0893  0.1417
 6516SOL    HW220990   6.380   4.567  11.948 -0.0141 -0.9435 -0.3214
 6517SOL     OW20991   7.192   4.676  11.165  0.6338  0.0379 -1.1205
 6517SOL    HW120992   7.108   4.635  11.183  0.2153  1.3601  0.1072
 6517SOL    HW220993   7.181   4.717  11.079 -0.3925  1.1843 -0.4679
 6518SOL     OW20994   5.577   3.148  10.099  0.5128  0.5594 -0.0250
 6518SOL    HW120995   5.610   3.219  10.154  0.0209  0.2460  0.6968
 6518SOL    HW220996   5.564   3.187  10.013 -0.7782  1.6239  0.6286
 6519SOL     OW20997   3.639   7.126   3.968  0.1527  0.0646  0.2097
 6519SOL    HW120998   3.679   7.119   4.055 -1.8579 -1.7385  1.1136
 6519SOL    HW220999   3.645   7.037   3.933  2.4082  1.0899 -2.3060
 6520SOL     OW21000   0.996   1.491  12.116 -0.1066 -0.3565  0.7061
 6520SOL    HW121001   1.053   1.569  12.118  1.6003 -1.4102 -1.6489
 6520SOL    HW221002   0.948   1.499  12.033  0.3218 -1.9226  0.2807
 6521SOL     OW21003   2.302   5.077   5.183  0.5575 -0.0539  0.6012
 6521SOL    HW121004   2.261   5.002   5.226  2.3769 -0.4116  1.8369
 6521SOL    HW221005   2.264   5.078   5.095 -0.8459 -1.2941  1.1442
 6522SOL     OW21006   7.429   3.993   8.287  0.0702  0.4264  0.6756
 6522SOL    HW121007   7.437   3.997   8.382 -0.0295  1.4826  0.6563
 6522SOL    HW221008   7.336   4.010   8.270 -0.2112 -1.1894  0.4350
 6523SOL     OW21009   6.136   3.910   0.625  0.1309  0.2533 -0.4140
 6523SOL    HW121010   6.065   3.864   0.669  2.6096 -2.1905  1.4470
 6523SOL    HW221011   6.129   3.885   0.533  0.2756 -2.5056  0.2391
 6524SOL     OW21012   4.857   2.389  11.072  0.3461 -0.1602  0.0170
 6524SOL    HW121013   4.887   2.414  11.160 -0.4040  1.8694 -0.2621
 6524SOL    HW221014   4.938   2.379  11.022  0.7416  1.0885  0.3561
 6525SOL     OW21015   2.737   4.600   4.450 -0.2585  0.1477 -0.1009
 6525SOL    HW121016   2.783   4.521   4.479  0.8090  0.0620 -1.8964
 6525SOL    HW221017   2.807   4.658   4.421 -1.1973  0.6767 -1.3686
 6526SOL     OW21018   1.033   1.685   8.362 -0.6430 -0.3521 -0.3743
 6526SOL    HW121019   0.958   1.663   8.307 -0.3448 -0.8239 -0.5972
 6526SOL    HW221020   1.110   1.663   8.308 -0.3282 -2.1138  0.6920
 6527SOL     OW21021   5.804   2.116   2.513  0.0161 -0.1705  0.0354
 6527SOL    HW121022   5.714   2.131   2.542 -0.2888 -0.0320 -0.9510
 6527SOL    HW221023   5.844   2.203   2.514 -0.0312 -0.1472 -0.0755
 6528SOL     OW21024   7.780   2.415  10.565  0.4201 -0.9266  0.0659
 6528SOL    HW121025   7.861   2.386  10.608  0.0015  0.5088  1.9499
 6528SOL    HW221026   7.711   2.387  10.625 -0.2416  0.5242  0.0014
 6529SOL     OW21027   1.064   0.539   7.938 -0.5495 -0.4764 -0.1262
 6529SOL    HW121028   1.078   0.552   7.844  0.1135 -1.2831 -0.1486
 6529SOL    HW221029   0.970   0.554   7.951 -0.8363 -1.3425 -1.0840
 6530SOL     OW21030   0.489   3.566   6.012 -0.0165 -0.0011  0.3932
 6530SOL    HW121031   0.412   3.528   5.971 -0.5080  0.4412  0.8981
 6530SOL    HW221032   0.501   3.650   5.968 -1.3232  1.0871  1.9885
 6531SOL     OW21033   6.656   1.621   9.677 -0.0735 -0.0022  0.5175
 6531SOL    HW121034   6.726   1.556   9.673  0.3549  0.4908 -0.4033
 6531SOL    HW221035   6.579   1.572   9.707  0.3627 -0.8271  0.3068
 6532SOL     OW21036   1.082   5.264   7.079 -0.1524  0.3792  0.8809
 6532SOL    HW121037   1.126   5.245   6.996 -1.1428 -0.8039  0.5892
 6532SOL    HW221038   1.147   5.312   7.130  0.5315  1.0045 -0.5209
 6533SOL     OW21039   7.589   7.715   5.888  0.0529 -0.3562 -0.6541
 6533SOL    HW121040   7.496   7.727   5.909  0.3665 -0.0784  0.6278
 6533SOL    HW221041   7.616   7.640   5.940  0.9008  0.4800  0.1472
 6534SOL     OW21042   3.765   2.690   8.515  0.0099 -0.1822 -0.2808
 6534SOL    HW121043   3.857   2.709   8.531  0.0284 -2.0937  2.5194
 6534SOL    HW221044   3.762   2.667   8.422  1.8137  2.3270 -1.0758
 6535SOL     OW21045   1.154   2.436   8.955 -0.4739  0.3929 -0.0550
 6535SOL    HW121046   1.175   2.529   8.966  0.8687  0.0412  0.6131
 6535SOL    HW221047   1.060   2.431   8.971 -0.3785  1.4832  1.0340
 6536SOL     OW21048   1.942   1.018   9.170  0.1532  0.5862 -0.0284
 6536SOL    HW121049   1.999   1.093   9.153  1.6042 -0.6439 -0.8207
 6536SOL    HW221050   2.001   0.949   9.201 -1.0333 -0.4748 -0.0337
 6537SOL     OW21051   7.261   4.955   7.223  0.8417 -0.1370 -0.0679
 6537SOL    HW121052   7.204   5.028   7.199  0.2025  0.5928  3.1769
 6537SOL    HW221053   7.350   4.990   7.215  0.5319  1.2828  1.9393
 6538SOL     OW21054   6.312   6.579  10.236  0.2166 -1.1352  0.2382
 6538SOL    HW121055   6.223   6.546  10.246 -0.2151  0.0169  0.4007
 6538SOL    HW221056   6.303   6.653  10.176  1.1007 -1.1342  0.0982
 6539SOL     OW21057   2.240   6.630   1.880  0.0335 -0.5773 -0.3511
 6539SOL    HW121058   2.282   6.687   1.944  0.5877  0.0688 -1.2685
 6539SOL    HW221059   2.228   6.547   1.926 -1.0183  0.3192  1.1036
 6540SOL     OW21060   1.034   2.409  10.284 -0.2330 -0.0392 -0.1999
 6540SOL    HW121061   1.013   2.455  10.365  0.3394 -0.2984  0.1054
 6540SOL    HW221062   1.001   2.320  10.298  2.2331 -0.8925  0.8884
 6541SOL     OW21063   3.400   6.454  11.335 -0.0048  0.0437  0.1683
 6541SOL    HW121064   3.351   6.478  11.414 -1.2959 -1.6819 -0.0418
 6541SOL    HW221065   3.349   6.492  11.263  0.9679  1.2979  0.1071
 6542SOL     OW21066   3.108   7.863   4.044  0.2626  0.5000 -0.4862
 6542SOL    HW121067   3.083   7.869   3.952  1.5201  0.3115 -0.8556
 6542SOL    HW221068   3.059   7.788   4.078 -0.7563  1.0062 -0.7983
 6543SOL     OW21069   0.177   0.945   8.394  0.0332  0.7151 -0.8685
 6543SOL    HW121070   0.116   0.872   8.398 -1.4202  1.9047 -0.6391
 6543SOL    HW221071   0.264   0.904   8.402 -0.8036 -0.8137  1.1624
 6544SOL     OW21072   5.829   4.136   3.804  0.4940  0.1380  0.0109
 6544SOL    HW121073   5.818   4.048   3.841  0.0481 -0.0977 -0.6607
 6544SOL    HW221074   5.782   4.193   3.864 -1.0910 -0.3621 -0.6883
 6545SOL     OW21075   0.717   0.915  10.993  0.0670  0.1941  0.2054
 6545SOL    HW121076   0.762   0.967  10.926  0.8637 -0.9759 -0.1908
 6545SOL    HW221077   0.648   0.869  10.945  0.0626  0.0498  0.3497
 6546SOL     OW21078   0.486   6.076   7.770  0.4592 -0.2999  0.5769
 6546SOL    HW121079   0.526   6.084   7.683 -0.7899 -0.0891 -0.0007
 6546SOL    HW221080   0.560   6.063   7.829  1.3470 -0.2998 -0.4968
 6547SOL     OW21081   7.577   7.984   9.666 -0.0474 -0.0551  0.1137
 6547SOL    HW121082   7.648   8.048   9.660  0.5526 -0.7540 -0.5372
 6547SOL    HW221083   7.497   8.036   9.663  0.4000  0.5977 -1.7892
 6548SOL     OW21084   6.500   5.445   4.920 -0.1293 -0.7181  0.1407
 6548SOL    HW121085   6.434   5.506   4.955 -0.0413 -1.4625  1.7022
 6548SOL    HW221086   6.526   5.484   4.837 -1.2101  0.5537  0.3458
 6549SOL     OW21087   1.990   3.754   9.903 -0.2174 -0.6446  0.2906
 6549SOL    HW121088   2.002   3.663   9.928 -0.9464 -0.9298 -0.3484
 6549SOL    HW221089   2.060   3.771   9.840 -0.9165 -1.2089 -0.6737
 6550SOL     OW21090   7.019   2.096   1.328 -0.1525 -0.0227 -0.4186
 6550SOL    HW121091   7.034   2.182   1.368  0.4279  0.7588 -2.1923
 6550SOL    HW221092   7.089   2.041   1.361  0.3898  0.6364 -0.4392
 6551SOL     OW21093   0.452   2.347   3.582 -0.3181  0.3213 -0.3109
 6551SOL    HW121094   0.418   2.258   3.581 -1.2111  0.6130 -3.0938
 6551SOL    HW221095   0.546   2.337   3.595 -0.2442 -1.1337 -1.7835
 6552SOL     OW21096   3.387   1.802   4.569 -0.0604 -0.0467  0.5095
 6552SOL    HW121097   3.410   1.862   4.499 -0.8295 -1.0673 -0.6508
 6552SOL    HW221098   3.372   1.858   4.645 -1.6623  1.3181 -0.7615
 6553SOL     OW21099   0.655   4.377   4.785  0.4351 -0.0320 -0.0324
 6553SOL    HW121100   0.748   4.374   4.764  0.2026 -1.6864 -0.9426
 6553SOL    HW221101   0.620   4.295   4.752 -1.3736  0.5888  0.2376
 6554SOL     OW21102   4.829   7.960  10.900  0.1512 -0.1832 -0.4304
 6554SOL    HW121103   4.917   7.985  10.872  0.3547 -0.1144  0.2649
 6554SOL    HW221104   4.842   7.908  10.979 -0.3941 -0.7477 -0.6923
 6555SOL     OW21105   4.604   1.257   7.839  0.0800  0.1890  0.6176
 6555SOL    HW121106   4.651   1.235   7.920  1.1822  1.4376  0.3444
 6555SOL    HW221107   4.514   1.229   7.856  0.8096 -2.0345  1.2703
 6556SOL     OW21108   7.015   7.749  12.235  0.2477  0.0696 -0.0322
 6556SOL    HW121109   7.002   7.800  12.314  1.0597  0.4742 -0.1579
 6556SOL    HW221110   7.017   7.814  12.164  1.6693 -0.0760 -0.1539
 6557SOL     OW21111   6.341   7.311   6.180 -0.3157 -0.2986  0.4231
 6557SOL    HW121112   6.421   7.344   6.219 -1.5681  0.5987  2.3954
 6557SOL    HW221113   6.363   7.224   6.147  1.5348  0.0974  0.5429
 6558SOL     OW21114   3.919   6.902   1.228  0.4146  0.3407 -0.4139
 6558SOL    HW121115   3.937   6.808   1.231  0.0617  0.2550 -0.8761
 6558SOL    HW221116   3.946   6.929   1.140 -1.7832  0.1731 -1.2018
 6559SOL     OW21117   1.479   3.232  12.091  0.3743 -0.5637 -0.1832
 6559SOL    HW121118   1.388   3.261  12.093 -0.1945 -2.0904  2.9568
 6559SOL    HW221119   1.482   3.167  12.021 -1.5962 -2.1493  1.1012
 6560SOL     OW21120   4.688   0.221  11.004  0.5865  0.6535 -0.0457
 6560SOL    HW121121   4.609   0.239  10.953 -0.4372  0.7055  1.5000
 6560SOL    HW221122   4.710   0.130  10.982  0.5315  0.8687 -1.0306
 6561SOL     OW21123   1.047   0.414   7.493  0.3814  0.8476 -0.1047
 6561SOL    HW121124   1.018   0.458   7.413  2.2662 -1.4058 -2.2271
 6561SOL    HW221125   1.011   0.326   7.486  2.6186 -0.1680  0.1487
 6562SOL     OW21126   1.740   3.544   5.308 -0.1984 -0.2851  0.3050
 6562SOL    HW121127   1.668   3.556   5.245  1.1134 -2.1265 -1.7117
 6562SOL    HW221128   1.721   3.459   5.349  0.7318 -0.7127 -0.1361
 6563SOL     OW21129   3.333   6.149  10.336 -0.3919  0.2411  0.2379
 6563SOL    HW121130   3.249   6.154  10.381  0.3067 -0.9181  1.7621
 6563SOL    HW221131   3.326   6.073  10.279 -0.3926  0.1918  0.3045
 6564SOL     OW21132   6.549   3.309   2.993  0.8330 -0.1384 -0.2719
 6564SOL    HW121133   6.627   3.361   3.007 -0.2913  1.4447  0.3703
 6564SOL    HW221134   6.508   3.303   3.080  0.5500 -1.4924 -0.4703
 6565SOL     OW21135   6.301   5.677   3.767 -0.3690 -0.0088 -0.1709
 6565SOL    HW121136   6.334   5.730   3.695  2.6970 -0.7482  0.5384
 6565SOL    HW221137   6.302   5.587   3.733 -1.1550 -0.1038  0.0545
 6566SOL     OW21138   6.281   2.590   9.226 -0.5880  0.4241 -0.1542
 6566SOL    HW121139   6.255   2.589   9.134 -1.5492  3.2957 -0.0107
 6566SOL    HW221140   6.304   2.681   9.244  0.1774 -0.1667  2.3149
 6567SOL     OW21141   1.901   5.612   4.207 -1.0856  0.2373  0.2403
 6567SOL    HW121142   1.989   5.640   4.183 -1.1913  0.9375  0.6404
 6567SOL    HW221143   1.880   5.542   4.145  0.6071 -1.5212  1.5146
 6568SOL     OW21144   7.531   0.862   1.338 -0.3128  0.1859  0.2752
 6568SOL    HW121145   7.515   0.955   1.354  1.3918  0.4182  0.8549
 6568SOL    HW221146   7.626   0.854   1.342 -0.4211 -1.5198 -0.1644
 6569SOL     OW21147   5.125   4.829   4.234 -0.5321 -0.3769 -0.2518
 6569SOL    HW121148   5.204   4.786   4.266 -0.8357  0.8677  2.5237
 6569SOL    HW221149   5.156   4.891   4.169  0.5034 -1.3020 -0.6733
 6570SOL     OW21150   1.399   4.237   3.100 -0.1405 -0.0515  0.1678
 6570SOL    HW121151   1.328   4.252   3.037 -1.9360 -1.3333  1.7626
 6570SOL    HW221152   1.399   4.315   3.155  0.1313  0.2204 -0.2101
 6571SOL     OW21153   2.474   4.869   1.956  0.3097 -0.3041  0.3775
 6571SOL    HW121154   2.389   4.894   1.919  0.6878  0.0825 -0.2497
 6571SOL    HW221155   2.538   4.918   1.905  0.8997 -0.3753  1.0313
 6572SOL     OW21156   5.753   2.449   7.483 -0.5846 -0.5470 -0.5143
 6572SOL    HW121157   5.769   2.467   7.576  0.5201  0.1045 -0.8136
 6572SOL    HW221158   5.756   2.353   7.477  1.8917 -0.5636 -0.2614
 6573SOL     OW21159   5.516   0.912  10.300 -0.3311 -0.5312 -0.2886
 6573SOL    HW121160   5.473   0.995  10.322 -0.4521 -0.7813  0.4457
 6573SOL    HW221161   5.564   0.888  10.379  1.6466  0.0212 -1.2625
 6574SOL     OW21162   6.802   3.189   6.241  0.0451  0.0852 -0.5714
 6574SOL    HW121163   6.760   3.259   6.291 -0.8554 -0.3440 -0.7064
 6574SOL    HW221164   6.782   3.209   6.150  1.6887  0.8678 -0.7926
 6575SOL     OW21165   3.591   2.710   6.677 -0.1249  0.2533 -0.0204
 6575SOL    HW121166   3.503   2.724   6.642  0.1306 -0.2322 -0.8895
 6575SOL    HW221167   3.631   2.648   6.616  0.2653 -0.7945  1.2434
 6576SOL     OW21168   6.619   1.991   4.434 -0.6204  0.1190 -0.5864
 6576SOL    HW121169   6.700   1.978   4.385  0.4275 -0.2401  1.1341
 6576SOL    HW221170   6.599   2.084   4.423 -1.1480 -0.2054 -2.6912
 6577SOL     OW21171   3.630   2.917   1.881 -0.3258 -0.3297 -0.2770
 6577SOL    HW121172   3.596   2.998   1.844 -1.0807  0.3294  1.7213
 6577SOL    HW221173   3.691   2.945   1.949 -0.6253 -1.4238  0.4735
 6578SOL     OW21174   5.336   2.342  11.165  0.4384  0.6770 -0.5492
 6578SOL    HW121175   5.265   2.390  11.207 -0.1530  0.4041 -1.2204
 6578SOL    HW221176   5.415   2.385  11.196 -0.0613  1.9587 -0.9854
 6579SOL     OW21177   5.141   0.927  12.134  0.5112 -0.0276  0.1770
 6579SOL    HW121178   5.161   0.988  12.062 -1.3417  2.2586  1.4611
 6579SOL    HW221179   5.048   0.939  12.150  1.0620  0.5440  3.7471
 6580SOL     OW21180   6.409   2.504  11.845  0.0048 -0.2183  0.3192
 6580SOL    HW121181   6.462   2.480  11.770 -1.5503  1.6495 -1.4857
 6580SOL    HW221182   6.444   2.588  11.874  0.2381 -0.6562  1.3940
 6581SOL     OW21183   0.864   5.669  11.868 -0.2402  0.2742  0.4816
 6581SOL    HW121184   0.900   5.620  11.943  0.2282 -0.8067 -0.4250
 6581SOL    HW221185   0.861   5.606  11.797 -0.7569  1.2692 -0.4124
 6582SOL     OW21186   0.483   2.536  10.550 -0.3685  0.3269  0.0083
 6582SOL    HW121187   0.529   2.531  10.466 -1.3551 -0.0318 -0.5250
 6582SOL    HW221188   0.462   2.445  10.571  0.7180  0.3044  1.1482
 6583SOL     OW21189   6.440   0.452   1.928  0.0662 -0.3971  0.0762
 6583SOL    HW121190   6.381   0.421   1.997  0.7901 -1.3943  0.2601
 6583SOL    HW221191   6.427   0.547   1.928  0.6157 -0.2752  2.1372
 6584SOL     OW21192   5.652   3.594   2.618 -0.3897 -0.5866  0.2027
 6584SOL    HW121193   5.737   3.634   2.639  0.5227 -2.4532  0.2255
 6584SOL    HW221194   5.633   3.538   2.693 -1.0488 -1.1193 -0.3575
 6585SOL     OW21195   2.179   2.195   2.808  0.7912 -0.2725  0.3812
 6585SOL    HW121196   2.243   2.140   2.852  0.4777 -1.1324 -0.2151
 6585SOL    HW221197   2.228   2.238   2.738  0.8322 -0.5461  0.2403
 6586SOL     OW21198   5.272   7.979   7.175 -0.2738 -0.1850  0.2970
 6586SOL    HW121199   5.229   8.008   7.255  0.1193  0.3649  0.3184
 6586SOL    HW221200   5.316   7.898   7.200  0.2701  0.2498  0.7847
 6587SOL     OW21201   5.108   7.280   6.295 -0.4291 -0.1162  0.2544
 6587SOL    HW121202   5.032   7.314   6.343 -1.4419 -0.0818 -1.3205
 6587SOL    HW221203   5.072   7.216   6.234  0.9714 -0.9971  0.2950
 6588SOL     OW21204   3.378   2.670   8.872 -0.1840  0.3217 -0.7959
 6588SOL    HW121205   3.396   2.653   8.780 -0.4465 -1.8959 -0.4840
 6588SOL    HW221206   3.408   2.592   8.917 -0.6837  1.0869  0.9467
 6589SOL     OW21207   5.965   3.396   1.574  0.2419  0.0726  0.5828
 6589SOL    HW121208   5.872   3.390   1.552 -0.2665 -1.9069  2.8254
 6589SOL    HW221209   5.982   3.490   1.581 -0.8217  0.6074 -2.5339
 6590SOL     OW21210   3.497   4.916   7.024  0.5776 -0.8718 -0.2294
 6590SOL    HW121211   3.453   4.855   7.084  1.6207 -0.2356  1.2137
 6590SOL    HW221212   3.590   4.900   7.037  0.8465  0.3235 -0.5990
 6591SOL     OW21213   4.287   6.371   8.338 -0.7193  0.1587 -0.0227
 6591SOL    HW121214   4.332   6.320   8.405 -1.0775  0.5926  0.5555
 6591SOL    HW221215   4.194   6.359   8.356 -0.8112  0.9610  0.0916
 6592SOL     OW21216   5.546   4.048   9.538 -0.4935 -0.7586  0.1334
 6592SOL    HW121217   5.641   4.057   9.536 -0.2162 -3.0478  0.2347
 6592SOL    HW221218   5.531   3.958   9.565 -2.7150 -0.4684  0.0873
 6593SOL     OW21219   5.054   3.211   2.744  0.0631  0.0628  0.2224
 6593SOL    HW121220   5.103   3.261   2.679 -0.7905  0.0402 -0.4614
 6593SOL    HW221221   5.121   3.163   2.793  0.8148  1.0807  0.2202
 6594SOL     OW21222   0.200   0.691  10.192 -0.0130  0.2197  0.0949
 6594SOL    HW121223   0.287   0.710  10.156  0.1878 -1.6282 -0.4867
 6594SOL    HW221224   0.214   0.616  10.249 -1.1447  0.2404  0.4189
 6595SOL     OW21225   1.690   0.918   6.217  0.3180 -0.0280  0.0366
 6595SOL    HW121226   1.697   1.012   6.228 -0.1675  0.2775 -1.9000
 6595SOL    HW221227   1.701   0.903   6.123  2.8938 -2.1696  0.5474
 6596SOL     OW21228   4.611   6.436   5.167 -0.0211  0.1923  0.5292
 6596SOL    HW121229   4.599   6.423   5.073 -0.6938  1.8663  0.3471
 6596SOL    HW221230   4.654   6.522   5.174  1.7364 -0.7098  1.6913
 6597SOL     OW21231   7.681   3.948   9.136  0.0063 -0.0023  0.6807
 6597SOL    HW121232   7.653   3.891   9.063  0.1521 -1.1057  1.4591
 6597SOL    HW221233   7.654   4.036   9.109  0.0537 -0.3795 -0.7065
 6598SOL     OW21234   4.171   5.500   9.299  0.1225 -0.2886 -0.5738
 6598SOL    HW121235   4.143   5.448   9.375  1.2181 -0.5316 -0.3226
 6598SOL    HW221236   4.109   5.477   9.230 -0.7864 -0.1984  0.1872
 6599SOL     OW21237   2.549   4.724   5.987 -0.1111 -0.2041 -0.1362
 6599SOL    HW121238   2.610   4.782   6.032 -0.6556 -0.6321  1.1876
 6599SOL    HW221239   2.598   4.642   5.977 -0.1327 -0.2358  0.0267
 6600SOL     OW21240   0.306   7.158   1.451  0.9399 -0.2762  0.2524
 6600SOL    HW121241   0.349   7.092   1.396  0.3258 -1.0632  0.6993
 6600SOL    HW221242   0.375   7.223   1.468  1.7969 -1.2176  0.4883
 6601SOL     OW21243   0.654   5.896   2.604  0.1096 -0.2898  0.1449
 6601SOL    HW121244   0.700   5.814   2.588 -0.1918 -0.7772  1.5998
 6601SOL    HW221245   0.721   5.954   2.641  0.1429 -0.1459 -0.1423
 6602SOL     OW21246   1.403   2.360  11.435  0.0034  0.8975 -0.4574
 6602SOL    HW121247   1.391   2.327  11.346 -1.3289 -0.2385  0.1092
 6602SOL    HW221248   1.432   2.284  11.486 -4.3831 -0.0050  1.1564
 6603SOL     OW21249   0.406   5.527   2.102  0.1459  0.5343  0.3642
 6603SOL    HW121250   0.380   5.508   2.192 -0.1325  0.3467  0.2452
 6603SOL    HW221251   0.491   5.570   2.111  1.4970 -1.9602  0.5924
 6604SOL     OW21252   7.175   0.825  10.400  0.1223 -0.6353 -0.0286
 6604SOL    HW121253   7.095   0.844  10.351 -0.4935 -1.5884  0.5823
 6604SOL    HW221254   7.155   0.853  10.489  0.1971 -1.5373  0.2806
 6605SOL     OW21255   7.949   4.191   2.250  0.3776  0.4142  0.0322
 6605SOL    HW121256   7.961   4.280   2.218 -0.7199  0.4651 -0.2725
 6605SOL    HW221257   8.035   4.167   2.286  1.2758  0.8469 -1.6805
 6606SOL     OW21258   5.490   7.415   1.212 -0.2556  0.3132 -0.0376
 6606SOL    HW121259   5.560   7.350   1.213 -0.4775 -0.0234 -2.0271
 6606SOL    HW221260   5.514   7.476   1.143 -2.5638 -0.6471 -1.8386
 6607SOL     OW21261   1.801   2.887   9.898  0.1517 -0.5417 -0.2112
 6607SOL    HW121262   1.712   2.884   9.934  0.1705  0.5825 -0.0534
 6607SOL    HW221263   1.837   2.800   9.917 -1.7229 -1.9339 -2.4353
 6608SOL     OW21264   4.580   6.588   8.136  0.4844  0.5775  0.2910
 6608SOL    HW121265   4.550   6.509   8.181  0.1453 -0.5470 -1.7638
 6608SOL    HW221266   4.501   6.638   8.119  0.4419  0.3509 -0.1959
 6609SOL     OW21267   5.732   7.280   1.214 -0.2041  0.3415 -0.1166
 6609SOL    HW121268   5.806   7.224   1.192  0.3010  1.7644 -2.3229
 6609SOL    HW221269   5.770   7.348   1.271  0.3905  1.3998 -1.7054
 6610SOL     OW21270   6.288   3.489   1.748  0.3209 -0.0338  0.1260
 6610SOL    HW121271   6.352   3.432   1.791  0.4975  0.0623 -0.0081
 6610SOL    HW221272   6.256   3.546   1.818  0.0795 -0.3489  0.2810
 6611SOL     OW21273   6.397   3.167   1.352 -0.2404  0.5323  0.2251
 6611SOL    HW121274   6.378   3.125   1.436 -1.2289 -3.2131 -1.6927
 6611SOL    HW221275   6.318   3.154   1.300  1.3707  0.0135 -2.2610
 6612SOL     OW21276   5.914   3.538   8.812  0.6341 -0.5425 -0.2278
 6612SOL    HW121277   5.980   3.474   8.843 -0.2334 -1.6874 -0.6674
 6612SOL    HW221278   5.839   3.484   8.787  0.2558  0.5838 -1.6266
 6613SOL     OW21279   4.215   0.710   2.833 -0.0420 -0.3436  0.0451
 6613SOL    HW121280   4.230   0.617   2.851 -0.2940 -0.0078  2.3758
 6613SOL    HW221281   4.120   0.718   2.825 -0.2775  0.0169  2.4016
 6614SOL     OW21282   4.799   1.158   9.781  0.7252 -0.2612 -0.0737
 6614SOL    HW121283   4.712   1.190   9.805  1.0946  1.4134 -0.7850
 6614SOL    HW221284   4.785   1.068   9.754 -0.8014 -0.0220 -0.1617
 6615SOL     OW21285   2.231   2.110  11.231 -0.6593 -0.6540 -0.1286
 6615SOL    HW121286   2.209   2.019  11.250  1.1892 -1.4993 -1.7117
 6615SOL    HW221287   2.199   2.124  11.141 -1.5272  0.4917  0.3395
 6616SOL     OW21288   0.640   4.114   1.738  0.1252  0.0624 -0.0592
 6616SOL    HW121289   0.631   4.153   1.651  1.1175  0.3741 -0.0407
 6616SOL    HW221290   0.657   4.021   1.721  0.3549  0.1297 -0.2098
 6617SOL     OW21291   0.046   3.953   5.630 -0.4304 -0.0870  0.2545
 6617SOL    HW121292  -0.013   3.967   5.705 -1.6812  0.1003 -0.7184
 6617SOL    HW221293  -0.009   3.909   5.565  0.1929  1.0856 -1.1234
 6618SOL     OW21294   4.269   3.306   0.645 -0.3729  0.3178  0.0265
 6618SOL    HW121295   4.244   3.295   0.553 -0.4412 -1.6776  0.2308
 6618SOL    HW221296   4.346   3.363   0.642  0.8956 -1.3521 -1.4915
 6619SOL     OW21297   3.479   3.101  10.738 -0.2114 -0.1252 -0.2703
 6619SOL    HW121298   3.539   3.051  10.794  0.0981  0.9815  0.4058
 6619SOL    HW221299   3.438   3.034  10.682  1.4642 -0.9413 -0.5864
 6620SOL     OW21300   0.346   4.156  11.682 -0.0869 -0.0267 -0.6420
 6620SOL    HW121301   0.438   4.162  11.657  0.4205 -0.3177  1.0566
 6620SOL    HW221302   0.336   4.219  11.753 -0.6323 -1.6043  0.7345
 6621SOL     OW21303   0.118   5.023   9.437  0.3465 -0.3268 -0.2560
 6621SOL    HW121304   0.210   5.009   9.463  0.1799 -1.1285 -0.0510
 6621SOL    HW221305   0.093   4.941   9.394 -0.3457 -0.2024 -0.0980
 6622SOL     OW21306   0.391   7.854   1.804 -0.3529 -0.1967 -0.1920
 6622SOL    HW121307   0.369   7.761   1.812  0.1259 -0.5575 -2.3347
 6622SOL    HW221308   0.366   7.892   1.888 -1.0368 -2.1589  0.5562
 6623SOL     OW21309   0.254   3.881  11.273 -0.4053 -0.1549  0.1867
 6623SOL    HW121310   0.195   3.833  11.331 -0.7140 -0.3203 -0.2641
 6623SOL    HW221311   0.337   3.884  11.321 -0.1332 -1.8553 -0.1023
 6624SOL     OW21312   4.491   2.854   9.813 -0.3961 -0.0674 -0.0765
 6624SOL    HW121313   4.521   2.779   9.762 -0.4990  0.2874 -0.6600
 6624SOL    HW221314   4.524   2.930   9.766 -0.6505  0.2689  0.2831
 6625SOL     OW21315   0.338   0.784   8.638  0.4436 -0.1945  0.0100
 6625SOL    HW121316   0.269   0.737   8.591 -0.6930  0.3857  1.0511
 6625SOL    HW221317   0.419   0.761   8.591 -0.2604 -1.9554 -0.4303
 6626SOL     OW21318   1.949   0.581   8.561 -0.6810  0.4196  0.0310
 6626SOL    HW121319   1.964   0.516   8.492  0.6937  1.4142 -0.6549
 6626SOL    HW221320   1.854   0.592   8.564 -1.1239 -2.5930  1.1234
 6627SOL     OW21321   2.176   2.140   0.808  0.2268  0.4464  0.0015
 6627SOL    HW121322   2.142   2.227   0.829  0.9288  0.8811 -0.5780
 6627SOL    HW221323   2.229   2.154   0.729  1.2392 -0.2985  0.5211
 6628SOL     OW21324   2.348   3.480   1.017 -0.4869 -0.0034  0.5837
 6628SOL    HW121325   2.283   3.549   1.029 -0.0240  0.4228  0.6672
 6628SOL    HW221326   2.307   3.402   1.055 -0.9655  0.2492  0.5952
 6629SOL     OW21327   7.958   3.072  11.414 -0.2063 -0.1630  0.0091
 6629SOL    HW121328   7.929   2.982  11.426  0.5239 -0.3983  0.0352
 6629SOL    HW221329   8.053   3.069  11.424 -0.2845  0.8309  1.4367
 6630SOL     OW21330   2.892   6.585   6.834  0.2462  0.1598 -0.0367
 6630SOL    HW121331   2.811   6.633   6.815  0.0427  0.6979  2.0214
 6630SOL    HW221332   2.867   6.492   6.827 -0.1620  0.3170 -0.8341
 6631SOL     OW21333   3.734   4.085  10.851 -0.0846  0.0856  0.0859
 6631SOL    HW121334   3.758   4.124  10.936  1.9477 -1.3887  0.2576
 6631SOL    HW221335   3.769   4.147  10.786 -0.0794  0.3475  0.3348
 6632SOL     OW21336   1.765   4.191  10.408 -0.4634  0.2321 -0.0004
 6632SOL    HW121337   1.753   4.193  10.313 -0.1886 -0.2115 -0.0433
 6632SOL    HW221338   1.846   4.240  10.423 -0.5037  0.2972  0.0072
 6633SOL     OW21339   1.767   1.255  12.136  0.1089  0.1449  0.3781
 6633SOL    HW121340   1.843   1.312  12.149  0.9178 -0.8679  0.2795
 6633SOL    HW221341   1.780   1.218  12.049 -1.6451  1.5829 -0.5597
 6634SOL     OW21342   0.849   6.995   6.397 -0.3464  0.0031 -0.0997
 6634SOL    HW121343   0.786   6.933   6.360 -1.5628  0.3023  1.3808
 6634SOL    HW221344   0.887   7.038   6.320  0.4606 -2.4424 -1.1765
 6635SOL     OW21345   0.674   6.419   6.598  0.1462  0.1664 -0.2003
 6635SOL    HW121346   0.633   6.491   6.646 -3.3584 -0.8621 -1.3701
 6635SOL    HW221347   0.669   6.444   6.506 -0.1572 -1.0904 -0.5454
 6636SOL     OW21348   2.433   1.456  10.025  0.4090 -0.5491  0.2567
 6636SOL    HW121349   2.466   1.368  10.044  0.3856 -1.3950 -3.0417
 6636SOL    HW221350   2.485   1.485   9.950 -1.4473  1.0659 -0.4836
 6637SOL     OW21351   7.479   0.877  10.446 -0.3191  0.6899  0.0275
 6637SOL    HW121352   7.406   0.851  10.390 -0.9301 -1.1022  1.5315
 6637SOL    HW221353   7.471   0.972  10.453 -2.2324  0.5942 -0.2574
 6638SOL     OW21354   2.040   0.174  12.091  0.8279 -0.0633 -0.7503
 6638SOL    HW121355   2.110   0.126  12.047  0.3437 -1.0773 -0.4443
 6638SOL    HW221356   2.021   0.122  12.169 -0.1132  0.3206 -0.7122
 6639SOL     OW21357   7.975   3.834   4.926  0.1586  0.2565  0.2049
 6639SOL    HW121358   8.022   3.896   4.870  0.2536  0.6496  0.7117
 6639SOL    HW221359   8.015   3.749   4.907 -0.7930  0.1279 -1.4021
 6640SOL     OW21360   5.471   5.692  11.373  0.0065  0.3923  0.4564
 6640SOL    HW121361   5.556   5.712  11.332 -0.3797 -0.0414 -0.5778
 6640SOL    HW221362   5.407   5.737  11.318 -0.5239 -0.2027  0.5772
 6641SOL     OW21363   2.800   3.139   4.419  0.3770  0.0766 -0.0739
 6641SOL    HW121364   2.754   3.148   4.503  0.6366 -0.0546  0.0797
 6641SOL    HW221365   2.797   3.228   4.382 -0.4065 -0.0254 -0.2763
 6642SOL     OW21366   2.209   0.316   2.079 -0.3621  0.3716 -0.4400
 6642SOL    HW121367   2.147   0.313   2.153 -1.6554 -2.9015 -1.4523
 6642SOL    HW221368   2.170   0.377   2.017 -1.5493 -0.0891 -0.1766
 6643SOL     OW21369   6.813   3.563  10.921 -0.3450 -0.1217  0.9573
 6643SOL    HW121370   6.763   3.483  10.909 -1.0341  0.4111  0.0897
 6643SOL    HW221371   6.822   3.573  11.015 -2.1529 -0.0811  1.1551
 6644SOL     OW21372   5.424   4.306   7.736 -0.2012  0.6038 -0.1593
 6644SOL    HW121373   5.450   4.214   7.738  0.8184  0.8519  2.4929
 6644SOL    HW221374   5.381   4.320   7.820 -1.1700  2.3508 -0.9004
 6645SOL     OW21375   6.485   5.526   5.237  0.4685  0.3448 -0.2031
 6645SOL    HW121376   6.397   5.497   5.213  0.3690  0.7885 -0.3903
 6645SOL    HW221377   6.497   5.607   5.187  1.4815 -0.3846 -1.1930
 6646SOL     OW21378   2.008   5.131   9.927 -0.2295 -0.0709  0.5987
 6646SOL    HW121379   2.068   5.124   9.853 -1.4463 -2.1434 -0.2882
 6646SOL    HW221380   1.957   5.210   9.909 -1.6868 -1.4478 -1.7862
 6647SOL     OW21381   1.593   5.952   6.654 -0.1019  0.0241 -0.2640
 6647SOL    HW121382   1.514   5.965   6.707 -0.7608 -0.4854 -1.0988
 6647SOL    HW221383   1.595   5.858   6.636  0.8615 -0.0107 -0.0155
 6648SOL     OW21384   6.629   7.242   5.268 -0.0059  0.2553 -0.1771
 6648SOL    HW121385   6.539   7.233   5.236  0.4272  0.5672 -1.5486
 6648SOL    HW221386   6.627   7.322   5.320 -0.4231  0.5418 -0.6142
 6649SOL     OW21387   0.442   1.196   9.849 -0.3964 -0.0813 -0.1764
 6649SOL    HW121388   0.482   1.274   9.810 -0.4286 -0.0813 -0.2087
 6649SOL    HW221389   0.499   1.124   9.821  1.1074  0.2038  1.8816
 6650SOL     OW21390   2.208   7.045   9.042 -0.2829 -0.0767 -0.4457
 6650SOL    HW121391   2.277   7.067   8.979 -0.8769 -1.6211 -1.7089
 6650SOL    HW221392   2.247   7.062   9.128  1.6297 -0.7817 -1.1341
 6651SOL     OW21393   2.722   0.994   4.986  0.2550 -0.5790 -0.2944
 6651SOL    HW121394   2.682   0.932   5.046 -2.0831 -0.1260 -1.2683
 6651SOL    HW221395   2.653   1.057   4.967  1.7250  0.7876 -1.4304
 6652SOL     OW21396   6.224   7.165   7.532  0.0241 -0.2449 -0.2336
 6652SOL    HW121397   6.270   7.118   7.463 -0.2850  0.9287 -1.2626
 6652SOL    HW221398   6.293   7.186   7.596  0.3094 -1.3261 -0.1638
 6653SOL     OW21399   6.619   3.196   0.621 -0.4120  0.0057 -0.4799
 6653SOL    HW121400   6.547   3.183   0.560  1.0817 -1.6217 -2.0074
 6653SOL    HW221401   6.580   3.182   0.707 -2.1271  0.2238 -1.1834
 6654SOL     OW21402   7.909   5.585  11.807  0.4112  0.4205 -0.0383
 6654SOL    HW121403   8.004   5.585  11.807  0.4217 -0.8279 -0.4718
 6654SOL    HW221404   7.885   5.574  11.899  0.7088 -0.8038 -0.0946
 6655SOL     OW21405   2.532   4.232   0.543 -0.0397  0.1649 -0.3902
 6655SOL    HW121406   2.550   4.139   0.554  0.7284  0.4928  1.6007
 6655SOL    HW221407   2.518   4.264   0.632 -0.0503  1.9962 -1.0143
 6656SOL     OW21408   4.109   3.876   4.708 -0.4055  0.9236  0.1262
 6656SOL    HW121409   4.051   3.863   4.633 -1.2426  0.3889  0.8485
 6656SOL    HW221410   4.112   3.971   4.720 -1.5352  0.9399  0.3847
 6657SOL     OW21411   3.923   7.341   4.348 -0.4722 -0.2776  0.2125
 6657SOL    HW121412   3.949   7.249   4.347 -3.6175 -1.2833 -0.5200
 6657SOL    HW221413   3.962   7.377   4.427  1.8224 -1.8739 -0.1047
 6658SOL     OW21414   6.120   4.952   2.906  0.6904  0.4730 -0.7760
 6658SOL    HW121415   6.173   4.985   2.833  1.1430 -0.3288 -0.8338
 6658SOL    HW221416   6.183   4.903   2.959  0.4943  1.5790  0.5066
 6659SOL     OW21417   2.036   0.672   8.811  0.3036  0.3950 -0.0383
 6659SOL    HW121418   2.047   0.616   8.734 -0.4923 -1.4783  1.1298
 6659SOL    HW221419   2.110   0.733   8.807 -0.2949  1.0677 -2.8053
 6660SOL     OW21420   0.927   2.411  10.545  0.3361  0.2628  0.0303
 6660SOL    HW121421   1.003   2.354  10.537  0.6987  0.7516 -0.0348
 6660SOL    HW221422   0.852   2.352  10.538  0.6973 -0.1044 -0.7980
 6661SOL     OW21423   2.013   6.774   1.795  0.2302 -0.1227  0.1625
 6661SOL    HW121424   2.033   6.841   1.730 -1.8521 -0.3811 -0.8192
 6661SOL    HW221425   2.099   6.746   1.828  1.2785  0.9197 -1.5335
 6662SOL     OW21426   1.335   3.372   3.062 -0.5121 -0.4421  0.4847
 6662SOL    HW121427   1.277   3.419   3.002  0.2004  0.0533  0.1668
 6662SOL    HW221428   1.423   3.398   3.035 -0.0616 -2.3117 -0.0030
 6663SOL     OW21429   6.239   2.584  11.069  0.1542 -0.3239 -0.1533
 6663SOL    HW121430   6.206   2.671  11.093  2.1482  0.2981  0.5526
 6663SOL    HW221431   6.186   2.523  11.119  0.1769  0.6235  1.0635
 6664SOL     OW21432   7.355   1.801   8.005 -0.0298 -0.2118 -0.0852
 6664SOL    HW121433   7.298   1.875   7.985  1.1836  1.6807  2.8330
 6664SOL    HW221434   7.431   1.814   7.948  1.4012  2.5324  2.1731
 6665SOL     OW21435   7.297   0.865   1.744  0.1909  0.0113 -0.5510
 6665SOL    HW121436   7.343   0.932   1.695 -0.1657  0.2037 -0.6230
 6665SOL    HW221437   7.205   0.891   1.742  0.2091  0.2452  0.5573
 6666SOL     OW21438   5.682   0.742   4.088 -0.0089  0.0299 -0.0763
 6666SOL    HW121439   5.714   0.651   4.091  1.0375  0.3884  0.0660
 6666SOL    HW221440   5.616   0.746   4.157  0.1413 -0.5477  0.1110
 6667SOL     OW21441   5.389   0.307  10.955 -0.6264 -0.0264  0.2074
 6667SOL    HW121442   5.331   0.377  10.986 -1.4315  0.2713 -1.8465
 6667SOL    HW221443   5.377   0.236  11.019 -0.7825  1.2087  1.5938
 6668SOL     OW21444   5.655   3.454   6.712 -0.0855 -0.4506 -0.2454
 6668SOL    HW121445   5.609   3.483   6.633  0.2712 -1.5832 -0.8853
 6668SOL    HW221446   5.744   3.487   6.701 -0.0046 -0.7108 -0.3771
 6669SOL     OW21447   7.835   4.544  10.430 -0.1396 -0.1097  0.1845
 6669SOL    HW121448   7.822   4.638  10.420 -0.3211 -0.1144  0.3479
 6669SOL    HW221449   7.821   4.528  10.524  1.6478 -0.0369  0.4879
 6670SOL     OW21450   1.210   2.045   7.847  0.6898 -0.1186 -0.2536
 6670SOL    HW121451   1.226   1.969   7.903  0.5799  1.3854  1.9529
 6670SOL    HW221452   1.295   2.065   7.809  1.0998 -0.3642  0.5099
 6671SOL     OW21453   3.940   4.850   3.288  0.1840  0.0176 -0.0845
 6671SOL    HW121454   4.029   4.839   3.321  0.6687  1.8353 -0.6680
 6671SOL    HW221455   3.931   4.784   3.219  1.5317  0.6197 -0.8630
 6672SOL     OW21456   1.437   3.538   9.903  0.2027  0.0137  0.4402
 6672SOL    HW121457   1.428   3.624   9.863 -0.0291 -0.1770  0.0648
 6672SOL    HW221458   1.516   3.543   9.955  0.1797  0.4601  0.4347
 6673SOL     OW21459   6.353   0.134   4.753  0.0786  0.0670 -0.4181
 6673SOL    HW121460   6.310   0.152   4.669 -0.5348  1.0294  0.0860
 6673SOL    HW221461   6.401   0.214   4.774 -0.5623  0.2040  0.6035
 6674SOL     OW21462   5.501   1.736  11.205 -0.2066 -0.2250 -0.5234
 6674SOL    HW121463   5.518   1.825  11.236  0.3063 -0.1467 -1.0158
 6674SOL    HW221464   5.405   1.728  11.204 -0.2752 -0.5131  1.8619
 6675SOL     OW21465   3.907   7.183   7.707  0.0718 -0.1933  0.4229
 6675SOL    HW121466   3.953   7.164   7.624 -1.3483  0.8115 -0.6449
 6675SOL    HW221467   3.954   7.131   7.772  0.1845 -2.3968 -1.2760
 6676SOL     OW21468   5.257   4.304   6.140  0.3263 -0.4608  0.0863
 6676SOL    HW121469   5.323   4.292   6.208  3.1450  1.2888 -2.0871
 6676SOL    HW221470   5.249   4.219   6.098  0.5001 -0.9261  0.9815
 6677SOL     OW21471   6.476   0.213  11.898  0.0943 -0.0914  0.8474
 6677SOL    HW121472   6.430   0.257  11.827  1.6694 -0.4956 -0.4862
 6677SOL    HW221473   6.445   0.123  11.895  0.3579 -0.1697  0.5015
 6678SOL     OW21474   5.084   7.581   1.033  0.3721  0.1037  0.3188
 6678SOL    HW121475   5.071   7.490   1.061  2.2307 -0.2036  0.2671
 6678SOL    HW221476   5.039   7.632   1.100 -0.4100 -0.8287  0.5395
 6679SOL     OW21477   5.234   2.418   8.398  0.3507  0.1077 -0.1026
 6679SOL    HW121478   5.248   2.512   8.388 -1.1373  0.3715  0.1579
 6679SOL    HW221479   5.144   2.409   8.428  0.1654 -1.4584 -0.9859
 6680SOL     OW21480   3.618   0.518   5.740  0.1468  0.1205  0.1912
 6680SOL    HW121481   3.591   0.440   5.690 -1.0233 -0.3577  1.5014
 6680SOL    HW221482   3.543   0.577   5.734  1.0870  1.2611 -0.9256
 6681SOL     OW21483   6.509   2.192   1.918 -0.3960 -0.0905 -0.0370
 6681SOL    HW121484   6.421   2.204   1.955 -1.1332 -0.9044 -1.4394
 6681SOL    HW221485   6.501   2.114   1.863  0.4959  1.3323 -2.3166
 6682SOL     OW21486   5.434   3.687   1.848 -0.0656  0.3236 -0.1365
 6682SOL    HW121487   5.431   3.764   1.792  2.1285  0.3695 -0.2778
 6682SOL    HW221488   5.505   3.705   1.910  0.1856 -1.3792  0.1297
 6683SOL     OW21489   2.357   1.110   5.497 -0.1998  0.1529 -0.3539
 6683SOL    HW121490   2.316   1.196   5.508 -0.8578 -0.1434 -0.4096
 6683SOL    HW221491   2.344   1.089   5.405  2.0793  1.0266 -0.9385
 6684SOL     OW21492   0.233   3.768   6.594 -0.8305  1.0799 -0.3137
 6684SOL    HW121493   0.156   3.810   6.555 -0.5595  0.8651 -1.0978
 6684SOL    HW221494   0.305   3.792   6.535 -0.2658  1.4071  0.4956
 6685SOL     OW21495   4.081   2.415   0.576  0.0115 -0.4455  0.2899
 6685SOL    HW121496   4.101   2.341   0.519  1.6973  1.2610 -1.4775
 6685SOL    HW221497   4.002   2.455   0.537  0.8672  0.4191 -0.6212
 6686SOL     OW21498   1.958   0.072   1.488 -0.4917 -0.0932 -0.0767
 6686SOL    HW121499   1.951  -0.020   1.463 -0.4843 -0.4273  1.0926
 6686SOL    HW221500   1.876   0.092   1.532 -0.7472  0.6451 -0.8647
 6687SOL     OW21501   3.679   7.063   3.359  0.0477  0.2399  0.0817
 6687SOL    HW121502   3.660   7.124   3.430  1.1351  0.4117  0.2525
 6687SOL    HW221503   3.712   6.985   3.403 -0.4289 -0.1128 -0.1822
 6688SOL     OW21504   3.100   2.409   0.624  0.5369  0.1322 -0.4633
 6688SOL    HW121505   3.034   2.350   0.590  1.3462 -0.2627 -1.3986
 6688SOL    HW221506   3.162   2.353   0.669 -0.0873  0.5694  0.9945
 6689SOL     OW21507   7.425   4.251   6.710 -0.3984 -0.2976  0.7539
 6689SOL    HW121508   7.444   4.238   6.803  0.4997 -1.6077  0.4229
 6689SOL    HW221509   7.438   4.164   6.670  1.9495  0.7344 -1.0239
 6690SOL     OW21510   6.652   2.911  10.520 -0.0222 -0.1873  0.2921
 6690SOL    HW121511   6.674   3.001  10.498  0.6287 -0.3235  0.3836
 6690SOL    HW221512   6.576   2.919  10.578  1.6342  0.4733  2.5309
 6691SOL     OW21513   2.892   0.813   5.241 -0.5898 -0.4068  0.7377
 6691SOL    HW121514   2.877   0.722   5.269  0.2674 -1.0806 -0.9029
 6691SOL    HW221515   2.804   0.846   5.220 -1.2315 -0.0214  3.5509
 6692SOL     OW21516   4.923   1.474   6.896  0.1349 -0.2367  0.1032
 6692SOL    HW121517   4.848   1.503   6.846 -0.2359  0.5874  1.0879
 6692SOL    HW221518   4.887   1.417   6.964  0.4157 -0.0435  0.4231
 6693SOL     OW21519   6.963   4.184  10.642 -0.3460  0.2423 -0.5201
 6693SOL    HW121520   6.909   4.106  10.628 -1.1677  0.5324  0.8658
 6693SOL    HW221521   6.922   4.228  10.716  1.2817  0.9610 -0.0131
 6694SOL     OW21522   4.973   7.398   0.411 -1.0274  0.1407  0.2915
 6694SOL    HW121523   5.069   7.394   0.411 -1.0383 -0.1274  0.2232
 6694SOL    HW221524   4.953   7.483   0.450 -0.7444  0.5822 -0.4996
 6695SOL     OW21525   1.091   2.592  12.264  0.1849  0.1065  0.4815
 6695SOL    HW121526   1.016   2.633  12.306  0.4118  1.2634 -0.2098
 6695SOL    HW221527   1.153   2.664  12.249  1.1542 -0.7080  0.4359
 6696SOL     OW21528   5.122   3.405   8.522  0.1319 -0.2597  0.3794
 6696SOL    HW121529   5.053   3.457   8.482  0.8056  1.0332  0.8529
 6696SOL    HW221530   5.119   3.428   8.615  0.1653 -1.4072  0.6859
 6697SOL     OW21531   4.276   4.232   6.364 -0.1744  0.0298  0.5805
 6697SOL    HW121532   4.320   4.303   6.318  1.8854 -0.6100  1.4526
 6697SOL    HW221533   4.238   4.179   6.295 -0.2176  0.9961 -0.1693
 6698SOL     OW21534   7.151   5.507   1.297  0.3291 -0.3262  0.5311
 6698SOL    HW121535   7.122   5.422   1.264 -2.2647  0.4363  0.6316
 6698SOL    HW221536   7.125   5.507   1.389  0.9594  0.3084  0.7157
 6699SOL     OW21537   6.194   7.594   9.608 -0.1551  0.2201 -0.1138
 6699SOL    HW121538   6.245   7.617   9.530 -1.9189  0.8087 -1.1580
 6699SOL    HW221539   6.157   7.677   9.638 -0.8836 -0.2458  0.3150
 6700SOL     OW21540   2.347   7.204   5.591  0.5078 -0.5279 -0.6472
 6700SOL    HW121541   2.438   7.216   5.616  0.5762  0.4434 -1.3029
 6700SOL    HW221542   2.321   7.121   5.632  1.8433 -1.1076 -0.9300
 6701SOL     OW21543   4.748   1.636   0.586  0.3628  0.1039 -0.7628
 6701SOL    HW121544   4.706   1.696   0.525  0.5252  0.6529 -0.3382
 6701SOL    HW221545   4.695   1.556   0.581 -0.3820  0.5803 -0.6834
 6702SOL     OW21546   2.953   1.902  10.653 -0.4127 -0.6763 -0.3086
 6702SOL    HW121547   2.965   1.841  10.726  0.5987  0.0955  0.1815
 6702SOL    HW221548   2.864   1.936  10.666 -0.5208 -1.0951  0.1248
 6703SOL     OW21549   6.746   1.482   2.490 -0.4259  0.5218 -0.8008
 6703SOL    HW121550   6.761   1.487   2.395 -1.5106 -0.1204 -1.0275
 6703SOL    HW221551   6.658   1.517   2.502 -0.5009  0.1156 -0.0993
 6704SOL     OW21552   6.898   5.629   3.688  0.2140  0.5892  0.1048
 6704SOL    HW121553   6.952   5.557   3.721 -1.1209 -0.7838 -0.5888
 6704SOL    HW221554   6.808   5.600   3.703 -0.3663  1.6763 -1.1223
 6705SOL     OW21555   1.287   7.200   3.120  0.4264  0.1233 -0.9916
 6705SOL    HW121556   1.296   7.281   3.070  3.5959 -0.1575 -1.0719
 6705SOL    HW221557   1.305   7.130   3.057  1.4738 -0.3994 -0.1436
 6706SOL     OW21558   5.661   3.823  11.522 -0.0153 -0.1941 -0.1256
 6706SOL    HW121559   5.600   3.836  11.449 -1.4345  0.9361  1.1591
 6706SOL    HW221560   5.717   3.751  11.495 -1.5287 -0.8730 -1.6736
 6707SOL     OW21561   1.497   2.064   7.760 -0.6818  0.0919 -0.3264
 6707SOL    HW121562   1.543   2.130   7.707 -0.2089  0.6353  0.7389
 6707SOL    HW221563   1.567   2.018   7.807 -0.9613 -1.4730 -1.3337
 6708SOL     OW21564   5.377   2.889   3.599 -1.2013 -0.1335  0.0465
 6708SOL    HW121565   5.405   2.936   3.521 -0.4920 -0.3250  0.1773
 6708SOL    HW221566   5.354   2.957   3.662  0.6578  0.0950  0.5477
 6709SOL     OW21567   4.331   5.118  12.088 -0.1106  0.3128  0.0069
 6709SOL    HW121568   4.257   5.155  12.137 -0.3250  1.0296 -0.8207
 6709SOL    HW221569   4.361   5.190  12.032  0.8076 -0.1665 -0.1335
 6710SOL     OW21570   1.474   2.247   5.446  0.3438  0.0046 -0.5886
 6710SOL    HW121571   1.458   2.176   5.384  0.6007  0.3802 -1.0923
 6710SOL    HW221572   1.414   2.316   5.418  0.0509 -0.0351 -0.0643
 6711SOL     OW21573   4.768   5.054   7.264  0.1633 -0.1356 -0.3737
 6711SOL    HW121574   4.836   5.121   7.251 -0.4176  0.7387  0.9013
 6711SOL    HW221575   4.810   4.987   7.318  0.7374 -0.8231 -1.6264
 6712SOL     OW21576   3.341   6.728  10.184  0.5833  0.2037  0.1674
 6712SOL    HW121577   3.354   6.817  10.216  0.8005 -0.3074  1.5828
 6712SOL    HW221578   3.246   6.715  10.186  0.6541 -0.2676  1.9707
 6713SOL     OW21579   6.723   1.029  11.654  0.0031  0.2113 -0.7267
 6713SOL    HW121580   6.721   1.012  11.748  0.1442  2.9383 -0.1447
 6713SOL    HW221581   6.689   0.949  11.614  1.3775 -1.6163  1.5063
 6714SOL     OW21582   4.888   6.766   9.816 -0.3839  0.6942  0.0149
 6714SOL    HW121583   4.969   6.727   9.784 -1.0978 -0.7786 -0.0822
 6714SOL    HW221584   4.832   6.772   9.738  0.1553  3.1972 -0.2455
 6715SOL     OW21585   5.178   0.643   5.532  0.6040 -0.0535  0.3895
 6715SOL    HW121586   5.148   0.726   5.495 -0.4204  0.7330  2.7512
 6715SOL    HW221587   5.270   0.657   5.554  1.1328 -0.4279 -1.4254
 6716SOL     OW21588   1.429   4.962   1.840  0.3854 -0.5161 -0.8190
 6716SOL    HW121589   1.499   5.026   1.852  0.3829 -0.1744 -2.3829
 6716SOL    HW221590   1.349   5.009   1.864  0.6501 -1.0164  1.3254
 6717SOL     OW21591   5.537   6.697   3.107  0.3128 -0.0954  0.1016
 6717SOL    HW121592   5.444   6.719   3.102 -0.0497 -1.7385 -1.8252
 6717SOL    HW221593   5.566   6.733   3.191 -1.8541  1.1233  0.4060
 6718SOL     OW21594   1.547   1.124   8.980 -0.0476 -0.0424 -0.5237
 6718SOL    HW121595   1.589   1.206   9.005  0.7577 -0.2000 -1.2658
 6718SOL    HW221596   1.570   1.063   9.050 -1.1489  0.5066  0.3278
 6719SOL     OW21597   7.382   2.621   7.924  0.1386 -1.0600  0.4912
 6719SOL    HW121598   7.396   2.529   7.898 -2.3647 -1.5946  0.7968
 6719SOL    HW221599   7.365   2.667   7.842 -0.5503 -1.2793  0.5069
 6720SOL     OW21600   2.593   2.866   5.199 -0.0506 -0.6404  0.3135
 6720SOL    HW121601   2.619   2.888   5.288 -0.1233 -1.5359  0.5637
 6720SOL    HW221602   2.657   2.911   5.143 -0.5633  0.7001  0.7696
 6721SOL     OW21603   4.254   6.085   2.673 -0.3432  0.3892  0.1607
 6721SOL    HW121604   4.307   6.156   2.709 -1.1011  0.8792  0.3279
 6721SOL    HW221605   4.217   6.042   2.750  1.1488 -1.0428  0.1446
 6722SOL     OW21606   1.965   5.061   8.418 -0.0857 -0.3975  0.2324
 6722SOL    HW121607   2.002   5.122   8.481 -0.2019 -0.3317  0.2365
 6722SOL    HW221608   1.910   5.003   8.471 -0.4902 -0.1007  0.1365
 6723SOL     OW21609   2.990   6.733   6.384  0.3057  0.2569 -0.2086
 6723SOL    HW121610   3.021   6.662   6.440  0.2877 -0.2818 -0.8702
 6723SOL    HW221611   2.974   6.692   6.299 -0.8022  0.8270 -0.2972
 6724SOL     OW21612   2.333   3.882  10.684  0.7688  0.9551 -0.7782
 6724SOL    HW121613   2.408   3.909  10.737  0.1652 -0.1786  0.7359
 6724SOL    HW221614   2.372   3.844  10.605  1.8503 -0.3560  0.3338
 6725SOL     OW21615   0.355   7.902   3.726 -0.6931  0.0445  0.3847
 6725SOL    HW121616   0.335   7.862   3.811  2.4501  1.3710  1.9628
 6725SOL    HW221617   0.338   7.996   3.740 -0.7603  0.1913 -0.6670
 6726SOL     OW21618   1.029   6.392  11.031  0.3140 -0.4242  0.6850
 6726SOL    HW121619   0.965   6.462  11.015 -1.7974 -2.2932  0.4612
 6726SOL    HW221620   0.995   6.345  11.108  2.3700 -0.4923  1.6321
 6727SOL     OW21621   4.601   0.264   4.325 -0.0314 -0.3115 -0.3371
 6727SOL    HW121622   4.568   0.354   4.322 -0.2019 -0.3937 -1.4260
 6727SOL    HW221623   4.571   0.225   4.243 -1.2694 -1.8378  0.7727
 6728SOL     OW21624   4.533   7.170   0.038 -0.5458 -0.5221 -0.0432
 6728SOL    HW121625   4.586   7.091   0.044 -0.6371 -0.4783  1.9606
 6728SOL    HW221626   4.484   7.173   0.120 -1.5163  0.9382 -0.6284
 6729SOL     OW21627   7.526   4.633   5.314  0.6855 -0.2095  0.1336
 6729SOL    HW121628   7.569   4.715   5.291 -1.7507  0.8212 -1.1650
 6729SOL    HW221629   7.567   4.568   5.257  0.7922  0.6657 -0.8131
 6730SOL     OW21630   5.816   5.558   3.710  0.1118 -0.0135  0.4104
 6730SOL    HW121631   5.887   5.511   3.666  0.5135  0.1286  0.9094
 6730SOL    HW221632   5.850   5.580   3.796 -0.1841  0.9255  0.2974
 6731SOL     OW21633   3.017   6.147   8.161  0.4834  0.4705 -0.2091
 6731SOL    HW121634   2.943   6.086   8.168 -1.4539  2.5141 -1.3175
 6731SOL    HW221635   3.093   6.092   8.142 -0.8171 -1.7040  0.6053
 6732SOL     OW21636   4.300   6.632  10.464  0.2177 -0.7225  0.1760
 6732SOL    HW121637   4.340   6.583  10.393 -2.6582 -1.8161 -0.8327
 6732SOL    HW221638   4.309   6.575  10.541  0.7620 -0.8298  0.0396
 6733SOL     OW21639   6.724   5.525   1.046  0.0454  0.0872  0.0591
 6733SOL    HW121640   6.806   5.545   1.092  0.2516 -1.8612  0.6426
 6733SOL    HW221641   6.728   5.577   0.967  0.9988  1.4206  0.9398
 6734SOL     OW21642   3.521   3.577  10.160  0.3691  0.3276  0.0411
 6734SOL    HW121643   3.552   3.496  10.202 -0.6756  0.0477  0.3116
 6734SOL    HW221644   3.512   3.553  10.067 -0.0195  0.0977  0.1338
 6735SOL     OW21645   6.236   3.620   8.996 -0.0445  0.2107  0.8226
 6735SOL    HW121646   6.152   3.663   8.980 -0.3966 -0.9100 -0.5009
 6735SOL    HW221647   6.219   3.561   9.070 -0.1372  0.7463  1.2304
 6736SOL     OW21648   6.864   1.007   1.044  0.7574  0.0131  0.9487
 6736SOL    HW121649   6.946   0.962   1.025  0.7609  0.3385  0.1749
 6736SOL    HW221650   6.860   1.079   0.981  0.4971  0.7864  1.8234
 6737SOL     OW21651   1.809   3.831   5.161 -0.0523 -0.5397  1.0782
 6737SOL    HW121652   1.813   3.804   5.069  1.6012  4.1214 -0.5058
 6737SOL    HW221653   1.891   3.800   5.199  1.0049  0.5841 -0.1661
 6738SOL     OW21654   3.825   3.774   7.177  0.2103 -0.1630  0.2262
 6738SOL    HW121655   3.920   3.771   7.163  0.0456 -1.4657 -0.9331
 6738SOL    HW221656   3.788   3.740   7.095 -1.4032  2.8517 -0.4631
 6739SOL     OW21657   1.358   1.534   1.374 -0.4230 -0.0205  0.4355
 6739SOL    HW121658   1.436   1.584   1.394  0.7361 -0.8499 -1.6896
 6739SOL    HW221659   1.380   1.444   1.399  0.0135 -0.5648 -1.7026
 6740SOL     OW21660   1.646   4.943  11.676 -0.0856 -0.0954 -0.2727
 6740SOL    HW121661   1.658   4.883  11.749  1.5343  2.1779  1.4422
 6740SOL    HW221662   1.720   4.924  11.618 -0.7155 -1.0856 -0.7892
 6741SOL     OW21663   7.676   2.385  11.202  0.3915 -0.0077  0.2185
 6741SOL    HW121664   7.720   2.420  11.125  0.1370  2.8790  1.2872
 6741SOL    HW221665   7.588   2.361  11.170  0.5469  0.3896 -0.5354
 6742SOL     OW21666   4.298   2.343  12.378  0.0529 -0.0684  0.4458
 6742SOL    HW121667   4.274   2.434  12.394 -0.5958 -0.2800  0.7324
 6742SOL    HW221668   4.321   2.340  12.285 -1.5554  0.0676  0.0038
 6743SOL     OW21669   7.266   1.462   8.421  0.5021  0.3338  0.2191
 6743SOL    HW121670   7.201   1.528   8.399 -2.4627 -1.0325  3.7281
 6743SOL    HW221671   7.264   1.401   8.347 -0.1189  1.7245 -0.9677
 6744SOL     OW21672   3.427   0.984  12.060  0.7122  0.3359 -0.0783
 6744SOL    HW121673   3.421   1.072  12.097  0.3195 -0.2955  1.4415
 6744SOL    HW221674   3.456   0.997  11.970  1.5133  1.9676  0.3826
 6745SOL     OW21675   0.835   0.446   5.490  0.5197 -0.5105 -0.4440
 6745SOL    HW121676   0.771   0.375   5.477  3.1144 -3.1514  0.0048
 6745SOL    HW221677   0.837   0.492   5.407 -0.8066 -1.3742 -0.9954
 6746SOL     OW21678   5.028   3.681  11.050  0.2374 -0.0997  0.2652
 6746SOL    HW121679   5.036   3.624  10.974 -0.4153  0.0749  0.0600
 6746SOL    HW221680   5.068   3.764  11.024  1.0591 -0.4116  0.5156
 6747SOL     OW21681   2.345   6.189   3.939  0.2433  0.0823 -0.1662
 6747SOL    HW121682   2.341   6.161   3.847 -0.2970 -1.0548  0.1869
 6747SOL    HW221683   2.331   6.109   3.989 -0.0254  0.7848  0.9140
 6748SOL     OW21684   4.475   5.276   3.285  0.3267 -0.1895  0.5537
 6748SOL    HW121685   4.411   5.228   3.336  1.1181  0.7265  2.5417
 6748SOL    HW221686   4.559   5.234   3.305  0.8906  1.2707  1.5375
 6749SOL     OW21687   3.766   2.170  12.257 -0.1256 -0.0950 -0.2535
 6749SOL    HW121688   3.807   2.232  12.197  2.1211 -0.3877  0.8656
 6749SOL    HW221689   3.761   2.088  12.207 -0.4736  0.2641 -0.8090
 6750SOL     OW21690   2.649   2.551  11.264  0.2431  0.3681  0.3160
 6750SOL    HW121691   2.567   2.518  11.302  0.8839 -0.6079  0.8794
 6750SOL    HW221692   2.694   2.594  11.338 -0.2919  2.0198 -0.2619
 6751SOL     OW21693   2.503   2.659   2.758 -0.3534 -0.2688  0.4398
 6751SOL    HW121694   2.453   2.710   2.694  1.0513 -2.2528 -2.4840
 6751SOL    HW221695   2.594   2.666   2.728  0.4297 -1.0348  2.4728
 6752SOL     OW21696   1.860   1.472   5.527  0.0976  0.4408  0.5632
 6752SOL    HW121697   1.913   1.530   5.472 -0.1536  1.1030  0.9969
 6752SOL    HW221698   1.793   1.438   5.467  0.0171  0.9080  0.3778
 6753SOL     OW21699   6.705   7.593   8.431 -0.8003 -0.1290 -0.0750
 6753SOL    HW121700   6.725   7.519   8.489  0.0924 -0.2917 -0.5652
 6753SOL    HW221701   6.676   7.553   8.350 -0.1836  0.0458 -0.3896
 6754SOL     OW21702   6.983   7.305   3.328 -0.3021 -0.1423  0.2654
 6754SOL    HW121703   6.930   7.281   3.253  0.5031 -2.1933  0.2850
 6754SOL    HW221704   7.000   7.222   3.374  1.6121  0.6247  1.0900
 6755SOL     OW21705   2.001   5.764   7.803  0.2896  0.6268 -0.4177
 6755SOL    HW121706   1.935   5.719   7.856 -1.1513  3.0505  0.0135
 6755SOL    HW221707   1.967   5.853   7.794  3.5987  2.0611 -0.0613
 6756SOL     OW21708   1.412   7.063   0.122 -0.1089  0.5692 -0.0370
 6756SOL    HW121709   1.349   6.998   0.090  0.6043  0.4603 -1.2554
 6756SOL    HW221710   1.474   7.074   0.050  1.8823 -0.1025  1.4703
 6757SOL     OW21711   0.726   5.438  10.466  0.0959 -0.4013  0.1669
 6757SOL    HW121712   0.687   5.364  10.513  0.2049 -0.6558 -0.1377
 6757SOL    HW221713   0.675   5.444  10.385 -0.0698  0.0136  0.2974
 6758SOL     OW21714   5.010   3.087  11.469  0.4187  1.0223 -0.0040
 6758SOL    HW121715   5.023   3.007  11.521 -0.7061  1.6547  1.3311
 6758SOL    HW221716   5.016   3.058  11.378 -0.5625 -0.7141  0.4369
 6759SOL     OW21717   2.357   1.764   4.387 -0.0054 -0.1686  0.2374
 6759SOL    HW121718   2.394   1.685   4.427 -1.8347 -1.0244  0.3159
 6759SOL    HW221719   2.372   1.751   4.293 -1.5519 -1.3355  0.1157
 6760SOL     OW21720   2.143   7.435   9.794  0.5520  0.0543 -0.1487
 6760SOL    HW121721   2.092   7.461   9.717  1.1306  0.5944 -0.3600
 6760SOL    HW221722   2.096   7.361   9.831 -0.5236  0.6995 -0.1964
 6761SOL     OW21723   7.657   3.107   3.484  0.1031  0.3380  0.2282
 6761SOL    HW121724   7.706   3.188   3.473 -0.1382  0.2616 -2.0265
 6761SOL    HW221725   7.565   3.135   3.485  0.0162  0.1219 -0.6221
 6762SOL     OW21726   4.061   0.361   4.504  0.2583 -0.1974  0.1492
 6762SOL    HW121727   4.055   0.452   4.534 -2.4528 -0.5712  0.9692
 6762SOL    HW221728   3.971   0.337   4.481  0.6870 -3.0439  1.0698
 6763SOL     OW21729   4.924   0.031  10.119  0.2850  0.3541 -0.0081
 6763SOL    HW121730   4.874  -0.032  10.067  1.1277  0.5797 -1.1346
 6763SOL    HW221731   4.906   0.115  10.078  0.4082  0.6433  0.5191
 6764SOL     OW21732   2.502   7.856  10.021  0.2482  0.2785  0.3613
 6764SOL    HW121733   2.467   7.848   9.932 -0.2483 -1.3414  0.6864
 6764SOL    HW221734   2.447   7.800  10.075  0.3190  1.5219  1.7865
 6765SOL     OW21735   6.403   5.103   5.519  0.2037 -0.0683 -0.2182
 6765SOL    HW121736   6.374   5.167   5.584 -0.4898 -0.8124  0.2265
 6765SOL    HW221737   6.399   5.019   5.565  0.3958 -0.5187 -1.0091
 6766SOL     OW21738   1.981   4.676   0.765 -0.2353  0.3410 -0.6512
 6766SOL    HW121739   2.038   4.752   0.752  0.9934 -0.2042  1.2308
 6766SOL    HW221740   1.949   4.684   0.854 -0.0893 -1.3489 -0.4075
 6767SOL     OW21741   0.718   1.179  12.282 -0.2919  0.2515  0.2781
 6767SOL    HW121742   0.717   1.247  12.215  0.5249  0.1138  0.1201
 6767SOL    HW221743   0.807   1.182  12.318 -0.2762 -0.6682  0.3291
 6768SOL     OW21744   1.638   5.981   7.879  0.2038  0.0079 -0.3675
 6768SOL    HW121745   1.715   5.977   7.936  0.2165  2.1987 -0.1511
 6768SOL    HW221746   1.571   5.931   7.926  0.9168 -0.2513  0.4014
 6769SOL     OW21747   1.433   7.192   2.328  0.3669 -0.0517 -0.4568
 6769SOL    HW121748   1.385   7.255   2.275  0.2080 -0.1052 -0.3769
 6769SOL    HW221749   1.524   7.200   2.299  0.5202  0.9353  0.2740
 6770SOL     OW21750   6.488   1.113   4.487 -0.2187 -0.4301 -0.1743
 6770SOL    HW121751   6.489   1.017   4.487 -0.9194 -0.4470  0.3916
 6770SOL    HW221752   6.579   1.138   4.503  0.1978 -0.9753 -1.5612
 6771SOL     OW21753   0.457   2.759   0.145 -0.0150  0.2988  0.0042
 6771SOL    HW121754   0.527   2.737   0.084 -0.4235  0.4754 -0.5338
 6771SOL    HW221755   0.485   2.841   0.186 -1.3725  2.2033 -2.6075
 6772SOL     OW21756   3.245   7.332   5.689  0.0684  0.2337  0.4719
 6772SOL    HW121757   3.271   7.404   5.631  0.8085 -2.1782 -2.4637
 6772SOL    HW221758   3.171   7.291   5.644 -0.0511 -1.1102  1.8153
 6773SOL     OW21759   3.786   0.169   3.200  0.0108  0.1983 -0.0808
 6773SOL    HW121760   3.786   0.240   3.264 -0.0260  0.8175 -0.7474
 6773SOL    HW221761   3.744   0.207   3.123  0.2344 -0.4694 -0.5397
 6774SOL     OW21762   1.502   2.239   8.356 -0.2161 -0.4749 -0.0059
 6774SOL    HW121763   1.506   2.163   8.414 -2.5793 -0.3909  0.4002
 6774SOL    HW221764   1.496   2.202   8.268 -1.0433 -0.7725  0.1671
 6775SOL     OW21765   1.232   2.645   3.612  0.4682 -0.0390  0.5168
 6775SOL    HW121766   1.302   2.584   3.637  0.9446 -0.4207 -1.5984
 6775SOL    HW221767   1.271   2.732   3.625  0.9728 -0.2342  0.3504
 6776SOL     OW21768   1.784   1.094   7.381  0.5330  0.1815 -0.1382
 6776SOL    HW121769   1.766   1.003   7.358 -0.4259 -0.2176  1.9923
 6776SOL    HW221770   1.721   1.145   7.329 -1.0038 -0.6092  0.8834
 6777SOL     OW21771   2.124   3.519   0.078 -0.1123 -0.1603 -0.4319
 6777SOL    HW121772   2.108   3.571   0.157  2.4722  0.9683 -0.5742
 6777SOL    HW221773   2.096   3.575   0.006 -0.6176 -0.4036 -0.4308
 6778SOL     OW21774   4.825   0.781  10.706  0.3145 -0.2359 -0.2814
 6778SOL    HW121775   4.855   0.870  10.724 -0.5706  0.2343 -1.0497
 6778SOL    HW221776   4.770   0.790  10.629  0.8638 -1.5884 -0.8490
 6779SOL     OW21777   1.675   6.818  11.724 -0.1895  0.4566 -0.2454
 6779SOL    HW121778   1.760   6.845  11.687 -0.1349 -0.7209 -1.0252
 6779SOL    HW221779   1.617   6.812  11.648 -0.1737 -1.6778 -0.1425
 6780SOL     OW21780   7.194   5.219   7.133  0.3709  0.8027  0.2289
 6780SOL    HW121781   7.144   5.281   7.079  0.3666 -0.1702 -0.9426
 6780SOL    HW221782   7.279   5.262   7.146 -0.0940  1.6357  0.6070
 6781SOL     OW21783   5.259   6.868   5.890  0.1054 -0.7463 -0.4119
 6781SOL    HW121784   5.298   6.904   5.969  1.2354  1.5829 -1.9120
 6781SOL    HW221785   5.329   6.819   5.848  0.9465  1.6807 -2.0543
 6782SOL     OW21786   4.719   0.333   3.930  0.1205  0.5043  0.4484
 6782SOL    HW121787   4.724   0.268   4.001 -0.6846  0.4839  0.4902
 6782SOL    HW221788   4.790   0.395   3.950  0.5063 -0.0185  0.7474
 6783SOL     OW21789   5.143   3.442   4.626 -0.1579  0.2225  0.2182
 6783SOL    HW121790   5.224   3.394   4.612 -1.1549 -1.7350  0.8494
 6783SOL    HW221791   5.106   3.453   4.538 -0.5931 -1.4435  0.1701
 6784SOL     OW21792   3.661   2.349   9.351 -0.0839  0.1991 -0.2452
 6784SOL    HW121793   3.618   2.266   9.328 -3.2493  1.9537 -1.2360
 6784SOL    HW221794   3.692   2.384   9.268 -0.3454  0.8134 -0.0877
 6785SOL     OW21795   0.596   0.729   8.031  0.0077  0.0573  0.0731
 6785SOL    HW121796   0.511   0.686   8.043  0.4378 -0.7410  0.3186
 6785SOL    HW221797   0.601   0.792   8.102 -2.0236  2.9069 -2.0637
 6786SOL     OW21798   0.330   6.566   4.411  0.1978 -0.6544  0.2749
 6786SOL    HW121799   0.395   6.528   4.352 -1.0711 -1.1187 -0.8765
 6786SOL    HW221800   0.315   6.654   4.378 -1.3619 -1.2976 -0.8968
 6787SOL     OW21801   1.034   5.055  11.765 -0.0559 -0.2191 -0.3617
 6787SOL    HW121802   1.001   5.138  11.733  2.0738  0.1340 -1.8360
 6787SOL    HW221803   1.020   4.993  11.693  0.4903 -0.5726 -0.1723
 6788SOL     OW21804   2.684   7.395   6.490 -0.1565 -0.0281 -0.2931
 6788SOL    HW121805   2.762   7.433   6.531 -0.4874  0.7695 -0.3955
 6788SOL    HW221806   2.718   7.318   6.444  0.0805 -1.4603  2.1507
 6789SOL     OW21807   7.018   6.476   1.460  0.2931 -0.1187  0.6936
 6789SOL    HW121808   7.099   6.488   1.510  1.3805 -1.9439 -0.4956
 6789SOL    HW221809   7.046   6.430   1.381 -2.0112 -1.3511  0.5289
 6790SOL     OW21810   6.112   0.179   9.150 -0.1378 -0.1075 -0.0107
 6790SOL    HW121811   6.207   0.166   9.144 -0.3603 -2.5249  0.6662
 6790SOL    HW221812   6.085   0.202   9.061  1.2301  2.2223  0.0977
 6791SOL     OW21813   4.248   1.404  11.885  0.5672  0.2574  0.3973
 6791SOL    HW121814   4.268   1.468  11.817 -0.4820 -0.0699 -0.2455
 6791SOL    HW221815   4.157   1.422  11.908 -0.6219 -2.5176 -1.5671
 6792SOL     OW21816   7.276   1.415   0.149  0.0166 -0.0024  0.0638
 6792SOL    HW121817   7.182   1.434   0.155 -0.0870 -0.5174  0.1944
 6792SOL    HW221818   7.292   1.405   0.055 -0.4678 -1.7640  0.1284
 6793SOL     OW21819   6.789   5.430   4.579 -0.3342 -0.4265 -0.0112
 6793SOL    HW121820   6.751   5.358   4.529  0.5270 -1.2810  0.5206
 6793SOL    HW221821   6.721   5.497   4.580 -0.6995 -0.7282 -1.5697
 6794SOL     OW21822   6.703   7.342   3.368  0.0355 -0.1396 -0.1970
 6794SOL    HW121823   6.660   7.293   3.298 -2.7339 -0.7445  1.7723
 6794SOL    HW221824   6.727   7.276   3.433 -1.0292  0.7518  1.1543
 6795SOL     OW21825   4.708   0.722   7.805 -0.1666 -0.6098 -0.1937
 6795SOL    HW121826   4.656   0.646   7.832  0.0764 -1.0237 -0.8424
 6795SOL    HW221827   4.793   0.685   7.780 -0.2422 -0.2118 -1.0990
 6796SOL     OW21828   7.953   5.183   4.705  0.1376 -0.2935  0.1227
 6796SOL    HW121829   8.015   5.192   4.633  1.1279  0.1625  1.0045
 6796SOL    HW221830   7.921   5.093   4.699 -1.4198  0.3278 -2.1391
 6797SOL     OW21831   0.648   3.254  10.120 -0.2807  0.5412  0.3010
 6797SOL    HW121832   0.671   3.345  10.138 -1.1409  0.8266  0.0383
 6797SOL    HW221833   0.718   3.222  10.063  1.0212  0.4445  1.9051
 6798SOL     OW21834   0.129   0.258  11.061  0.1192 -0.4016  0.1639
 6798SOL    HW121835   0.048   0.305  11.038  0.1608 -0.1071  0.6095
 6798SOL    HW221836   0.114   0.226  11.149  0.9791  0.7677  0.7606
 6799SOL     OW21837   6.935   1.058   0.612  0.2063  0.4048  0.3375
 6799SOL    HW121838   6.985   1.060   0.531 -1.1859 -0.0419 -0.5750
 6799SOL    HW221839   6.992   1.014   0.675  1.1597  0.4021 -0.5054
 6800SOL     OW21840   5.123   4.568   7.111  0.5177  0.5693 -0.1389
 6800SOL    HW121841   5.196   4.626   7.090  1.0338 -0.3411 -0.9255
 6800SOL    HW221842   5.163   4.497   7.161  0.0292  0.4737  0.1184
 6801SOL     OW21843   7.092   5.726   3.487  0.1381 -0.1085  0.2146
 6801SOL    HW121844   7.045   5.706   3.407 -0.0581  0.4537  0.1822
 6801SOL    HW221845   7.027   5.717   3.556 -0.6026  2.5934 -0.0135
 6802SOL     OW21846   3.266   5.648   5.393 -0.0840  0.0083  0.5114
 6802SOL    HW121847   3.314   5.621   5.471  0.4048  0.1434  0.2588
 6802SOL    HW221848   3.202   5.711   5.425  0.2592  0.2265  0.7718
 6803SOL     OW21849   7.305   2.384  11.887  0.4990  0.1670  0.2427
 6803SOL    HW121850   7.364   2.450  11.850  0.0167  1.1317  1.1485
 6803SOL    HW221851   7.250   2.432  11.949  1.2824 -1.3905  2.2530
 6804SOL     OW21852   0.607   2.196   5.153  0.9873  0.3989  0.1232
 6804SOL    HW121853   0.690   2.226   5.190 -0.5454  3.5896  1.3158
 6804SOL    HW221854   0.603   2.236   5.066 -0.1263  2.0853  0.8882
 6805SOL     OW21855   2.093   4.569   4.929  0.4873  0.3068  0.0986
 6805SOL    HW121856   2.088   4.550   4.836  1.9318 -0.4052  0.1403
 6805SOL    HW221857   2.069   4.662   4.936 -1.4981 -0.0908 -0.7210
 6806SOL     OW21858   5.404   0.750   9.338  0.1324 -0.6784 -0.1193
 6806SOL    HW121859   5.477   0.766   9.399 -0.0397 -0.8361  0.1299
 6806SOL    HW221860   5.447   0.726   9.256  0.3851  0.1696 -0.2486
 6807SOL     OW21861   3.402   5.566   2.699  0.2230 -0.0519 -0.3847
 6807SOL    HW121862   3.440   5.522   2.775  1.0511  0.7148 -0.3444
 6807SOL    HW221863   3.475   5.610   2.657 -0.6765  1.9392  0.0177
 6808SOL     OW21864   0.737   1.117   6.104 -0.3285 -0.2287  0.0079
 6808SOL    HW121865   0.753   1.031   6.066 -2.3353 -0.7598  0.2844
 6808SOL    HW221866   0.754   1.179   6.033  0.9832 -0.8281 -0.2294
 6809SOL     OW21867   7.641   2.524   8.336 -0.1939  0.1439 -0.0436
 6809SOL    HW121868   7.594   2.446   8.306 -0.4176  0.5387 -0.7331
 6809SOL    HW221869   7.718   2.489   8.381  0.6044 -0.4701 -1.7948
 6810SOL     OW21870   0.347   7.409  12.023 -0.0912  0.7219 -0.5496
 6810SOL    HW121871   0.439   7.408  11.998  0.1250 -4.3366 -0.4927
 6810SOL    HW221872   0.347   7.423  12.117  0.4443  2.0818 -0.7310
 6811SOL     OW21873   2.489   0.921   6.627 -0.1845  0.0196  0.5332
 6811SOL    HW121874   2.571   0.920   6.676  1.0112  1.5917 -1.3017
 6811SOL    HW221875   2.475   0.830   6.602  0.5752 -0.3761  1.4906
 6812SOL     OW21876   1.624   1.234   7.179 -0.2082 -0.1415  0.2783
 6812SOL    HW121877   1.574   1.313   7.195 -0.1836  0.0089 -0.3738
 6812SOL    HW221878   1.561   1.172   7.142 -0.3425 -0.6047  1.2215
 6813SOL     OW21879   1.884   2.115   2.055 -0.1389  0.7203 -0.5005
 6813SOL    HW121880   1.831   2.057   2.111  2.3747 -0.3110  0.9742
 6813SOL    HW221881   1.881   2.200   2.100 -1.5622  1.0667 -1.1710
 6814SOL     OW21882   3.736   1.439  11.123  0.6697  0.2988 -0.4813
 6814SOL    HW121883   3.663   1.392  11.164  2.1680 -1.7264  0.0163
 6814SOL    HW221884   3.761   1.505  11.187 -0.4843  0.8191 -0.5295
 6815SOL     OW21885   6.256   5.233   2.439 -0.0378  0.2648 -0.1204
 6815SOL    HW121886   6.322   5.171   2.470  0.2442  1.6148  2.2754
 6815SOL    HW221887   6.180   5.179   2.417  0.2134 -0.9875  1.8149
 6816SOL     OW21888   3.816   4.887   4.917 -0.1974  0.3344  0.5074
 6816SOL    HW121889   3.803   4.872   5.011  0.0618  0.9805  0.6525
 6816SOL    HW221890   3.766   4.817   4.875 -0.1022 -0.1211  1.1292
 6817SOL     OW21891   2.672   1.218  11.986  0.1866  0.3397 -0.1140
 6817SOL    HW121892   2.718   1.142  12.021  1.6344  1.6068  0.8587
 6817SOL    HW221893   2.719   1.293  12.022 -0.0692  1.7281 -2.4962
 6818SOL     OW21894   6.603   3.603  12.048 -0.0917 -0.2325  0.5629
 6818SOL    HW121895   6.631   3.511  12.048  0.6309 -0.0152  0.7485
 6818SOL    HW221896   6.684   3.653  12.059 -0.0602  0.5982 -2.7037
 6819SOL     OW21897   1.671   2.042   1.008  0.0938 -0.0762 -0.0690
 6819SOL    HW121898   1.764   2.054   1.028  1.1354 -0.8578 -3.7763
 6819SOL    HW221899   1.627   2.056   1.092  3.2676  2.9375  1.3367
 6820SOL     OW21900   3.819   5.874   9.966 -0.1240 -0.4204 -0.0199
 6820SOL    HW121901   3.860   5.956   9.938  0.2361 -0.6242 -0.0839
 6820SOL    HW221902   3.733   5.875   9.922 -1.1122  1.0148  1.7719
 6821SOL     OW21903   2.622   2.980   4.817  0.1332  0.0399 -0.5985
 6821SOL    HW121904   2.691   2.963   4.754  0.0015  0.4671 -0.8595
 6821SOL    HW221905   2.568   3.048   4.777 -1.1734 -1.1621 -0.9697
 6822SOL     OW21906   5.146   7.924   4.402  0.3606  0.3284 -0.2078
 6822SOL    HW121907   5.167   7.919   4.309  1.3504  1.1164 -0.0505
 6822SOL    HW221908   5.185   8.007   4.430 -3.1349  2.0115  0.1070
 6823SOL     OW21909   7.204   6.120  11.135  0.0884 -0.3823 -0.7467
 6823SOL    HW121910   7.136   6.103  11.200 -0.1204  0.1049 -0.8321
 6823SOL    HW221911   7.235   6.033  11.109  0.5881 -0.5737  0.4389
 6824SOL     OW21912   7.981   4.764  10.203 -0.0332  0.2236 -0.0348
 6824SOL    HW121913   7.908   4.726  10.153  0.8695  0.3717 -1.5254
 6824SOL    HW221914   7.941   4.794  10.285 -1.5813  0.0298 -0.6890
 6825SOL     OW21915   0.954   1.061  11.131 -0.1550 -0.4541 -0.3873
 6825SOL    HW121916   0.898   1.123  11.084  1.4866  1.3309 -0.1054
 6825SOL    HW221917   0.906   1.042  11.212 -0.1426  1.4914  0.1133
 6826SOL     OW21918   4.597   5.270   8.529 -1.0957 -0.0784  0.5146
 6826SOL    HW121919   4.673   5.242   8.478 -0.4717 -0.0479  1.4077
 6826SOL    HW221920   4.578   5.196   8.587 -1.9257 -0.1939  0.1154
 6827SOL     OW21921   6.264   2.352   3.310  0.1275 -0.2392 -0.1637
 6827SOL    HW121922   6.216   2.341   3.228  0.6535 -2.2641 -0.2520
 6827SOL    HW221923   6.211   2.414   3.361 -1.0774 -0.2413 -1.3577
 6828SOL     OW21924   0.491   0.700   0.530  0.2320 -0.4640  0.5798
 6828SOL    HW121925   0.419   0.744   0.484  0.7892  2.2955  2.1266
 6828SOL    HW221926   0.448   0.630   0.579 -1.3153  0.6554  0.8975
 6829SOL     OW21927   6.728   1.023   4.774  0.9126 -0.6640 -0.1937
 6829SOL    HW121928   6.805   1.080   4.775 -0.2294  1.1311 -2.7403
 6829SOL    HW221929   6.746   0.959   4.705 -0.6302  1.1446 -2.4278
 6830SOL     OW21930   4.147   1.906   7.052 -0.2896 -0.4575  0.3114
 6830SOL    HW121931   4.109   1.820   7.066  0.5407 -0.7031  1.2367
 6830SOL    HW221932   4.171   1.936   7.140  0.6214  0.1457 -0.1197
 6831SOL     OW21933   0.705   5.437   5.554  0.0839  0.4089  1.0542
 6831SOL    HW121934   0.707   5.530   5.530 -0.0243 -0.1163 -1.1786
 6831SOL    HW221935   0.707   5.437   5.649  0.2867  2.6997  1.1010
 6832SOL     OW21936   5.501   6.288   4.751  0.2814  0.0443 -0.1778
 6832SOL    HW121937   5.414   6.326   4.738  0.0758 -0.6829 -1.0077
 6832SOL    HW221938   5.485   6.194   4.756  1.2165 -0.3268 -2.6347
 6833SOL     OW21939   4.341   6.652   8.752 -0.2842 -0.1353 -0.6808
 6833SOL    HW121940   4.343   6.559   8.729  0.5677 -0.5191  0.8730
 6833SOL    HW221941   4.258   6.663   8.799 -0.2617 -0.1596 -0.6359
 6834SOL     OW21942   6.868   3.893   8.328  0.4167 -0.3853 -0.0003
 6834SOL    HW121943   6.814   3.940   8.392 -0.2938  0.0559 -0.9045
 6834SOL    HW221944   6.805   3.845   8.274  1.0389 -1.0730 -0.1304
 6835SOL     OW21945   2.277   1.007   7.033  0.2555 -0.3549  0.0253
 6835SOL    HW121946   2.288   1.094   7.073  1.0175 -0.0813 -0.7489
 6835SOL    HW221947   2.248   1.026   6.943 -1.1450 -0.9492  0.3225
 6836SOL     OW21948   7.167   7.764   4.938 -0.2260  0.2299  0.1577
 6836SOL    HW121949   7.197   7.674   4.934 -0.4591  0.0245  2.0829
 6836SOL    HW221950   7.100   7.764   5.006 -1.5014  1.5211 -1.0389
 6837SOL     OW21951   4.977   7.900  11.500  0.7650  0.4546 -0.0794
 6837SOL    HW121952   5.002   7.993  11.495  0.5759  0.4931 -0.3071
 6837SOL    HW221953   4.945   7.879  11.413  0.7140  0.1989  0.0007
 6838SOL     OW21954   1.487   3.642   4.256 -0.2042  0.0208 -0.1438
 6838SOL    HW121955   1.400   3.681   4.245 -0.1069  0.7777  1.4286
 6838SOL    HW221956   1.547   3.717   4.257  0.7702 -0.5949 -3.1523
 6839SOL     OW21957   6.532   2.086  11.548  0.0813 -0.2644 -0.5608
 6839SOL    HW121958   6.564   2.122  11.631  1.2878 -1.2442 -0.5701
 6839SOL    HW221959   6.444   2.054  11.567 -0.3549  1.1166 -0.1346
 6840SOL     OW21960   5.425   0.420   4.299  0.4692 -0.7902  0.2067
 6840SOL    HW121961   5.424   0.350   4.233  0.7310 -0.7049  0.1093
 6840SOL    HW221962   5.517   0.447   4.303  0.3939 -0.5561  0.3540
 6841SOL     OW21963   0.559   4.857   5.302  0.2057  0.1024 -0.4747
 6841SOL    HW121964   0.509   4.910   5.364 -0.6639  0.1922 -1.2273
 6841SOL    HW221965   0.589   4.920   5.236  1.1789  0.0209 -0.1252
 6842SOL     OW21966   0.447   1.513   2.415 -0.4390  0.0159 -0.1468
 6842SOL    HW121967   0.375   1.492   2.356  0.5564 -0.3078 -1.2861
 6842SOL    HW221968   0.412   1.496   2.502 -1.6656 -0.3400 -0.6846
 6843SOL     OW21969   7.479   6.385  10.338  0.1338  0.5514  0.1862
 6843SOL    HW121970   7.422   6.349  10.407 -0.7940  0.6122 -0.5321
 6843SOL    HW221971   7.424   6.448  10.292 -0.5325 -2.0635 -2.9323
 6844SOL     OW21972   5.997   7.205   1.823  0.0550 -0.2321  0.0375
 6844SOL    HW121973   6.030   7.117   1.809 -0.8319 -0.5863  0.1337
 6844SOL    HW221974   6.072   7.262   1.805  0.6054 -0.9931 -0.1148
 6845SOL     OW21975   3.443   1.222   9.720  0.1468  0.1964 -0.5369
 6845SOL    HW121976   3.357   1.256   9.693 -0.7025  0.0879  1.7763
 6845SOL    HW221977   3.491   1.300   9.748 -0.4201 -0.0106  1.1710
 6846SOL     OW21978   6.464   4.618   8.261  0.2362 -0.6021 -0.1685
 6846SOL    HW121979   6.491   4.677   8.331 -2.4423  0.2054  0.2988
 6846SOL    HW221980   6.527   4.546   8.265 -0.3905 -1.1782  3.8651
 6847SOL     OW21981   0.906   0.711   2.202  0.4317 -0.4470  0.7149
 6847SOL    HW121982   0.865   0.775   2.259 -0.3091  1.1795 -1.4957
 6847SOL    HW221983   0.858   0.630   2.218  0.8876 -0.3182  3.0231
 6848SOL     OW21984   2.750   0.481   2.703  0.3794 -0.1417  0.1403
 6848SOL    HW121985   2.837   0.461   2.737 -0.0136  2.1394  2.9627
 6848SOL    HW221986   2.766   0.516   2.615  2.6424  2.0178  1.2727
 6849SOL     OW21987   6.670   1.444   7.119 -0.3680 -0.3620 -0.1164
 6849SOL    HW121988   6.656   1.531   7.082  0.6037 -0.1432 -0.0009
 6849SOL    HW221989   6.764   1.440   7.136 -0.2357 -1.7914 -1.0327
 6850SOL     OW21990   2.547   7.024   9.111 -0.5674 -0.9241 -0.5281
 6850SOL    HW121991   2.585   7.107   9.082 -1.1345 -1.2059 -2.1361
 6850SOL    HW221992   2.573   7.017   9.203 -0.3326  0.9219 -0.4223
 6851SOL     OW21993   3.871   2.747   5.232  0.1270 -0.3897  0.1296
 6851SOL    HW121994   3.945   2.710   5.281 -0.1333  0.1024  0.9226
 6851SOL    HW221995   3.858   2.834   5.271 -0.6980 -0.3674 -0.1841
 6852SOL     OW21996   2.461   6.812   3.770  0.2010  0.1465  0.1174
 6852SOL    HW121997   2.390   6.860   3.728 -0.7799 -1.1451  0.2216
 6852SOL    HW221998   2.420   6.771   3.846  0.7087 -1.7231 -0.5547
 6853SOL     OW21999   6.531   4.028  11.788  0.0657 -0.3415 -0.1888
 6853SOL    HW122000   6.572   3.959  11.735  1.4503  0.0785  0.2928
 6853SOL    HW222001   6.593   4.044  11.858 -0.0489  1.6483 -0.4878
 6854SOL     OW22002   1.106   0.264   6.749  0.6075  0.4091 -0.3484
 6854SOL    HW122003   1.110   0.174   6.714  2.6794 -0.0497  0.8859
 6854SOL    HW222004   1.080   0.317   6.674 -1.2533 -1.2589 -0.9790
 6855SOL     OW22005   2.538   2.847   6.036 -0.1237 -0.0212 -0.0470
 6855SOL    HW122006   2.544   2.942   6.022  0.9493 -0.1891 -0.8506
 6855SOL    HW222007   2.552   2.836   6.130 -0.0187  0.6040  0.0157
 6856SOL     OW22008   4.535   5.770   7.391 -0.2061  0.1333  0.5705
 6856SOL    HW122009   4.578   5.690   7.362  0.7054  0.8085  0.0276
 6856SOL    HW222010   4.561   5.779   7.483 -0.5648 -0.3371  0.7282
 6857SOL     OW22011   6.362   6.212   1.065  0.3277 -0.0342  0.4106
 6857SOL    HW122012   6.272   6.240   1.080 -0.2565 -1.8698  0.5941
 6857SOL    HW222013   6.358   6.160   0.984  1.8247  2.4107 -1.3473
 6858SOL     OW22014   1.565   6.911   4.285 -0.0951  0.3558 -0.0219
 6858SOL    HW122015   1.486   6.954   4.251 -1.3549 -0.7756  1.3323
 6858SOL    HW222016   1.600   6.863   4.210  0.3457  2.2632 -1.1016
 6859SOL     OW22017   5.286   5.117   4.566 -0.0140  0.6295 -0.1658
 6859SOL    HW122018   5.299   5.125   4.472  0.4124  1.0032 -0.0765
 6859SOL    HW222019   5.199   5.155   4.582 -0.7401 -0.7916 -0.6036
 6860SOL     OW22020   1.222   5.156   0.801  0.4340 -0.3190 -0.2634
 6860SOL    HW122021   1.262   5.109   0.875  1.3510  0.0783 -0.4831
 6860SOL    HW222022   1.160   5.216   0.842  0.1712 -0.8342  0.1050
 6861SOL     OW22023   0.470   6.734   0.139 -0.8797 -0.2448 -0.0069
 6861SOL    HW122024   0.540   6.793   0.114 -3.0347  1.8505 -1.5503
 6861SOL    HW222025   0.443   6.693   0.057 -1.4262 -1.0592  0.5652
 6862SOL     OW22026   4.833   1.164   6.219  0.2722  0.2582  0.3139
 6862SOL    HW122027   4.890   1.235   6.191  0.3032 -0.1042 -0.5795
 6862SOL    HW222028   4.791   1.196   6.299  2.2842  0.2322  1.4512
 6863SOL     OW22029   3.038   7.826   3.520  0.4948  0.7429  0.1273
 6863SOL    HW122030   2.952   7.844   3.484  0.3003  0.0772  0.2475
 6863SOL    HW222031   3.060   7.738   3.488  0.0986 -0.0937  2.0171
 6864SOL     OW22032   5.693   4.267   2.087  0.1532  0.4971  0.9138
 6864SOL    HW122033   5.610   4.314   2.097 -0.5669 -0.1219 -1.4899
 6864SOL    HW222034   5.717   4.279   1.996  0.7618 -2.4268  0.5794
 6865SOL     OW22035   3.047   6.187   2.791 -0.1904  0.2131 -0.0459
 6865SOL    HW122036   2.954   6.165   2.790 -0.3065  0.6721 -1.1455
 6865SOL    HW222037   3.055   6.253   2.859 -1.3552  2.7284 -2.1470
 6866SOL     OW22038   0.718   1.962   6.529  0.1800  0.6541 -0.5622
 6866SOL    HW122039   0.669   2.014   6.465 -3.1779 -0.3905  0.8920
 6866SOL    HW222040   0.700   1.872   6.506  0.2999  0.2439  0.8293
 6867SOL     OW22041   7.805   1.596   2.424  0.3251  0.1036  0.6416
 6867SOL    HW122042   7.895   1.618   2.400  0.5063 -1.3457 -0.1094
 6867SOL    HW222043   7.803   1.604   2.519  0.9644  1.1237  0.5813
 6868SOL     OW22044   4.302   4.284   8.768  0.0048 -0.2503  0.1647
 6868SOL    HW122045   4.231   4.250   8.712  0.7668  0.2541 -1.1454
 6868SOL    HW222046   4.271   4.370   8.796  0.3643  0.2813 -0.9944
 6869SOL     OW22047   2.711   5.781  10.083 -0.4671  0.4620  0.0284
 6869SOL    HW122048   2.736   5.717  10.017 -0.7794 -0.1702  0.4994
 6869SOL    HW222049   2.763   5.758  10.160 -0.9991  0.4037  0.3813
 6870SOL     OW22050   0.065   0.888  10.327  0.1936  0.0197  0.0833
 6870SOL    HW122051   0.108   0.887  10.412  1.1802  0.8035 -0.3892
 6870SOL    HW222052   0.108   0.818  10.278  0.5541  0.4367 -0.2031
 6871SOL     OW22053   5.165   0.352  10.146 -0.0496  0.3898 -0.1105
 6871SOL    HW122054   5.190   0.442  10.128  1.0763  0.7935  2.9624
 6871SOL    HW222055   5.113   0.356  10.226  0.7398 -1.7269  0.5954
 6872SOL     OW22056   4.384   6.921   2.956  0.3704 -0.0949  0.5008
 6872SOL    HW122057   4.420   6.965   2.880 -0.3303  0.1189  0.2877
 6872SOL    HW222058   4.331   6.987   3.000  0.1788 -0.4200  0.7690
 6873SOL     OW22059   1.144   2.402   8.691 -0.3658  0.4245 -0.2512
 6873SOL    HW122060   1.163   2.408   8.784  0.6430 -2.3283 -0.1615
 6873SOL    HW222061   1.230   2.414   8.649 -0.6541  0.7510 -0.7476
 6874SOL     OW22062   0.795   5.409   3.003 -0.2453  0.6986  0.1962
 6874SOL    HW122063   0.790   5.495   3.045 -0.2877  0.8813 -0.1784
 6874SOL    HW222064   0.703   5.381   2.997 -0.2962  0.9511 -0.3320
 6875SOL     OW22065   1.251   6.312   1.309 -0.5710  0.2969  0.2427
 6875SOL    HW122066   1.304   6.236   1.329 -0.4500 -1.1379 -4.4088
 6875SOL    HW222067   1.312   6.386   1.312 -0.2060 -0.0455  2.6499
 6876SOL     OW22068   4.886   6.411   6.201  0.5303 -0.4388  0.6983
 6876SOL    HW122069   4.884   6.359   6.281 -2.3551 -1.5451  0.0380
 6876SOL    HW222070   4.836   6.490   6.222 -0.3957 -0.8134  0.0169
 6877SOL     OW22071   5.900   4.245  10.100  0.1109 -0.6117 -0.3277
 6877SOL    HW122072   5.853   4.212  10.023 -0.1942 -0.7767 -0.0733
 6877SOL    HW222073   5.987   4.268  10.067 -0.7413  1.5259 -1.2416
 6878SOL     OW22074   2.251   7.734   3.060 -0.0644  0.3068  0.2051
 6878SOL    HW122075   2.240   7.746   2.966  0.4579 -0.1995  0.0782
 6878SOL    HW222076   2.311   7.660   3.069  1.4856  1.5887  0.9082
 6879SOL     OW22077   7.937   2.810   7.083 -0.7043 -0.0622  0.2389
 6879SOL    HW122078   7.924   2.790   7.176 -0.4924 -1.5444 -0.0244
 6879SOL    HW222079   7.986   2.735   7.049  1.0112  1.3914 -0.6588
 6880SOL     OW22080   2.551   6.362   0.978  0.1136 -0.7174 -0.3882
 6880SOL    HW122081   2.483   6.298   1.000 -0.9706  0.2749 -0.7166
 6880SOL    HW222082   2.613   6.315   0.923  1.2042 -2.4134  2.1389
 6881SOL     OW22083   5.555   0.560   4.621  0.7521 -0.1567  0.5489
 6881SOL    HW122084   5.517   0.475   4.601  0.7138 -0.0088 -0.0247
 6881SOL    HW222085   5.646   0.541   4.644  1.3673 -0.1599 -1.6885
 6882SOL     OW22086   4.055   1.838   1.903  0.2329  0.0444  0.2054
 6882SOL    HW122087   4.113   1.763   1.919 -0.7734 -0.3221  2.4116
 6882SOL    HW222088   3.968   1.806   1.926 -0.5469  1.2867 -0.8856
 6883SOL     OW22089   2.024   1.708   9.603  0.7984 -0.2513  0.2530
 6883SOL    HW122090   2.069   1.791   9.588  0.0876  0.4948  1.9649
 6883SOL    HW222091   2.073   1.666   9.674 -0.3695 -0.0466  1.2124
 6884SOL     OW22092   2.042   5.752   6.733 -0.4025 -0.6866  0.0154
 6884SOL    HW122093   1.983   5.681   6.707 -1.5926 -0.8553  2.8669
 6884SOL    HW222094   2.002   5.831   6.698 -0.1942 -1.1723 -1.3803
 6885SOL     OW22095   6.477   3.632   0.195  0.3711  0.0954 -0.5810
 6885SOL    HW122096   6.550   3.588   0.239  0.4370 -0.0613 -0.8459
 6885SOL    HW222097   6.404   3.571   0.204 -0.2561  1.0426  1.3289
 6886SOL     OW22098   4.781   4.578   2.328  0.3323  0.2531  0.6124
 6886SOL    HW122099   4.798   4.635   2.253  1.6419 -1.6891 -0.6422
 6886SOL    HW222100   4.845   4.605   2.394  1.6052 -0.3394 -0.3365
 6887SOL     OW22101   6.858   6.961   7.652  0.4881  0.4982 -0.7049
 6887SOL    HW122102   6.775   6.999   7.624  0.4141  1.1150  0.3217
 6887SOL    HW222103   6.878   6.895   7.585 -0.0589  1.3959 -1.7806
 6888SOL     OW22104   6.874   6.313   2.492  0.7336 -0.4048  0.1209
 6888SOL    HW122105   6.897   6.251   2.423 -0.3850 -0.8479  0.1266
 6888SOL    HW222106   6.849   6.257   2.566  2.4860  0.0472  1.1278
 6889SOL     OW22107   7.733   3.666  10.059 -0.5128 -0.0432 -0.1497
 6889SOL    HW122108   7.697   3.746  10.018 -0.2074  0.4969  0.6171
 6889SOL    HW222109   7.819   3.693  10.091 -0.5355 -0.6015  0.3853
 6890SOL     OW22110   1.391   0.669   0.236  0.3186 -0.4599 -0.2102
 6890SOL    HW122111   1.365   0.626   0.155  0.0729  2.3265 -1.7565
 6890SOL    HW222112   1.472   0.715   0.215 -0.9105  2.1743  0.3193
 6891SOL     OW22113   2.749   3.167   1.185  0.1427  0.2304 -0.4951
 6891SOL    HW122114   2.719   3.230   1.119  2.4855 -0.1514 -2.0478
 6891SOL    HW222115   2.799   3.220   1.247 -2.1088  0.5982  1.1152
 6892SOL     OW22116   4.538   1.210  10.490  0.3602  0.1347  0.5009
 6892SOL    HW122117   4.446   1.221  10.468  0.2225 -1.7283  0.0271
 6892SOL    HW222118   4.537   1.175  10.579  0.7399  2.2303  1.4093
 6893SOL     OW22119   2.815   5.182   2.767  0.5211  0.0915  0.0095
 6893SOL    HW122120   2.897   5.191   2.719 -0.4354  1.1625 -1.5339
 6893SOL    HW222121   2.748   5.214   2.706 -0.8067  1.2785  1.9822
 6894SOL     OW22122   0.993   5.588   6.761  0.5887  0.0756 -0.1607
 6894SOL    HW122123   0.951   5.611   6.678  2.5950  1.2424 -0.9201
 6894SOL    HW222124   0.974   5.663   6.818 -0.7344 -0.6966  0.4586
 6895SOL     OW22125   4.497   6.082   1.379  0.1958  0.0007 -0.0617
 6895SOL    HW122126   4.448   6.005   1.347  0.6519 -0.7654  1.0487
 6895SOL    HW222127   4.444   6.116   1.451  0.1874  0.5111 -0.3054
 6896SOL     OW22128   1.594   7.564  11.706 -0.6096 -0.1990  0.2288
 6896SOL    HW122129   1.659   7.530  11.768 -0.8000 -0.5917  0.2173
 6896SOL    HW222130   1.510   7.549  11.749 -0.6644  0.8622  0.5068
 6897SOL     OW22131   4.878   6.205   1.558 -0.3889 -0.6131 -0.1624
 6897SOL    HW122132   4.819   6.251   1.498 -1.0890 -1.3257 -0.0456
 6897SOL    HW222133   4.823   6.137   1.598  0.0153 -0.0277  1.4563
 6898SOL     OW22134   1.704   6.832   3.597  0.0026 -0.2336 -0.1986
 6898SOL    HW122135   1.671   6.911   3.553 -0.7002 -0.8603 -0.8061
 6898SOL    HW222136   1.628   6.799   3.646  0.1486 -0.8344 -0.3798
 6899SOL     OW22137   7.356   1.114   9.976  0.3118  0.1257  0.3426
 6899SOL    HW122138   7.315   1.028   9.988 -0.1505  0.4755  1.3570
 6899SOL    HW222139   7.444   1.104  10.012  0.0457  0.2420  1.0409
 6900SOL     OW22140   2.060   5.122   6.815 -0.0094  0.6286  0.2132
 6900SOL    HW122141   2.014   5.198   6.779 -1.9184 -0.7338 -0.4184
 6900SOL    HW222142   2.012   5.101   6.895  2.6172  2.0693  2.3118
 6901SOL     OW22143   3.158   0.467   3.179  0.3365  1.1938  0.0953
 6901SOL    HW122144   3.107   0.445   3.101  1.1729 -0.0193 -0.1480
 6901SOL    HW222145   3.115   0.419   3.250  2.2707 -1.6396 -0.4673
 6902SOL     OW22146   3.487   0.007   0.624  0.5168 -0.3894 -0.1863
 6902SOL    HW122147   3.558   0.063   0.654  2.0610 -1.1071 -2.2264
 6902SOL    HW222148   3.471   0.035   0.534 -2.8768  0.7210  0.6112
 6903SOL     OW22149   6.069   3.512   4.122 -0.0056 -0.3098  0.1274
 6903SOL    HW122150   6.076   3.604   4.146  3.9390  0.1239 -1.9355
 6903SOL    HW222151   6.125   3.466   4.185 -0.8853 -1.1375  0.3318
 6904SOL     OW22152   6.929   6.255   8.067 -0.3123  0.5251  0.2620
 6904SOL    HW122153   6.901   6.342   8.094 -2.5763  0.8353 -2.6362
 6904SOL    HW222154   6.862   6.196   8.103 -0.3579  0.3281 -0.1386
 6905SOL     OW22155   5.145   3.431   1.705  0.0908  0.1229  0.0543
 6905SOL    HW122156   5.154   3.461   1.795 -1.2283 -1.8929  0.9141
 6905SOL    HW222157   5.156   3.511   1.652  0.1268  1.4801  2.0054
 6906SOL     OW22158   5.472   6.485   2.709  0.7680  0.2771  0.3109
 6906SOL    HW122159   5.505   6.569   2.679 -0.3777  1.8392  3.0599
 6906SOL    HW222160   5.541   6.449   2.764  0.1993  0.7853  1.3830
 6907SOL     OW22161   0.749   1.499   9.418  0.1778  0.0215  0.0061
 6907SOL    HW122162   0.797   1.544   9.348 -2.1987  0.2880 -1.5523
 6907SOL    HW222163   0.810   1.433   9.449  1.4276  0.0337 -2.1733
 6908SOL     OW22164   5.723   6.965  11.995  0.2403 -0.0766 -0.2575
 6908SOL    HW122165   5.759   6.938  11.910 -0.6273 -1.3518 -0.2454
 6908SOL    HW222166   5.710   6.884  12.042 -1.5021  0.4324  0.1936
 6909SOL     OW22167   2.090   4.901   6.103 -0.2527 -0.2428 -0.2086
 6909SOL    HW122168   2.071   4.809   6.085 -0.6813 -0.4953  1.3560
 6909SOL    HW222169   2.174   4.900   6.149  0.8361  0.3759 -2.0689
 6910SOL     OW22170   6.954   4.586  12.102  0.2472  0.2964 -0.0577
 6910SOL    HW122171   6.921   4.625  12.021  0.1174 -0.3360 -0.3155
 6910SOL    HW222172   6.885   4.527  12.130  0.4676  0.2048  0.2939
 6911SOL     OW22173   1.275   3.307   9.212 -0.3842  0.3614 -0.1210
 6911SOL    HW122174   1.273   3.347   9.126  0.5072 -0.8678 -0.7517
 6911SOL    HW222175   1.183   3.297   9.236 -0.6316  1.8994 -0.3297
 6912SOL     OW22176   3.477   0.372   4.727  0.2851 -0.1050 -0.3807
 6912SOL    HW122177   3.454   0.423   4.649  1.2704  1.2157  0.1478
 6912SOL    HW222178   3.411   0.303   4.731 -2.2560  2.1628 -0.1321
 6913SOL     OW22179   0.033   1.227   7.373  0.4782  0.4962  0.2076
 6913SOL    HW122180   0.100   1.238   7.305  0.0646  0.5840 -0.1907
 6913SOL    HW222181   0.071   1.269   7.450  0.5623  1.2275 -0.2215
 6914SOL     OW22182   0.405   1.446   7.605  0.0390 -0.4764  0.0868
 6914SOL    HW122183   0.318   1.407   7.600  0.1690 -0.8524  0.6703
 6914SOL    HW222184   0.401   1.523   7.548 -0.9735  0.0974  0.9205
 6915SOL     OW22185   3.202   4.250  11.479 -0.4083  0.2737  0.0542
 6915SOL    HW122186   3.176   4.260  11.388  2.0161 -0.9792 -0.8492
 6915SOL    HW222187   3.265   4.321  11.494 -0.4297  0.1803  0.6262
 6916SOL     OW22188   4.217   7.869   9.875  0.9706 -0.6399 -0.9374
 6916SOL    HW122189   4.178   7.955   9.861  0.0904 -0.9322 -0.3741
 6916SOL    HW222190   4.194   7.819   9.796  2.2251 -0.1124 -1.6558
 6917SOL     OW22191   2.754   0.684   6.981  0.0024 -0.7433  0.1077
 6917SOL    HW122192   2.674   0.637   6.956 -0.9701  0.2435  1.2995
 6917SOL    HW222193   2.731   0.731   7.060  1.9434 -0.8560  0.7856
 6918SOL     OW22194   4.095   2.451   1.349  0.0732  0.1526  0.2863
 6918SOL    HW122195   4.186   2.422   1.357  0.4558  0.6245 -1.8749
 6918SOL    HW222196   4.043   2.370   1.354  0.7467 -0.3159 -0.2069
 6919SOL     OW22197   4.921   2.838   6.439  0.1399  0.2429 -0.3980
 6919SOL    HW122198   4.846   2.832   6.380 -0.2342  0.8757 -0.0037
 6919SOL    HW222199   4.937   2.932   6.449  1.7927  0.1209 -1.4515
 6920SOL     OW22200   4.790   2.372   4.242 -0.2254  0.3524  0.4996
 6920SOL    HW122201   4.757   2.457   4.271  0.3669  0.6215  0.3935
 6920SOL    HW222202   4.879   2.368   4.276  0.3567  0.5130 -0.9406
 6921SOL     OW22203   4.660   2.551   6.500  0.0113  0.4782  0.0459
 6921SOL    HW122204   4.603   2.626   6.517 -1.4472 -0.2902 -1.1986
 6921SOL    HW222205   4.711   2.541   6.580 -0.1363  2.4565  0.4377
 6922SOL     OW22206   2.667   1.366  10.971  0.1647 -0.5015  0.3876
 6922SOL    HW122207   2.711   1.350  11.055 -0.1115 -0.2310  0.5872
 6922SOL    HW222208   2.738   1.375  10.908  0.3613 -3.3403  0.0887
 6923SOL     OW22209   1.812   3.900   7.952 -0.1670  0.1925  0.1429
 6923SOL    HW122210   1.837   3.857   7.870 -0.5329  1.1339 -0.4698
 6923SOL    HW222211   1.728   3.941   7.934 -0.3015  0.3277  1.0226
 6924SOL     OW22212   0.857   7.605   9.806 -0.6505  0.1911 -0.4122
 6924SOL    HW122213   0.846   7.559   9.889  0.9818  0.1521 -0.1921
 6924SOL    HW222214   0.942   7.647   9.813 -1.9798  3.1970 -0.6471
 6925SOL     OW22215   3.185   7.722  12.325  0.0399 -0.1315 -0.1293
 6925SOL    HW122216   3.216   7.636  12.354 -0.7300 -0.5564 -0.5405
 6925SOL    HW222217   3.177   7.714  12.230 -2.1170 -0.3360  0.0168
 6926SOL     OW22218   3.414   4.347  11.035  0.3306 -0.5725 -0.9509
 6926SOL    HW122219   3.352   4.356  11.108  0.5039 -0.2817 -0.8380
 6926SOL    HW222220   3.361   4.314  10.963 -0.1833  0.6263 -1.1563
 6927SOL     OW22221   0.844   7.023   6.117 -0.0961 -0.1949 -0.7070
 6927SOL    HW122222   0.851   6.936   6.078  0.0807  0.2560 -1.7152
 6927SOL    HW222223   0.930   7.063   6.102  1.1061 -1.0629  2.8818
 6928SOL     OW22224   6.846   2.896   0.739 -0.3430 -0.2567 -0.3616
 6928SOL    HW122225   6.875   2.926   0.825  0.8953  1.6324 -1.3836
 6928SOL    HW222226   6.753   2.877   0.751 -0.1861 -0.0778  1.3864
 6929SOL     OW22227   4.466   0.829   1.460  0.0518 -0.3001 -0.4226
 6929SOL    HW122228   4.422   0.902   1.417  1.0413 -0.3078 -1.5092
 6929SOL    HW222229   4.539   0.869   1.507 -1.4073 -0.2098  1.9017
 6930SOL     OW22230   0.618   6.206   3.433 -0.4475 -0.7479 -0.6754
 6930SOL    HW122231   0.630   6.291   3.391  0.6998 -1.4488 -1.8259
 6930SOL    HW222232   0.565   6.225   3.511  2.5459  1.5840  1.0050
 6931SOL     OW22233   4.950   4.896  12.095 -0.2120  0.8975  0.2639
 6931SOL    HW122234   4.856   4.878  12.098 -0.2395  0.7564 -0.8906
 6931SOL    HW222235   4.973   4.921  12.184 -1.3516  0.9586  0.5519
 6932SOL     OW22236   1.865   3.536   4.718 -0.5260  0.0031  0.1381
 6932SOL    HW122237   1.911   3.463   4.676  0.7116  0.2733  0.9767
 6932SOL    HW222238   1.772   3.515   4.706 -0.2028 -1.0032 -0.8352
 6933SOL     OW22239   1.907   5.683   3.030  0.9309 -0.2641  0.5347
 6933SOL    HW122240   1.881   5.716   2.944 -0.2136 -0.9797  0.5935
 6933SOL    HW222241   1.927   5.591   3.015 -1.4856 -0.9995  1.4212
 6934SOL     OW22242   7.189   3.452   2.199  0.1760  0.1012 -0.2116
 6934SOL    HW122243   7.132   3.422   2.128  0.3117  0.0671 -0.3053
 6934SOL    HW222244   7.137   3.519   2.244  0.0474  0.0445 -0.2751
 6935SOL     OW22245   7.135   4.614   8.150 -0.0397 -0.1625  0.2377
 6935SOL    HW122246   7.152   4.535   8.099  0.1247  0.5230 -0.8075
 6935SOL    HW222247   7.103   4.582   8.234 -1.7392 -1.3314 -0.7729
 6936SOL     OW22248   5.411   4.551   9.346 -0.1176 -0.6006  0.6152
 6936SOL    HW122249   5.377   4.592   9.426 -3.3767  1.0082 -1.3730
 6936SOL    HW222250   5.427   4.460   9.370  2.1969  0.4722  3.8394
 6937SOL     OW22251   6.366   4.527  11.299  0.0598  0.3983 -0.0058
 6937SOL    HW122252   6.356   4.572  11.215  2.0292  2.0535  0.5692
 6937SOL    HW222253   6.341   4.593  11.364 -0.5055 -0.5525  0.7688
 6938SOL     OW22254   4.034   5.446   9.056 -0.7082  0.2069  0.1661
 6938SOL    HW122255   4.069   5.529   9.024 -3.4092  0.7901 -1.5843
 6938SOL    HW222256   3.975   5.416   8.986 -1.2982 -2.2288  1.5780
 6939SOL     OW22257   3.146   2.231   0.332 -0.1763  0.4194  0.7539
 6939SOL    HW122258   3.203   2.182   0.391 -0.4769 -1.7625 -0.6510
 6939SOL    HW222259   3.067   2.179   0.325 -0.3910  0.9093 -1.0826
 6940SOL     OW22260   2.116   6.642   7.778 -1.0227 -0.0726 -0.5165
 6940SOL    HW122261   2.199   6.603   7.750  0.3506  1.7326  0.8724
 6940SOL    HW222262   2.133   6.736   7.782 -3.1586  0.3570 -0.1773
 6941SOL     OW22263   6.898   6.497   3.364  0.3209  0.0578  0.3251
 6941SOL    HW122264   6.828   6.516   3.427  0.4193 -0.4418  0.5923
 6941SOL    HW222265   6.961   6.444   3.414  0.0991 -0.8766 -0.3636
 6942SOL     OW22266   4.419   2.551  10.067  0.5865 -0.3981  0.1404
 6942SOL    HW122267   4.398   2.601  10.146 -0.0325 -1.1711  0.4721
 6942SOL    HW222268   4.477   2.482  10.097 -0.4346 -1.2952  0.1140
 6943SOL     OW22269   0.668   4.664   7.261  0.5967  0.2547 -0.0776
 6943SOL    HW122270   0.640   4.580   7.224 -1.1672 -0.3106  2.2829
 6943SOL    HW222271   0.763   4.664   7.251  0.4616 -1.0847 -1.9310
 6944SOL     OW22272   4.312   7.200   8.153  0.1081  0.0991 -0.3830
 6944SOL    HW122273   4.387   7.141   8.158 -1.5341 -2.2201 -1.4054
 6944SOL    HW222274   4.262   7.184   8.233  0.8062  1.8593  0.4443
 6945SOL     OW22275   1.657   0.214   3.242 -0.1278 -0.1638 -0.3282
 6945SOL    HW122276   1.591   0.165   3.291 -1.3472  0.9911 -0.7441
 6945SOL    HW222277   1.649   0.303   3.274  1.9628 -0.1759  0.3289
 6946SOL     OW22278   6.053   1.043   7.649 -0.4561  0.1966 -0.2607
 6946SOL    HW122279   5.993   1.090   7.707  0.5439  0.9897  0.1668
 6946SOL    HW222280   6.029   0.951   7.659  0.1814  0.2067  2.0750
 6947SOL     OW22281   5.932   5.719   7.116  0.0400  0.2094  0.2517
 6947SOL    HW122282   5.957   5.644   7.170 -0.8682 -0.4435 -0.2012
 6947SOL    HW222283   6.010   5.776   7.116  0.9554 -1.0068  0.1171
 6948SOL     OW22284   5.133   3.562   5.681  0.6282 -0.4145  0.3697
 6948SOL    HW122285   5.078   3.589   5.608 -0.0508 -0.4599  0.8482
 6948SOL    HW222286   5.071   3.531   5.747  1.2853 -1.6099  0.4641
 6949SOL     OW22287   3.735   6.011   2.771 -0.5717 -0.2692  0.5513
 6949SOL    HW122288   3.756   5.963   2.691 -0.6135  1.1862 -0.3826
 6949SOL    HW222289   3.639   6.016   2.772 -0.5478  0.6208  0.0882
 6950SOL     OW22290   5.423   7.400   4.555 -0.0916 -0.2353 -0.6427
 6950SOL    HW122291   5.454   7.325   4.604  0.5490 -0.3106 -1.1460
 6950SOL    HW222292   5.328   7.387   4.548 -0.1889 -0.2391  0.5193
 6951SOL     OW22293   2.660   4.613   3.055  0.3928 -0.0426 -0.5519
 6951SOL    HW122294   2.732   4.565   3.013 -0.6457 -0.7224 -1.6077
 6951SOL    HW222295   2.591   4.616   2.988 -0.2986  1.2243  0.1896
 6952SOL     OW22296   0.265   6.718   9.510  0.4912  0.1306 -0.6031
 6952SOL    HW122297   0.314   6.772   9.572 -1.1177  0.1646  0.7213
 6952SOL    HW222298   0.180   6.705   9.552 -0.1070 -1.1835 -2.1169
 6953SOL     OW22299   3.064   3.685   3.152 -0.0438 -0.7516 -0.6586
 6953SOL    HW122300   3.117   3.750   3.106 -2.0767 -0.1417 -2.2683
 6953SOL    HW222301   3.105   3.679   3.238  2.5905 -0.3126 -1.7762
 6954SOL     OW22302   7.635   1.997   3.888 -0.1321  0.2317 -0.4436
 6954SOL    HW122303   7.679   2.045   3.818 -0.1843  0.8514 -0.0573
 6954SOL    HW222304   7.705   1.954   3.936  0.0601  1.0893  0.0753
 6955SOL     OW22305   1.840   1.749   3.828 -0.2150 -0.1075 -0.2640
 6955SOL    HW122306   1.758   1.714   3.793 -0.0242 -0.6880 -0.1366
 6955SOL    HW222307   1.894   1.672   3.844  0.6407  0.3050 -1.0480
 6956SOL     OW22308   2.278   1.073   1.950 -0.1512 -0.8351 -0.2960
 6956SOL    HW122309   2.355   1.039   1.995 -0.1154 -0.7651 -0.3040
 6956SOL    HW222310   2.307   1.156   1.912  0.0781 -1.3449 -1.2384
 6957SOL     OW22311   6.949   4.412   9.620 -0.2204  0.0569  0.5317
 6957SOL    HW122312   6.929   4.486   9.562  0.8366 -0.8823 -1.1442
 6957SOL    HW222313   6.871   4.402   9.674 -1.1342  1.2260 -0.5020
 6958SOL     OW22314   6.460   5.188   9.597  0.2883  0.7276  0.0870
 6958SOL    HW122315   6.372   5.151   9.609  0.9645 -1.3188 -0.8670
 6958SOL    HW222316   6.470   5.195   9.502  1.4810  0.0598  0.1437
 6959SOL     OW22317   6.440   7.437   1.905 -0.0040 -0.0619  0.2561
 6959SOL    HW122318   6.402   7.475   1.826 -0.6317  1.5803  1.2807
 6959SOL    HW222319   6.526   7.405   1.878  0.0421  1.0200 -0.9675
 6960SOL     OW22320   5.920   2.414   4.345 -0.1527 -0.1502  0.4399
 6960SOL    HW122321   5.903   2.400   4.439  1.6098 -1.0452  0.6751
 6960SOL    HW222322   5.938   2.326   4.311  0.8811  0.3543 -0.3622
 6961SOL     OW22323   1.752   6.375   5.722 -0.4465  0.6856  0.1471
 6961SOL    HW122324   1.729   6.285   5.700 -0.9918  0.5410  1.1902
 6961SOL    HW222325   1.714   6.387   5.810 -0.2529  1.8773  0.0743
 6962SOL     OW22326   0.424   5.296  12.273  0.1221 -0.3046 -0.2281
 6962SOL    HW122327   0.397   5.326  12.186  1.7273  0.8223 -0.3755
 6962SOL    HW222328   0.472   5.216  12.256  0.7145  0.0876 -0.4220
 6963SOL     OW22329   1.712   5.398   1.123  0.0254  0.4023  0.5073
 6963SOL    HW122330   1.636   5.456   1.116 -0.2506 -0.1020 -0.7728
 6963SOL    HW222331   1.687   5.334   1.190 -1.1652 -0.4492 -0.7013
 6964SOL     OW22332   1.610   2.655   4.909 -0.5524 -0.8513 -0.1894
 6964SOL    HW122333   1.618   2.603   4.989  0.2765 -1.7561 -0.8388
 6964SOL    HW222334   1.617   2.591   4.838 -1.1037 -0.0449 -0.9949
 6965SOL     OW22335   2.853   1.640  11.063  0.2659  0.2486  0.1322
 6965SOL    HW122336   2.863   1.582  10.988 -0.6387  0.1171  0.1033
 6965SOL    HW222337   2.846   1.581  11.138  2.0365  0.3934  0.4507
 6966SOL     OW22338   5.901   6.093   1.850  0.6907  0.3602  0.4727
 6966SOL    HW122339   5.863   6.181   1.842  1.1077  0.3301 -2.9695
 6966SOL    HW222340   5.986   6.108   1.891  0.7725  1.5832 -0.0956
 6967SOL     OW22341   6.010   7.731   3.022 -0.1771 -0.5014 -0.3872
 6967SOL    HW122342   6.023   7.826   3.015 -0.2149 -0.4902 -0.3032
 6967SOL    HW222343   5.923   7.717   2.985 -0.9941 -0.2652  1.3388
 6968SOL     OW22344   6.943   7.227   2.199  0.1023  0.0874 -0.5508
 6968SOL    HW122345   7.004   7.216   2.125 -0.5681  0.5995 -1.1948
 6968SOL    HW222346   6.949   7.320   2.220  0.5662 -0.1259  0.3007
 6969SOL     OW22347   6.353   1.107   3.414  0.1698  0.1446  0.8484
 6969SOL    HW122348   6.394   1.169   3.352 -2.2058  1.2891  0.2882
 6969SOL    HW222349   6.407   1.029   3.408  1.7631  1.2490 -0.4456
 6970SOL     OW22350   0.132   4.623  10.430  0.0201  0.4248 -0.2207
 6970SOL    HW122351   0.060   4.564  10.405 -1.2337  1.3874  0.9838
 6970SOL    HW222352   0.129   4.693  10.365 -2.1319  2.0258  1.4506
 6971SOL     OW22353   2.268   5.449   6.822  0.1839 -0.6306 -0.2249
 6971SOL    HW122354   2.269   5.443   6.726  0.3101 -0.7483 -0.2171
 6971SOL    HW222355   2.353   5.414   6.849  0.1066 -0.6953 -0.0652
 6972SOL     OW22356   4.945   1.365  11.493 -0.3000 -0.4084  0.2275
 6972SOL    HW122357   5.001   1.289  11.482 -0.0931 -0.2042 -0.1477
 6972SOL    HW222358   4.893   1.368  11.413  1.7290  1.5114 -1.1342
 6973SOL     OW22359   3.552   7.055   9.394 -0.1443 -0.1407 -0.0957
 6973SOL    HW122360   3.493   7.103   9.452  1.9582 -0.9553  2.9846
 6973SOL    HW222361   3.553   6.965   9.428  0.2809 -1.0106 -2.2011
 6974SOL     OW22362   3.668   1.703   7.292 -0.0467 -0.2968  0.7198
 6974SOL    HW122363   3.681   1.611   7.314 -0.4839 -0.4632  0.2919
 6974SOL    HW222364   3.756   1.739   7.285  0.1272 -0.7369  0.6611
 6975SOL     OW22365   5.125   5.113   9.334 -0.1981 -0.1224  0.0223
 6975SOL    HW122366   5.048   5.131   9.281 -0.7165  0.9138  1.0703
 6975SOL    HW222367   5.198   5.148   9.283 -0.3244 -1.5963 -1.2253
 6976SOL     OW22368   0.651   7.502  11.554 -0.2299 -0.1581 -0.5715
 6976SOL    HW122369   0.607   7.572  11.506  0.3765  0.6785  0.0584
 6976SOL    HW222370   0.581   7.442  11.579 -1.0953  1.3068  0.6984
 6977SOL     OW22371   1.062   1.301   5.346 -0.4975  0.2120  0.3910
 6977SOL    HW122372   1.142   1.276   5.393  0.2321 -1.3390 -1.5658
 6977SOL    HW222373   1.092   1.363   5.279 -1.1033  0.3899  0.2749
 6978SOL     OW22374   6.453   7.386   1.447 -0.2612 -0.1696  0.1670
 6978SOL    HW122375   6.524   7.431   1.401 -0.0277 -0.0890  0.6013
 6978SOL    HW222376   6.452   7.298   1.409  1.1440 -0.7091  1.2548
 6979SOL     OW22377   7.481   6.366   8.624  0.0884  0.1770  0.3438
 6979SOL    HW122378   7.474   6.460   8.642 -2.0853 -0.2266  2.1331
 6979SOL    HW222379   7.500   6.327   8.710  0.0288 -1.1040 -0.2006
 6980SOL     OW22380   0.171   0.314   0.997  0.7342 -0.0296  0.2258
 6980SOL    HW122381   0.155   0.321   1.091  1.7804 -1.0603  0.5078
 6980SOL    HW222382   0.110   0.377   0.957  0.8259  1.0042  1.6329
 6981SOL     OW22383   4.405   0.261   1.963 -0.1053  0.2141 -0.0255
 6981SOL    HW122384   4.385   0.337   1.908 -2.1276  0.6746  1.2463
 6981SOL    HW222385   4.385   0.186   1.908  2.8464  0.4806 -1.6480
 6982SOL     OW22386   1.471   3.786   3.433  0.0712  0.0348  0.1878
 6982SOL    HW122387   1.391   3.737   3.448 -1.2326  1.4776 -1.5692
 6982SOL    HW222388   1.443   3.864   3.384  2.3141  1.4550  0.9866
 6983SOL     OW22389   7.030   3.171   3.842 -0.0837  0.1931  0.4909
 6983SOL    HW122390   6.982   3.250   3.866 -0.5524  0.5003 -1.2953
 6983SOL    HW222391   6.994   3.146   3.757  0.7931 -1.3492  0.5332
 6984SOL     OW22392   1.736   4.832   2.302 -0.1875 -0.0906 -0.1177
 6984SOL    HW122393   1.686   4.896   2.252  0.2579  0.8663  0.6283
 6984SOL    HW222394   1.741   4.755   2.244 -0.6796  0.5581 -1.0536
 6985SOL     OW22395   0.217   6.462   5.685 -0.0841  0.4168 -0.1960
 6985SOL    HW122396   0.272   6.513   5.625 -0.8944  0.8105 -0.6109
 6985SOL    HW222397   0.129   6.468   5.648 -0.4509 -0.0252  0.5885
 6986SOL     OW22398   2.023   4.681   2.670 -0.4896  0.3644  0.2484
 6986SOL    HW122399   2.002   4.659   2.761  0.8446  0.4071  0.5864
 6986SOL    HW222400   1.987   4.768   2.657 -0.4138  0.4853  0.8329
 6987SOL     OW22401   2.474   0.077  11.507 -0.0311  0.2723 -0.0071
 6987SOL    HW122402   2.382   0.101  11.510 -0.4028 -0.9450 -0.8375
 6987SOL    HW222403   2.518   0.152  11.467 -0.9290  0.1636 -1.2447
 6988SOL     OW22404   7.095   0.012   3.399  0.0776 -0.6260 -0.4755
 6988SOL    HW122405   7.039   0.029   3.324 -1.5485 -1.3234  0.5382
 6988SOL    HW222406   7.036   0.011   3.474  1.6145 -0.1975  0.8026
 6989SOL     OW22407   6.470   5.262   3.413  0.2329  0.2754  0.5516
 6989SOL    HW122408   6.527   5.264   3.336  0.0664  0.0639  0.4233
 6989SOL    HW222409   6.529   5.242   3.486  0.0405 -1.8891  0.1609
 6990SOL     OW22410   2.093   7.376  10.962  0.0888  1.1579 -0.7154
 6990SOL    HW122411   2.095   7.405  10.870 -0.5773 -0.2881 -1.2121
 6990SOL    HW222412   2.181   7.396  10.995  1.1932 -0.5556 -2.4196
 6991SOL     OW22413   0.412   7.151   8.011  0.2942 -0.0803  0.3815
 6991SOL    HW122414   0.414   7.200   7.929 -0.7258 -1.7294 -0.7014
 6991SOL    HW222415   0.366   7.208   8.073 -1.5207  0.1016 -1.0317
 6992SOL     OW22416   2.223   2.021  10.966 -0.4367 -0.4173  0.2148
 6992SOL    HW122417   2.266   1.944  10.930 -0.9211  0.0620 -1.4532
 6992SOL    HW222418   2.154   2.042  10.903 -1.6155  0.2016  1.6515
 6993SOL     OW22419   4.210   1.364   7.249 -0.0567 -0.3449  0.0237
 6993SOL    HW122420   4.121   1.342   7.222 -0.0043 -0.0816 -0.3639
 6993SOL    HW222421   4.255   1.387   7.168 -0.0528  0.9999  0.3913
 6994SOL     OW22422   1.613   1.251   9.593 -0.0986 -0.1393 -0.2476
 6994SOL    HW122423   1.638   1.161   9.572 -0.4303 -1.0816  2.8584
 6994SOL    HW222424   1.545   1.273   9.529 -0.7753 -2.4993 -0.4278
 6995SOL     OW22425   3.380   5.898   0.377  0.4494 -0.1224  0.3495
 6995SOL    HW122426   3.377   5.834   0.306  0.7530 -0.1890  0.3959
 6995SOL    HW222427   3.307   5.957   0.359  1.0766  0.4071 -0.5350
 6996SOL     OW22428   0.426   2.877   8.032  0.2035 -0.3534  0.0798
 6996SOL    HW122429   0.475   2.852   7.954  1.1537  0.3413  0.4300
 6996SOL    HW222430   0.466   2.826   8.103 -0.1451 -0.4126  0.2354
 6997SOL     OW22431   4.124   5.326   6.023  0.0644 -0.1453 -0.0090
 6997SOL    HW122432   4.195   5.301   6.082  2.2155  1.2511 -1.8206
 6997SOL    HW222433   4.144   5.416   5.999 -2.6572  0.4663 -0.2295
 6998SOL     OW22434   1.023   6.854   7.062 -0.0333 -0.2337  0.6868
 6998SOL    HW122435   1.079   6.801   7.004 -1.0859  1.4400 -2.0383
 6998SOL    HW222436   1.074   6.864   7.142  2.2236 -1.3464 -0.5251
 6999SOL     OW22437   1.301   5.154  10.267  0.1103  0.1014  0.0430
 6999SOL    HW122438   1.320   5.077  10.320 -0.3397  0.2564  0.4304
 6999SOL    HW222439   1.238   5.123  10.201  0.7823 -0.1264 -0.5007
 7000SOL     OW22440   4.282   3.196  10.673  0.1944 -0.2787  0.0900
 7000SOL    HW122441   4.326   3.265  10.622  0.1173 -1.2204 -1.2988
 7000SOL    HW222442   4.314   3.114  10.636  0.0133 -1.0135  1.4848
 7001SOL     OW22443   4.662   0.950   9.128  0.1399  0.2600  0.1793
 7001SOL    HW122444   4.581   0.903   9.108 -0.0086  1.1561 -1.4921
 7001SOL    HW222445   4.684   0.922   9.217 -1.1641 -1.1819  0.1018
 7002SOL     OW22446   6.392   4.885   3.534 -0.0555  0.1460  0.2363
 7002SOL    HW122447   6.334   4.955   3.503 -1.0707 -0.3502  0.9479
 7002SOL    HW222448   6.340   4.805   3.526  0.7760 -0.4091  0.2540
 7003SOL     OW22449   3.999   5.738  11.250 -0.2114 -0.1321  0.4872
 7003SOL    HW122450   3.938   5.733  11.177  1.4024  0.8104 -1.0060
 7003SOL    HW222451   4.005   5.648  11.283 -1.5317 -0.4313 -0.0338
 7004SOL     OW22452   4.898   0.563   1.541 -0.1308  0.2947 -0.3259
 7004SOL    HW122453   4.953   0.619   1.596 -0.4361  0.8221 -0.5430
 7004SOL    HW222454   4.905   0.603   1.454 -1.4011  0.7918 -0.2261
 7005SOL     OW22455   3.652   0.375   9.272  0.5331  0.0345  0.2713
 7005SOL    HW122456   3.708   0.453   9.274 -0.1811  0.5560  0.4775
 7005SOL    HW222457   3.579   0.397   9.329 -0.4590 -0.1811 -0.8857
 7006SOL     OW22458   7.890   3.637   4.212  0.0077 -1.1617 -0.5390
 7006SOL    HW122459   7.958   3.619   4.147 -0.1388 -0.3692 -0.9240
 7006SOL    HW222460   7.870   3.552   4.251 -0.3363 -1.7600 -1.9658
 7007SOL     OW22461   2.001   7.457   9.553 -0.9214  0.0753 -0.1323
 7007SOL    HW122462   2.033   7.532   9.504  1.3163 -0.0682  0.9808
 7007SOL    HW222463   1.911   7.481   9.578 -0.6435  1.8899 -0.7558
 7008SOL     OW22464   6.871   4.638  12.371  0.6314 -0.4709  0.6172
 7008SOL    HW122465   6.776   4.625  12.369  0.8937 -2.7965  1.0244
 7008SOL    HW222466   6.894   4.657  12.280 -0.2972  0.9888  0.6592
 7009SOL     OW22467   1.955   3.208   1.924  0.0195  0.2291  0.4453
 7009SOL    HW122468   1.887   3.142   1.911 -0.0212  0.2913  0.3395
 7009SOL    HW222469   1.926   3.282   1.870  0.0494  0.3440  0.5875
 7010SOL     OW22470   5.794   4.655   8.222  0.6097 -0.2993 -0.1241
 7010SOL    HW122471   5.828   4.602   8.294  1.3166  0.2050 -0.0794
 7010SOL    HW222472   5.727   4.600   8.182 -3.5573  1.1229  3.9177
 7011SOL     OW22473   7.618   0.893  10.769 -0.3022  0.1956 -0.3169
 7011SOL    HW122474   7.615   0.809  10.814 -0.6621  0.0966 -0.5173
 7011SOL    HW222475   7.598   0.872  10.678  1.0109  0.3158 -0.6546
 7012SOL     OW22476   7.297   1.122   3.389  0.5536  0.8154  0.0249
 7012SOL    HW122477   7.238   1.178   3.338  0.1245  0.4436  0.1056
 7012SOL    HW222478   7.311   1.045   3.334 -0.4192  0.1193  0.7132
 7013SOL     OW22479   4.296   5.617   4.217 -0.0925  0.2151 -0.4334
 7013SOL    HW122480   4.330   5.631   4.306 -0.7106 -1.3699  0.0851
 7013SOL    HW222481   4.307   5.702   4.174  2.3088  0.4249  0.4221
 7014SOL     OW22482   5.648   3.580   0.432 -0.4107 -0.1600 -0.4894
 7014SOL    HW122483   5.611   3.553   0.348 -0.1999  0.7032 -0.8721
 7014SOL    HW222484   5.742   3.564   0.423 -0.3695  0.0742 -0.4713
 7015SOL     OW22485   0.030   0.177   4.255 -0.0754 -0.2969 -0.2752
 7015SOL    HW122486  -0.039   0.224   4.209 -1.3290 -1.7820 -0.0071
 7015SOL    HW222487   0.017   0.201   4.347  0.8734  0.7586 -0.4052
 7016SOL     OW22488   2.645   2.359   7.451  0.0668  0.1680 -0.2911
 7016SOL    HW122489   2.738   2.378   7.465 -0.2219  1.9611 -0.5535
 7016SOL    HW222490   2.603   2.445   7.449 -0.9153 -0.1701 -5.1648
 7017SOL     OW22491   3.483   7.502   8.599 -0.3790 -0.2222 -0.4175
 7017SOL    HW122492   3.444   7.446   8.532  1.1379  0.2203 -1.7189
 7017SOL    HW222493   3.471   7.591   8.566 -1.3528  0.1568  0.8714
 7018SOL     OW22494   1.206   5.515   0.251  0.3090  0.3225 -0.5621
 7018SOL    HW122495   1.217   5.575   0.325 -0.1185 -2.0917  1.6155
 7018SOL    HW222496   1.137   5.555   0.198  0.8919  2.3278  0.1124
 7019SOL     OW22497   6.689   2.782   8.038  0.3850  0.2787  0.1627
 7019SOL    HW122498   6.671   2.718   7.970 -2.5028 -0.4056  1.3937
 7019SOL    HW222499   6.613   2.842   8.035  0.4566  0.5632  2.3362
 7020SOL     OW22500   1.047   1.260   7.507 -0.2307  0.0529 -0.1046
 7020SOL    HW122501   1.115   1.306   7.557  0.4051 -0.5588 -0.4011
 7020SOL    HW222502   0.991   1.330   7.473  1.1897  0.6832 -1.2309
 7021SOL     OW22503   2.497   4.362  12.464  0.1138 -0.4234 -0.0656
 7021SOL    HW122504   2.566   4.392  12.404 -0.5482  1.5906  0.1347
 7021SOL    HW222505   2.537   4.370  12.551 -0.0374 -0.2108 -0.0166
 7022SOL     OW22506   6.051   1.421  10.280  0.0799  0.0212 -0.0487
 7022SOL    HW122507   6.109   1.438  10.354  0.1816  1.1991 -0.3805
 7022SOL    HW222508   6.083   1.338  10.243  2.7529  1.4723 -1.3132
 7023SOL     OW22509   5.328   3.243   1.915 -0.2054 -0.6887 -0.4116
 7023SOL    HW122510   5.295   3.332   1.927  0.3067 -0.4127 -1.0113
 7023SOL    HW222511   5.329   3.206   2.003 -2.0121 -0.6874 -0.3490
 7024SOL     OW22512   0.762   4.192   3.527 -0.3105  0.0442 -0.2712
 7024SOL    HW122513   0.717   4.260   3.477 -1.0291  0.6286  1.1211
 7024SOL    HW222514   0.843   4.234   3.557 -1.1906  0.6553  1.3868
 7025SOL     OW22515   0.013   0.407   9.278  0.0683 -0.1993  0.1699
 7025SOL    HW122516  -0.005   0.488   9.327  0.6138  1.2978 -1.9348
 7025SOL    HW222517   0.098   0.378   9.311 -0.3202 -0.1789  1.2399
 7026SOL     OW22518   0.396   5.671   3.052  0.2589 -0.0695 -0.2579
 7026SOL    HW122519   0.481   5.711   3.071 -0.3294  0.8898  0.4759
 7026SOL    HW222520   0.417   5.596   2.997  1.5205  0.5273 -0.6376
 7027SOL     OW22521   7.417   0.368   9.104  0.3023  0.0895 -0.1738
 7027SOL    HW122522   7.464   0.393   9.183 -0.5098 -2.6870  1.3394
 7027SOL    HW222523   7.341   0.427   9.102  0.9564  0.9708  0.4522
 7028SOL     OW22524   5.188   1.361  10.909  0.6638 -0.3011 -0.8323
 7028SOL    HW122525   5.137   1.392  10.984 -0.2044 -0.0443 -1.5199
 7028SOL    HW222526   5.276   1.347  10.944  0.2089 -0.4343  0.2957
 7029SOL     OW22527   1.845   3.853   0.638  0.6929 -0.1094 -0.2789
 7029SOL    HW122528   1.873   3.928   0.585  0.5399 -0.2332 -0.5378
 7029SOL    HW222529   1.767   3.884   0.685  0.9232  0.0521  0.0005
 7030SOL     OW22530   1.797   5.961   6.386 -0.1118 -0.3923 -0.6093
 7030SOL    HW122531   1.860   6.007   6.331 -0.8741  1.6215  0.0695
 7030SOL    HW222532   1.842   5.948   6.469  0.0759 -0.7876 -0.7730
 7031SOL     OW22533   0.702   1.640   6.111  0.3181 -0.2780  0.7010
 7031SOL    HW122534   0.689   1.647   6.017  0.3692 -0.0160  0.7135
 7031SOL    HW222535   0.793   1.667   6.125 -0.2460  1.5567  1.0396
 7032SOL     OW22536   0.506   4.786   7.469 -0.5233  0.0878 -0.4165
 7032SOL    HW122537   0.567   4.848   7.509  0.1966 -0.3751 -0.7699
 7032SOL    HW222538   0.560   4.739   7.405 -0.7199 -1.8151  0.7523
 7033SOL     OW22539   0.107   5.517   2.218  0.0311 -0.2065 -0.3078
 7033SOL    HW122540   0.126   5.581   2.287  1.5501 -3.6009  2.7896
 7033SOL    HW222541   0.011   5.518   2.210 -0.0247  1.9606  0.0068
 7034SOL     OW22542   2.333   6.434   7.747 -0.2588 -0.0079  0.5739
 7034SOL    HW122543   2.268   6.366   7.766  0.3885 -0.7393  0.2325
 7034SOL    HW222544   2.396   6.427   7.819 -0.9882  1.2828  1.3788
 7035SOL     OW22545   4.400   5.202  11.101  0.4415 -0.3134  0.5616
 7035SOL    HW122546   4.440   5.115  11.114 -0.3724 -0.8474 -0.3959
 7035SOL    HW222547   4.473   5.257  11.071  0.6996 -0.9921 -0.0876
 7036SOL     OW22548   1.655   4.911   8.808 -0.5906 -0.7319 -0.1993
 7036SOL    HW122549   1.681   4.874   8.893 -2.2651 -1.3004  0.1087
 7036SOL    HW222550   1.737   4.915   8.758  0.4196 -0.5038  1.3776
 7037SOL     OW22551   1.237   2.234   1.793 -0.1504 -0.7476 -0.2740
 7037SOL    HW122552   1.185   2.229   1.873  0.1331 -1.3920 -0.1233
 7037SOL    HW222553   1.172   2.244   1.723 -0.5520 -2.1502 -0.1535
 7038SOL     OW22554   6.381   2.856   0.990  0.3743 -0.2514 -0.6901
 7038SOL    HW122555   6.366   2.763   1.011 -1.5946  0.5410  1.9634
 7038SOL    HW222556   6.454   2.882   1.045  0.3683 -0.0186 -0.7895
 7039SOL     OW22557   1.799   3.754   1.694  0.3109  0.2154 -0.2366
 7039SOL    HW122558   1.854   3.697   1.749  0.4471  0.1711 -0.4186
 7039SOL    HW222559   1.841   3.840   1.700  0.2628  0.2356 -0.1842
 7040SOL     OW22560   7.020   5.017   0.845  0.6191  0.4554 -0.6059
 7040SOL    HW122561   7.008   5.083   0.777  0.9685 -1.1486 -2.3013
 7040SOL    HW222562   7.091   4.961   0.812  0.4406 -0.6823  0.8275
 7041SOL     OW22563   7.063   1.672   5.572  0.1928  0.3918 -0.5013
 7041SOL    HW122564   7.120   1.661   5.496  0.0509 -1.7609 -0.3598
 7041SOL    HW222565   6.993   1.609   5.558 -1.2387  1.7735  0.1872
 7042SOL     OW22566   1.276   2.378   5.828  0.2589  0.2334  0.5334
 7042SOL    HW122567   1.311   2.315   5.765  0.2165 -0.8728  1.5725
 7042SOL    HW222568   1.353   2.416   5.870  0.3049  1.3387 -0.4850
 7043SOL     OW22569   3.279   1.647   8.381  0.0359 -0.0741 -0.4463
 7043SOL    HW122570   3.187   1.629   8.399  0.1617 -0.8768 -0.5546
 7043SOL    HW222571   3.281   1.673   8.289 -0.0739 -0.1012 -0.4567
 7044SOL     OW22572   6.204   4.280   1.865  0.1974 -0.4030 -0.4596
 7044SOL    HW122573   6.122   4.241   1.833 -0.1186 -0.5875  0.5373
 7044SOL    HW222574   6.228   4.226   1.941 -0.1798  1.2212  0.8680
 7045SOL     OW22575   2.857   6.983  10.784 -0.1830 -0.0419  0.1756
 7045SOL    HW122576   2.833   7.075  10.782 -0.1965 -0.0652 -1.1087
 7045SOL    HW222577   2.939   6.981  10.834 -0.1262  0.6817  0.1148
 7046SOL     OW22578   2.343   1.836   4.810 -0.4878 -0.4759  0.1003
 7046SOL    HW122579   2.263   1.830   4.758 -2.5963  1.1345  2.9014
 7046SOL    HW222580   2.332   1.770   4.879  0.4215  0.0131  0.7396
 7047SOL     OW22581   4.918   4.929   0.187  0.2309  0.3644  0.2851
 7047SOL    HW122582   4.823   4.926   0.174  0.1606  0.9974  0.6293
 7047SOL    HW222583   4.939   4.848   0.233  0.1548 -0.8026 -1.6091
 7048SOL     OW22584   6.016   0.175   4.903  0.0243  0.7469 -0.2313
 7048SOL    HW122585   6.077   0.247   4.919 -0.7670  1.0091  1.9720
 7048SOL    HW222586   5.966   0.168   4.985 -1.5202 -0.7653 -1.2473
 7049SOL     OW22587   3.150   1.484  10.823 -0.1054 -0.1286  0.5468
 7049SOL    HW122588   3.220   1.533  10.866 -0.5111 -0.3646  1.5188
 7049SOL    HW222589   3.192   1.439  10.750  0.7283 -0.1621  1.0416
 7050SOL     OW22590   2.010   2.568   7.921  0.2609 -0.3711 -0.3860
 7050SOL    HW122591   2.052   2.547   8.004  1.6965 -0.6212 -1.1417
 7050SOL    HW222592   1.934   2.510   7.916 -0.0541 -0.0877  0.9005
 7051SOL     OW22593   4.112   2.553   5.380 -0.3557 -0.2925  0.1113
 7051SOL    HW122594   4.204   2.532   5.364  0.5693  1.7002  2.3082
 7051SOL    HW222595   4.086   2.495   5.451 -0.7610 -0.7360 -0.3944
 7052SOL     OW22596   2.563   2.608   4.000 -0.1967 -0.2100 -0.1311
 7052SOL    HW122597   2.620   2.678   4.033 -1.5979  1.9483 -1.8935
 7052SOL    HW222598   2.598   2.588   3.913 -1.3128  0.2491 -0.7167
 7053SOL     OW22599   5.348   6.144   0.770 -0.2315  0.2945  0.2955
 7053SOL    HW122600   5.268   6.157   0.719 -0.6661  1.8744  1.3184
 7053SOL    HW222601   5.372   6.053   0.754 -0.8613  0.4706 -1.9641
 7054SOL     OW22602   5.704   6.848   4.273  0.2428  0.2966 -0.6425
 7054SOL    HW122603   5.665   6.762   4.263 -2.1218  1.2895 -0.5418
 7054SOL    HW222604   5.795   6.830   4.296 -0.1460 -2.1416 -0.7213
 7055SOL     OW22605   2.263   5.420   1.026  0.2708 -0.3432  0.5730
 7055SOL    HW122606   2.277   5.411   1.120  2.3055  0.3895  0.3898
 7055SOL    HW222607   2.182   5.469   1.019  1.5590  2.2188  2.0787
 7056SOL     OW22608   5.551   7.783   5.366  0.1845  0.6284  0.2284
 7056SOL    HW122609   5.504   7.858   5.402  1.0243  2.0083 -1.4125
 7056SOL    HW222610   5.529   7.711   5.426 -2.8477  1.4847  0.3524
 7057SOL     OW22611   6.208   3.851   9.204  0.0992  0.3864 -0.4132
 7057SOL    HW122612   6.136   3.865   9.143 -0.8567  2.4162  1.0377
 7057SOL    HW222613   6.285   3.889   9.161 -0.3455  0.8590 -0.8066
 7058SOL     OW22614   0.759   6.855  10.487  0.4984 -0.0880 -1.2422
 7058SOL    HW122615   0.840   6.894  10.522 -0.7027  2.5234 -1.1449
 7058SOL    HW222616   0.745   6.899  10.403 -0.2757 -1.2709 -1.7517
 7059SOL     OW22617   0.939   1.688   4.981  0.4712 -0.2972  0.7836
 7059SOL    HW122618   1.006   1.619   4.978  1.4352  0.6212  0.3333
 7059SOL    HW222619   0.896   1.684   4.896  2.2731  1.2771 -0.2838
 7060SOL     OW22620   5.186   1.590   7.086  0.6217  0.4677  0.1119
 7060SOL    HW122621   5.263   1.640   7.061  1.4187 -1.2257 -1.0451
 7060SOL    HW222622   5.129   1.593   7.009  0.5068 -0.0446  0.1714
 7061SOL     OW22623   3.387   4.949   5.284  0.2768  0.4773 -0.4847
 7061SOL    HW122624   3.469   4.998   5.283  0.6898 -0.1799  0.0550
 7061SOL    HW222625   3.377   4.917   5.195  0.2000  1.2119 -0.7470
 7062SOL     OW22626   7.527   4.139  12.023 -0.6624  0.2448  0.3327
 7062SOL    HW122627   7.593   4.118  12.090 -0.1744  1.5117  0.2844
 7062SOL    HW222628   7.520   4.060  11.970  1.9555  0.5427 -0.5905
 7063SOL     OW22629   5.073   1.847  10.671 -0.2602 -0.2998 -0.0976
 7063SOL    HW122630   5.119   1.763  10.668 -0.3367 -0.3129 -0.9224
 7063SOL    HW222631   5.026   1.852  10.588 -0.0661  0.6632 -0.1563
 7064SOL     OW22632   5.457   1.792   1.699 -0.0644 -0.1472 -0.0407
 7064SOL    HW122633   5.476   1.716   1.755 -3.3968 -1.2510 -0.1838
 7064SOL    HW222634   5.376   1.828   1.734  1.1357  3.1493 -0.3085
 7065SOL     OW22635   7.554   2.328   3.240 -0.1853 -0.1651 -0.0588
 7065SOL    HW122636   7.540   2.420   3.261 -0.3749  0.8259 -3.8171
 7065SOL    HW222637   7.469   2.287   3.252 -0.2581  0.2650  1.0093
 7066SOL     OW22638   7.410   1.473  10.516  0.4304 -0.0262  0.0584
 7066SOL    HW122639   7.335   1.533  10.526  0.7185  0.9135 -2.6116
 7066SOL    HW222640   7.380   1.391  10.554 -2.1899  0.1790 -1.3457
 7067SOL     OW22641   4.680   5.267   1.350 -0.1850  0.6492  0.1980
 7067SOL    HW122642   4.700   5.259   1.443  0.1508 -0.0740  0.0677
 7067SOL    HW222643   4.754   5.314   1.313 -1.0671  2.4162  0.5566
 7068SOL     OW22644   6.946   7.495   2.431 -0.4980  0.5218  0.0284
 7068SOL    HW122645   6.936   7.493   2.527  2.0052 -0.9574  0.3426
 7068SOL    HW222646   7.034   7.530   2.417 -0.3770 -0.3702 -1.6727
 7069SOL     OW22647   5.814   7.588   5.059  0.3935 -0.1477  0.0143
 7069SOL    HW122648   5.763   7.518   5.100 -0.7234  0.2817 -0.6265
 7069SOL    HW222649   5.872   7.542   4.998 -0.7573 -0.4835 -0.8515
 7070SOL     OW22650   3.709   7.210  10.457  0.0325  0.2135 -0.1284
 7070SOL    HW122651   3.803   7.205  10.475 -0.0964 -0.4815  0.3781
 7070SOL    HW222652   3.678   7.283  10.511  0.0053 -0.5752  0.9515
 7071SOL     OW22653   6.878   1.540   0.563  0.1052 -0.2502  0.4592
 7071SOL    HW122654   6.938   1.598   0.610 -0.5058 -0.0959  1.0704
 7071SOL    HW222655   6.806   1.525   0.625 -1.2809  0.8452 -0.8081
 7072SOL     OW22656   3.465   7.079   1.320  0.1069 -0.2581  0.2813
 7072SOL    HW122657   3.493   7.134   1.393 -1.3687  3.2689 -1.5768
 7072SOL    HW222658   3.546   7.048   1.281  1.2284  2.6652  0.0426
 7073SOL     OW22659   4.514   6.131  10.676  0.2520  0.5574  0.0746
 7073SOL    HW122660   4.523   6.078  10.755  1.2280  1.3865  0.5490
 7073SOL    HW222661   4.603   6.165  10.660 -0.3751  2.2548 -0.0478
 7074SOL     OW22662   0.682   0.312   2.563  0.3386 -0.5093  0.5277
 7074SOL    HW122663   0.623   0.238   2.547 -0.3107 -0.0578  0.7841
 7074SOL    HW222664   0.736   0.283   2.636 -0.5364 -0.3895  1.2451
 7075SOL     OW22665   5.815   0.078   5.065 -0.1729 -0.0102  0.4107
 7075SOL    HW122666   5.863   0.038   5.137 -2.5613 -0.3157  1.9533
 7075SOL    HW222667   5.727   0.041   5.071 -0.8986  1.1601 -1.7184
 7076SOL     OW22668   4.112   6.797   7.163  0.0384 -0.7534  0.3129
 7076SOL    HW122669   4.182   6.819   7.225  1.1996 -2.9990 -0.0756
 7076SOL    HW222670   4.038   6.851   7.189  0.7906 -0.9065  3.0639
 7077SOL     OW22671   2.490   4.751   2.392 -0.2631 -0.9672 -0.5107
 7077SOL    HW122672   2.560   4.711   2.444 -0.0774 -0.7300 -0.5734
 7077SOL    HW222673   2.414   4.751   2.451 -0.0898 -0.8227 -0.2825
 7078SOL     OW22674   4.927   3.855   9.738  0.0284 -0.0921  0.2199
 7078SOL    HW122675   5.020   3.833   9.733 -0.1257 -0.5160 -2.8725
 7078SOL    HW222676   4.923   3.949   9.717 -0.1496  0.4051  2.2929
 7079SOL     OW22677   2.417   0.425   4.399  0.3748 -0.5860  0.8143
 7079SOL    HW122678   2.492   0.474   4.364 -0.2779  0.9338  1.4299
 7079SOL    HW222679   2.415   0.344   4.349  2.0140 -0.3507  0.3154
 7080SOL     OW22680   0.925   7.103   3.681  0.1630 -1.1616 -0.9849
 7080SOL    HW122681   0.838   7.135   3.703 -0.1227 -1.8384 -1.1160
 7080SOL    HW222682   0.914   7.009   3.667  1.0488 -1.3940 -0.2706
 7081SOL     OW22683   1.018   7.062   9.013 -0.3261 -0.1373  0.2926
 7081SOL    HW122684   1.039   6.977   9.052  0.3629  1.1348  2.9058
 7081SOL    HW222685   0.929   7.080   9.042 -0.4800  0.0391 -0.2785
 7082SOL     OW22686   6.696   6.994   8.722 -0.0168  0.3440  0.4913
 7082SOL    HW122687   6.777   7.036   8.748  1.2161 -1.8338  0.3684
 7082SOL    HW222688   6.633   7.066   8.713  1.9812  2.1330  0.1530
 7083SOL     OW22689   0.747   2.430   9.467 -0.0190 -0.0206  0.0383
 7083SOL    HW122690   0.777   2.503   9.521 -0.5395  0.7277 -0.6616
 7083SOL    HW222691   0.818   2.417   9.403  0.4901 -0.7514  0.7290
 7084SOL     OW22692   7.647   0.474  10.046 -0.0665  0.9342 -0.4481
 7084SOL    HW122693   7.725   0.439  10.087 -1.5244 -2.3241 -0.1918
 7084SOL    HW222694   7.642   0.565  10.077  2.2297  0.4721  1.5268
 7085SOL     OW22695   4.775   1.443   7.334 -0.1846 -0.2015 -0.6141
 7085SOL    HW122696   4.699   1.481   7.291 -0.4954 -1.0412 -0.8252
 7085SOL    HW222697   4.850   1.487   7.295 -0.5804  1.2960  0.2445
 7086SOL     OW22698   3.971   4.679   1.064 -0.0040 -0.0944  0.3077
 7086SOL    HW122699   3.926   4.663   0.981 -1.7893  0.8387  1.0552
 7086SOL    HW222700   3.924   4.752   1.104  1.8358  0.5637  1.4269
 7087SOL     OW22701   2.914   7.467   3.316  0.0057  0.0190  0.0680
 7087SOL    HW122702   2.949   7.426   3.237 -0.3047 -1.2368  0.5665
 7087SOL    HW222703   2.992   7.493   3.366  0.2183  1.4594 -0.9270
 7088SOL     OW22704   2.982   1.110   8.752 -0.5255  0.1186  0.6397
 7088SOL    HW122705   3.044   1.107   8.825  0.6677 -0.0219 -0.3289
 7088SOL    HW222706   2.896   1.115   8.792 -0.1061 -2.7225  2.0810
 7089SOL     OW22707   7.219   7.204   3.149  0.0257 -0.3823  0.0827
 7089SOL    HW122708   7.151   7.252   3.195  1.4758 -0.4227  2.4780
 7089SOL    HW222709   7.181   7.118   3.132 -1.8094  0.7793 -2.2221
 7090SOL     OW22710   1.411   1.452   6.786  0.0524  0.0198  0.1408
 7090SOL    HW122711   1.337   1.395   6.807 -0.9216  1.0558 -0.4034
 7090SOL    HW222712   1.386   1.538   6.820  0.8538  0.4721 -0.3705
 7091SOL     OW22713   6.603   5.657   9.839 -0.6053 -0.1754 -0.3051
 7091SOL    HW122714   6.606   5.752   9.847  1.8660  0.1437 -3.1493
 7091SOL    HW222715   6.571   5.641   9.750  1.4040 -1.8335 -0.8089
 7092SOL     OW22716   1.193   6.653   8.021  0.1519 -0.3329 -0.5160
 7092SOL    HW122717   1.130   6.722   8.044 -2.0746 -2.1656 -0.8266
 7092SOL    HW222718   1.250   6.647   8.098  0.5519  1.9658 -0.5663
 7093SOL     OW22719   3.771   1.515  10.843 -0.1079 -0.2252  0.3634
 7093SOL    HW122720   3.703   1.582  10.833  1.5114  1.7018  1.5011
 7093SOL    HW222721   3.749   1.472  10.926 -0.3160 -0.0597  0.3959
 7094SOL     OW22722   3.035   3.356   1.792 -0.4202  0.1745  0.2146
 7094SOL    HW122723   3.128   3.380   1.793 -0.2257 -0.5713  0.8729
 7094SOL    HW222724   3.034   3.263   1.771 -1.1028  0.4348 -1.0739
 7095SOL     OW22725   1.963   0.984  11.974  0.3470 -0.1088 -0.0305
 7095SOL    HW122726   1.977   0.964  12.066 -1.1685 -1.9027 -0.1109
 7095SOL    HW222727   2.017   0.920  11.927 -0.3772 -0.5194 -0.3375
 7096SOL     OW22728   1.465   0.623   1.985 -0.3465 -0.1283 -0.2436
 7096SOL    HW122729   1.444   0.667   2.068 -1.8514  1.6547 -1.4832
 7096SOL    HW222730   1.381   0.611   1.942  0.4722 -0.2732 -1.8839
 7097SOL     OW22731   0.106   4.760   9.324 -0.2758 -0.0111  0.0371
 7097SOL    HW122732   0.121   4.684   9.380  0.3620 -0.0153 -0.1312
 7097SOL    HW222733   0.163   4.746   9.249  1.4763  1.6566  0.9713
 7098SOL     OW22734   2.843   1.278   9.503  0.1759  0.0980 -0.0069
 7098SOL    HW122735   2.815   1.314   9.419 -0.4909 -1.3887 -0.4636
 7098SOL    HW222736   2.799   1.193   9.508  0.8926 -0.2160  1.4538
 7099SOL     OW22737   2.068   6.855   0.904  0.5248 -0.5654  0.1544
 7099SOL    HW122738   2.149   6.902   0.924  0.1997  0.0187  0.1085
 7099SOL    HW222739   2.038   6.892   0.821 -0.6685  0.4263  0.9840
 7100SOL     OW22740   6.236   5.554   7.524 -0.4762 -0.0449  0.4777
 7100SOL    HW122741   6.331   5.553   7.534 -0.1875 -0.4035 -1.8296
 7100SOL    HW222742   6.214   5.646   7.514 -0.2764 -0.0171  0.2832
 7101SOL     OW22743   1.420   2.834   8.077  0.1151 -0.3983  0.2235
 7101SOL    HW122744   1.398   2.785   8.157 -1.3054  0.7176  0.5463
 7101SOL    HW222745   1.374   2.788   8.007 -0.8186  0.1469  0.4575
 7102SOL     OW22746   0.263   4.139   0.427 -0.4271  0.2099  0.2237
 7102SOL    HW122747   0.222   4.110   0.509 -4.7663  2.1187 -0.9997
 7102SOL    HW222748   0.289   4.230   0.445 -0.9987  0.4912 -0.3448
 7103SOL     OW22749   7.832   7.473   5.012  1.0551 -0.4310  0.5111
 7103SOL    HW122750   7.885   7.514   5.080  0.3286 -1.0566  1.4967
 7103SOL    HW222751   7.810   7.386   5.047 -0.1287 -0.4070 -0.0968
 7104SOL     OW22752   5.554   5.156   0.820 -0.1691 -0.2642 -0.3316
 7104SOL    HW122753   5.511   5.138   0.904  1.7160 -1.7453  0.4053
 7104SOL    HW222754   5.639   5.111   0.827  1.6989  2.7969 -1.5000
 7105SOL     OW22755   0.312   6.428   3.744  0.1116  0.0788 -0.6305
 7105SOL    HW122756   0.273   6.341   3.738  0.8873 -0.2870 -0.4633
 7105SOL    HW222757   0.250   6.486   3.699 -0.2978 -0.5905 -0.9327
 7106SOL     OW22758   3.666   2.919   6.314  0.1468 -0.2829  0.5065
 7106SOL    HW122759   3.712   2.903   6.397  0.1949  2.6477  1.1532
 7106SOL    HW222760   3.613   2.997   6.331 -0.9932 -0.4753 -1.8175
 7107SOL     OW22761   0.964   3.077   6.061 -0.3267  0.3639 -0.8101
 7107SOL    HW122762   1.055   3.088   6.034 -0.0915  1.0697  0.2346
 7107SOL    HW222763   0.913   3.115   5.989  0.1571 -0.5230 -1.6588
 7108SOL     OW22764   4.850   1.120  11.685  0.1732 -0.4643 -0.5819
 7108SOL    HW122765   4.890   1.206  11.694 -0.0554 -0.4897  0.9808
 7108SOL    HW222766   4.756   1.136  11.682  0.1890 -0.5457 -2.2495
 7109SOL     OW22767   4.024   0.969   5.764 -1.0315  0.7921  0.4335
 7109SOL    HW122768   3.958   0.899   5.760  0.4378 -0.6074 -2.1507
 7109SOL    HW222769   4.082   0.951   5.690  0.9529  3.2871  1.2482
 7110SOL     OW22770   5.174   2.898  11.658  0.2204 -0.3914 -0.1737
 7110SOL    HW122771   5.179   2.988  11.691  1.0838 -0.7076  0.6095
 7110SOL    HW222772   5.265   2.868  11.656  0.0821 -0.7909 -1.7640
 7111SOL     OW22773   4.042   0.197  12.165  0.1479  0.0301 -0.1710
 7111SOL    HW122774   4.126   0.162  12.134  0.4079  0.3766  0.1249
 7111SOL    HW222775   3.979   0.126  12.150  1.1641 -1.7628  3.0752
 7112SOL     OW22776   4.898   2.571   4.830 -0.5404  0.3749  0.1458
 7112SOL    HW122777   4.840   2.619   4.889 -0.1972 -0.4622  1.2143
 7112SOL    HW222778   4.927   2.636   4.766  0.2816  1.7415  1.8080
 7113SOL     OW22779   2.981   7.035   2.644 -0.3327  0.2098 -0.4177
 7113SOL    HW122780   2.935   7.102   2.593 -1.4152  2.0241  2.6718
 7113SOL    HW222781   3.054   7.082   2.684  0.4402 -1.1304 -0.2015
 7114SOL     OW22782   2.381   0.254   3.911  0.0304  0.5941  0.2362
 7114SOL    HW122783   2.302   0.250   3.963 -0.8773 -0.8610 -1.1419
 7114SOL    HW222784   2.354   0.226   3.823  2.2165 -0.9221 -0.0630
 7115SOL     OW22785   1.663   1.594   3.296 -0.5841 -0.0060  0.0590
 7115SOL    HW122786   1.645   1.638   3.213 -1.5352  1.5133  0.9988
 7115SOL    HW222787   1.741   1.542   3.280 -0.1825  1.0173 -1.5187
 7116SOL     OW22788   3.769   4.462   0.648 -0.3785  0.9592  0.3211
 7116SOL    HW122789   3.755   4.513   0.569 -0.3147 -0.1137 -0.3989
 7116SOL    HW222790   3.791   4.374   0.617 -1.4551  0.2234  1.5375
 7117SOL     OW22791   2.233   3.316   0.690  0.5935  0.9753 -0.6133
 7117SOL    HW122792   2.201   3.306   0.600 -1.2026 -0.1210  0.0968
 7117SOL    HW222793   2.287   3.238   0.704 -0.4938  0.2499 -0.2473
 7118SOL     OW22794   6.879   1.123   1.907 -0.1426 -0.2653  0.1261
 7118SOL    HW122795   6.974   1.130   1.902  0.0071 -0.3173  1.9537
 7118SOL    HW222796   6.849   1.214   1.906 -0.1814 -0.2726 -1.5058
 7119SOL     OW22797   5.367   3.802   6.211 -0.1257  0.3629  0.5770
 7119SOL    HW122798   5.345   3.733   6.148 -2.0959  0.9102  0.5944
 7119SOL    HW222799   5.339   3.883   6.168  1.2306  1.0750  0.9725
 7120SOL     OW22800   0.442   1.181   8.724  0.5957  0.6453  0.5790
 7120SOL    HW122801   0.447   1.250   8.791  1.5963  0.2267  0.9613
 7120SOL    HW222802   0.447   1.100   8.774  1.3601  0.3246 -0.0048
 7121SOL     OW22803   5.114   7.116  11.071 -0.0047  0.0254  0.4792
 7121SOL    HW122804   5.104   7.206  11.040 -0.1365  0.0465  0.5799
 7121SOL    HW222805   5.071   7.116  11.157  0.4638 -0.0003  0.7177
 7122SOL     OW22806   0.060   7.678   3.347 -0.6667  0.0254  0.3819
 7122SOL    HW122807   0.106   7.704   3.427  1.2285  0.5768 -0.8321
 7122SOL    HW222808   0.066   7.755   3.290 -0.7430 -0.8425 -0.8177
 7123SOL     OW22809   7.156   1.879   3.402 -0.1456 -0.4763 -0.5541
 7123SOL    HW122810   7.248   1.903   3.394 -0.1042  0.0292  1.0882
 7123SOL    HW222811   7.154   1.817   3.475 -0.6441 -3.4150 -2.8769
 7124SOL     OW22812   2.237   0.011   7.840 -0.3887 -0.2088 -0.0160
 7124SOL    HW122813   2.182   0.071   7.890 -0.7274 -0.3922 -0.1645
 7124SOL    HW222814   2.285  -0.039   7.906  0.8099  1.0338  0.1155
 7125SOL     OW22815   0.480   1.392   5.918  0.2052  0.0984  0.8008
 7125SOL    HW122816   0.454   1.306   5.885  0.3739  0.7024 -0.9922
 7125SOL    HW222817   0.425   1.405   5.996 -0.0288 -1.4935  0.9260
 7126SOL     OW22818   3.648   7.925  11.662  0.3813 -0.0114  0.4108
 7126SOL    HW122819   3.722   7.897  11.607  0.3127  0.2690  0.1751
 7126SOL    HW222820   3.667   8.016  11.684  0.3384 -0.0802  0.7400
 7127SOL     OW22821   7.457   3.039   0.696 -0.3085  0.0983  0.3711
 7127SOL    HW122822   7.461   2.944   0.685  2.2205  0.3085 -1.5484
 7127SOL    HW222823   7.548   3.066   0.709 -1.0072  2.2496  1.3345
 7128SOL     OW22824   7.981   3.553   1.099  0.1479  0.4501  0.1774
 7128SOL    HW122825   7.907   3.612   1.116  2.1923  2.9401  1.0054
 7128SOL    HW222826   8.018   3.536   1.186  2.0135  1.3175 -0.4086
 7129SOL     OW22827   2.568   3.888   1.248  0.4654 -0.6343  0.2835
 7129SOL    HW122828   2.588   3.843   1.166  1.9430 -1.0141  0.8293
 7129SOL    HW222829   2.586   3.824   1.316 -0.8377 -0.3487  0.9286
 7130SOL     OW22830   0.043   6.083   6.648  0.2201 -0.5829 -0.0896
 7130SOL    HW122831   0.123   6.131   6.670 -0.9461  2.7962 -2.4229
 7130SOL    HW222832  -0.011   6.087   6.727  0.5434  1.2359  0.0660
 7131SOL     OW22833   3.661   2.041   2.121 -0.3537  0.5986  0.3043
 7131SOL    HW122834   3.698   1.996   2.197  0.0592 -3.1017 -1.8490
 7131SOL    HW222835   3.710   2.123   2.115  3.2976 -1.3471  1.1010
 7132SOL     OW22836   3.290   1.233   5.614 -0.1292 -0.2581  0.2937
 7132SOL    HW122837   3.229   1.246   5.687  0.2087 -0.6982  0.6676
 7132SOL    HW222838   3.258   1.290   5.545 -0.7379 -0.1924  0.6214
 7133SOL     OW22839   2.993   7.500   9.255 -0.4755 -0.4907  0.0528
 7133SOL    HW122840   2.902   7.509   9.226 -0.4656 -1.5116 -0.3226
 7133SOL    HW222841   3.043   7.493   9.174  0.2462  2.3669  0.1472
 7134SOL     OW22842   5.025   1.022   7.871 -0.3532  0.3140 -0.3804
 7134SOL    HW122843   4.937   0.989   7.851 -0.4896  0.1160  0.5411
 7134SOL    HW222844   5.012   1.087   7.939  0.3519 -0.7565  0.8154
 7135SOL     OW22845   7.892   1.333   9.690  0.2821  0.6043  0.4611
 7135SOL    HW122846   7.889   1.245   9.727 -3.2961  1.8286  3.8138
 7135SOL    HW222847   7.900   1.391   9.766  2.8484  3.2815 -1.6322
 7136SOL     OW22848   3.615   4.321  10.542 -0.1657 -0.3110 -0.1068
 7136SOL    HW122849   3.553   4.271  10.595 -0.6470  0.0476 -0.3348
 7136SOL    HW222850   3.561   4.382  10.493  0.2535 -0.7564 -1.1520
 7137SOL     OW22851   5.574   1.801   3.215  0.2418  0.1740  0.1957
 7137SOL    HW122852   5.536   1.782   3.129  0.8544  1.4899 -0.4035
 7137SOL    HW222853   5.569   1.718   3.262 -0.8170 -0.3853 -0.8297
 7138SOL     OW22854   2.716   7.252  11.833  0.7591  0.1973 -0.6086
 7138SOL    HW122855   2.659   7.253  11.757  1.1072 -1.1724 -0.9255
 7138SOL    HW222856   2.766   7.333  11.827 -1.2161  1.4884 -0.2406
 7139SOL     OW22857   0.920   4.033   9.142  0.1586  0.1963 -0.3929
 7139SOL    HW122858   0.987   4.064   9.203  1.2379 -1.9222 -0.4124
 7139SOL    HW222859   0.850   4.000   9.198  0.1077  0.3774 -0.3474
 7140SOL     OW22860   0.460   7.546   7.916  0.0545  0.0004 -0.0685
 7140SOL    HW122861   0.475   7.635   7.948  2.4031 -0.3414 -0.0461
 7140SOL    HW222862   0.373   7.523   7.949  0.2233  1.5675  1.6391
 7141SOL     OW22863   5.644   0.570   9.628  0.2946  0.0832 -0.1540
 7141SOL    HW122864   5.729   0.550   9.589  1.0917  0.5977  1.2695
 7141SOL    HW222865   5.624   0.493   9.682  0.0943  0.1880 -0.0774
 7142SOL     OW22866   6.098   7.063   7.783  0.1598  0.6183  0.4083
 7142SOL    HW122867   6.054   6.978   7.784  1.8218 -0.2776  0.3165
 7142SOL    HW222868   6.097   7.089   7.691  0.8148  0.0459  0.2291
 7143SOL     OW22869   4.765   2.707   8.110  0.2097  0.1865 -0.3874
 7143SOL    HW122870   4.859   2.706   8.126  0.0218  1.9272  1.2605
 7143SOL    HW222871   4.744   2.800   8.096 -1.3702 -0.0427  0.1858
 7144SOL     OW22872   4.107   4.426  11.432  0.0729 -0.0313  0.1384
 7144SOL    HW122873   4.087   4.361  11.499  0.1734 -0.3138 -0.1026
 7144SOL    HW222874   4.195   4.404  11.402 -0.4918 -0.7994 -1.0790
 7145SOL     OW22875   3.035   6.168   3.542 -0.5536  0.2304 -0.2728
 7145SOL    HW122876   3.098   6.106   3.506  0.3022  1.1891 -0.4735
 7145SOL    HW222877   2.967   6.113   3.581 -0.8276 -0.8261 -2.1574
 7146SOL     OW22878   0.230   4.534   6.986  0.7356 -0.2995 -0.1377
 7146SOL    HW122879   0.254   4.596   7.055 -0.5092  1.5860 -1.2949
 7146SOL    HW222880   0.306   4.532   6.928  0.5879  0.6331 -0.3873
 7147SOL     OW22881   1.707   1.327   2.563 -0.5330  0.4958  0.5667
 7147SOL    HW122882   1.714   1.409   2.612 -2.7092  1.2867 -0.3183
 7147SOL    HW222883   1.638   1.344   2.499 -0.2024 -1.6604 -0.4153
 7148SOL     OW22884   6.885   5.305   9.190  0.0535 -0.2928 -0.2444
 7148SOL    HW122885   6.852   5.267   9.271  0.7653 -1.5880 -0.5291
 7148SOL    HW222886   6.824   5.376   9.170 -0.6016 -0.4841  0.9797
 7149SOL     OW22887   2.747   2.305   3.678 -0.5442  0.2167  0.1183
 7149SOL    HW122888   2.796   2.274   3.602  1.0865  0.9917  0.8156
 7149SOL    HW222889   2.809   2.301   3.751 -2.1150 -0.6611  1.4741
 7150SOL     OW22890   5.780   3.078   5.647 -0.4853 -0.1937  0.6394
 7150SOL    HW122891   5.807   3.164   5.615 -0.3273  0.3471  2.1301
 7150SOL    HW222892   5.703   3.056   5.594 -0.0352  0.4784 -0.3252
 7151SOL     OW22893   5.561   3.333   8.192 -0.5075 -0.2288  0.7530
 7151SOL    HW122894   5.576   3.243   8.222 -0.0889 -0.3819  0.1221
 7151SOL    HW222895   5.499   3.370   8.255  0.6465 -0.3988  2.0339
 7152SOL     OW22896   6.804   6.121   4.783 -0.4425  0.5521  0.5338
 7152SOL    HW122897   6.805   6.134   4.689  0.5712  0.8387  0.5774
 7152SOL    HW222898   6.795   6.026   4.794 -1.7673  0.6111  0.1771
 7153SOL     OW22899   4.625   0.500   4.833  0.2884 -0.5582  0.4566
 7153SOL    HW122900   4.605   0.448   4.755 -1.1293 -0.9361  1.0428
 7153SOL    HW222901   4.654   0.435   4.898 -0.0243 -0.4357  0.7186
 7154SOL     OW22902   1.305   6.347  11.589  0.0295 -0.2517 -0.3502
 7154SOL    HW122903   1.332   6.358  11.680 -0.1677  1.7683 -0.4975
 7154SOL    HW222904   1.250   6.423  11.570  0.0780 -0.6106 -2.1737
 7155SOL     OW22905   1.665   0.956   1.323  0.6929  0.2442  0.2943
 7155SOL    HW122906   1.721   0.946   1.400 -0.4735  0.4938  1.1955
 7155SOL    HW222907   1.706   1.027   1.274  1.5192  0.0016  0.6063
 7156SOL     OW22908   7.449   3.146   3.256 -0.1988  0.0709  0.8392
 7156SOL    HW122909   7.543   3.132   3.256  0.1097  1.8856  0.6294
 7156SOL    HW222910   7.424   3.141   3.164  0.1063  1.8389  0.6288
 7157SOL     OW22911   0.544   5.154   6.737 -0.2988  0.2180 -0.2926
 7157SOL    HW122912   0.531   5.202   6.819  0.6158  1.3436 -0.7765
 7157SOL    HW222913   0.456   5.142   6.702 -0.4835  2.7991 -0.8373
 7158SOL     OW22914   0.500   0.665   9.140 -0.3891  0.7981 -0.0696
 7158SOL    HW122915   0.537   0.599   9.199  1.5803  0.0705 -1.9999
 7158SOL    HW222916   0.517   0.749   9.183  1.2692  0.3088  0.2856
 7159SOL     OW22917   1.753   2.524   3.388 -0.2373  0.5897 -0.0577
 7159SOL    HW122918   1.781   2.439   3.421  1.4560  2.0553  2.5845
 7159SOL    HW222919   1.793   2.530   3.301  0.2948 -0.9522  0.0403
 7160SOL     OW22920   0.208   6.348   9.027  0.2472  0.2826 -0.2689
 7160SOL    HW122921   0.285   6.402   9.010  0.7518 -0.6186 -0.9567
 7160SOL    HW222922   0.160   6.394   9.096  1.9840  0.2922  0.9929
 7161SOL     OW22923   3.219   7.629   6.417  0.4217 -0.0124 -0.4538
 7161SOL    HW122924   3.313   7.615   6.426  0.4148  0.1500 -0.1161
 7161SOL    HW222925   3.194   7.577   6.341  0.7158 -0.3640 -0.3103
 7162SOL     OW22926   5.729   5.974   7.975  0.3937 -0.2176  0.2723
 7162SOL    HW122927   5.740   6.007   7.885  1.9276  0.8499  0.8117
 7162SOL    HW222928   5.641   6.001   7.999 -0.3385 -1.1905 -1.1599
 7163SOL     OW22929   3.703   7.665   0.864 -0.2066 -0.0262 -0.2298
 7163SOL    HW122930   3.763   7.724   0.819  0.2100 -0.0358  0.3109
 7163SOL    HW222931   3.642   7.722   0.910 -0.5414 -0.0172 -0.6804
 7164SOL     OW22932   1.271   4.700   6.976  0.3944  0.3141 -0.1324
 7164SOL    HW122933   1.208   4.634   7.006  2.5823 -1.2652  1.3367
 7164SOL    HW222934   1.232   4.784   7.002 -2.0821 -0.3890 -1.2963
 7165SOL     OW22935   7.497   3.033  10.142  0.2557 -0.4177 -1.0074
 7165SOL    HW122936   7.445   3.090  10.085  2.0122  0.4121 -1.8452
 7165SOL    HW222937   7.436   3.006  10.211 -1.0829  1.0567 -1.5573
 7166SOL     OW22938   0.859   6.790   2.569  0.3862  0.2994 -0.2024
 7166SOL    HW122939   0.870   6.810   2.662 -0.9729  0.5237 -0.0689
 7166SOL    HW222940   0.885   6.871   2.524 -1.3016  1.0570  0.1274
 7167SOL     OW22941   6.892   7.658   5.209 -0.5773 -0.8813  0.5181
 7167SOL    HW122942   6.805   7.698   5.204 -0.1489  0.0196  0.0939
 7167SOL    HW222943   6.876   7.565   5.193 -1.3975 -0.6524 -0.0716
 7168SOL     OW22944   1.761   4.384   3.245  0.4779  0.2404 -0.2954
 7168SOL    HW122945   1.722   4.302   3.275  0.1064  0.6190  0.3017
 7168SOL    HW222946   1.840   4.394   3.299 -1.3290  2.0170  2.3066
 7169SOL     OW22947   7.577   4.889   1.329 -0.3056  0.2492  0.1456
 7169SOL    HW122948   7.658   4.936   1.353  0.4388 -1.1604  0.5081
 7169SOL    HW222949   7.570   4.819   1.395  0.4257 -2.1876 -2.1851
 7170SOL     OW22950   1.566   3.063  11.558  0.0211 -0.8365  0.6043
 7170SOL    HW122951   1.590   2.982  11.604  0.0916 -0.6783  0.8487
 7170SOL    HW222952   1.519   3.115  11.624 -3.4652 -2.2342 -0.5098
 7171SOL     OW22953   3.621   2.484   2.479  0.5168  0.1371 -0.0124
 7171SOL    HW122954   3.536   2.440   2.480 -0.0264  1.1541  0.5399
 7171SOL    HW222955   3.616   2.545   2.406  0.4217  0.8351  0.5658
 7172SOL     OW22956   0.933   3.235   2.157  0.0334  0.3525  0.0651
 7172SOL    HW122957   0.846   3.207   2.186  0.2470 -0.5061 -0.0994
 7172SOL    HW222958   0.920   3.265   2.067 -0.0848  0.1801  0.0252
 7173SOL     OW22959   2.437   6.494   1.293  0.0235 -0.6450  0.2120
 7173SOL    HW122960   2.526   6.507   1.324  0.3087 -0.6720 -0.5631
 7173SOL    HW222961   2.446   6.481   1.198 -0.7871 -0.7907  0.1426
 7174SOL     OW22962   2.447   5.025   7.130 -0.1561 -0.4497 -0.1872
 7174SOL    HW122963   2.410   4.943   7.096 -1.2817 -0.1588  0.2932
 7174SOL    HW222964   2.381   5.057   7.192  0.8326  0.1837  0.5677
 7175SOL     OW22965   6.738   7.359   8.598 -0.4875  0.0371  0.4793
 7175SOL    HW122966   6.669   7.327   8.656 -0.6229  0.2922  0.4636
 7175SOL    HW222967   6.819   7.327   8.637 -0.3721  2.1065  2.1444
 7176SOL     OW22968   2.749   3.133   7.741  0.2211 -0.0743  0.4738
 7176SOL    HW122969   2.701   3.171   7.814  0.7080 -1.6967  1.7019
 7176SOL    HW222970   2.719   3.181   7.664 -1.1314  0.9296  1.5890
 7177SOL     OW22971   2.329   0.471  11.647 -0.7789  0.2388 -0.0869
 7177SOL    HW122972   2.266   0.449  11.715  0.5175 -3.3513  0.1163
 7177SOL    HW222973   2.307   0.414  11.574  1.4512 -0.2264 -0.4616
 7178SOL     OW22974   2.629   2.557   3.755 -0.5964  0.8967  0.3540
 7178SOL    HW122975   2.645   2.466   3.729  1.1394  1.1557  0.4086
 7178SOL    HW222976   2.622   2.605   3.672 -1.5015  0.7358  0.3253
 7179SOL     OW22977   3.633   5.872  10.608 -0.0327 -0.3737 -0.6037
 7179SOL    HW122978   3.569   5.937  10.639 -0.6027 -1.3908  0.3865
 7179SOL    HW222979   3.608   5.857  10.517 -0.2750  0.3323 -0.6676
 7180SOL     OW22980   7.413   3.849  11.063  0.5808  0.0650 -0.0813
 7180SOL    HW122981   7.359   3.810  11.132  0.6458  1.7764  0.9775
 7180SOL    HW222982   7.352   3.865  10.991  0.5174 -1.7650 -0.4825
 7181SOL     OW22983   0.354   7.445   0.284  0.5746  0.5432  0.1490
 7181SOL    HW122984   0.342   7.360   0.241 -0.9984  0.3509  0.8802
 7181SOL    HW222985   0.405   7.425   0.363  0.5603  0.3368  0.1070
 7182SOL     OW22986   6.733   2.032   4.761  0.2053 -0.0599 -0.4040
 7182SOL    HW122987   6.795   1.960   4.757 -2.5839 -2.7771  1.3080
 7182SOL    HW222988   6.669   2.013   4.693 -1.2719  0.0227  0.9072
 7183SOL     OW22989   1.111   7.622   7.009 -0.1828 -0.8106  0.3101
 7183SOL    HW122990   1.183   7.605   7.070  1.1081 -0.8901 -1.1843
 7183SOL    HW222991   1.100   7.717   7.011 -0.1561 -0.8121  0.6527
 7184SOL     OW22992   2.454   1.180  11.538  0.0668 -0.5549 -0.1162
 7184SOL    HW122993   2.510   1.157  11.613  0.3668  2.3648  0.6840
 7184SOL    HW222994   2.514   1.217  11.474 -0.7759  2.6664  0.7706
 7185SOL     OW22995   1.569   2.400  10.432 -0.3418 -0.1688 -0.0264
 7185SOL    HW122996   1.604   2.313  10.414  1.5409  0.2719  1.2189
 7185SOL    HW222997   1.644   2.459  10.423 -1.3031  1.1787  0.3196
 7186SOL     OW22998   5.230   0.355   6.573  0.0144 -0.3822  0.5986
 7186SOL    HW122999   5.260   0.299   6.501 -0.8310 -1.6979  1.2214
 7186SOL    HW223000   5.261   0.311   6.652 -0.2065  0.3261  1.0927
 7187SOL     OW23001   2.138   0.054  11.007 -0.2916  0.3025 -0.3787
 7187SOL    HW123002   2.080  -0.002  11.058 -1.0266  0.4209 -1.0748
 7187SOL    HW223003   2.214  -0.002  10.988  0.0220  0.2839  0.8817
 7188SOL     OW23004   2.959   0.645   5.639 -0.1597  0.0630 -1.2144
 7188SOL    HW123005   2.929   0.576   5.579 -2.0282  0.3642 -0.7043
 7188SOL    HW223006   2.879   0.673   5.684  1.0277  0.5930  0.6586
 7189SOL     OW23007   3.904   2.634  11.944  0.2318 -0.3903 -0.2466
 7189SOL    HW123008   3.982   2.687  11.930 -0.4211  1.3880  2.2582
 7189SOL    HW223009   3.835   2.679  11.895  0.4477 -1.2729 -1.4311
 7190SOL     OW23010   0.379   4.975   1.127 -0.1469  0.5381 -0.1414
 7190SOL    HW123011   0.469   4.941   1.134 -0.0396  0.8008 -0.2216
 7190SOL    HW223012   0.389   5.070   1.133 -0.6718  0.4972  2.4867
 7191SOL     OW23013   4.894   3.300  10.704 -0.0133  0.2540 -0.5230
 7191SOL    HW123014   4.843   3.223  10.730 -1.6764  1.5746  0.3060
 7191SOL    HW223015   4.864   3.319  10.615  0.4406 -0.0846 -0.7496
 7192SOL     OW23016   6.902   4.146   3.478  0.1336 -0.2799  0.3504
 7192SOL    HW123017   6.921   4.088   3.404 -0.0855 -0.0513  0.1167
 7192SOL    HW223018   6.933   4.232   3.450 -2.5004  0.4428 -0.6178
 7193SOL     OW23019   7.126   6.280   6.012 -0.9319 -0.6589  0.0078
 7193SOL    HW123020   7.037   6.247   6.027 -1.3715  0.4474 -0.0637
 7193SOL    HW223021   7.114   6.372   5.987  0.2665 -0.3537  0.4834
 7194SOL     OW23022   1.811   2.513   0.171  0.4599  0.7028  0.1092
 7194SOL    HW123023   1.903   2.488   0.159  0.0270 -1.0935  0.1941
 7194SOL    HW223024   1.779   2.453   0.239 -1.3271 -0.2256 -1.4533
 7195SOL     OW23025   4.969   6.360  10.348  0.1848  0.5713 -0.7057
 7195SOL    HW123026   4.961   6.412  10.269  1.4248  2.4450  0.3444
 7195SOL    HW223027   4.942   6.419  10.418 -0.3343 -0.8601  0.3474
 7196SOL     OW23028   1.501   3.818   9.372 -0.0768 -0.4442 -0.6177
 7196SOL    HW123029   1.552   3.874   9.314 -1.9962  1.7476 -0.3273
 7196SOL    HW223030   1.545   3.733   9.368  2.7635  0.9481 -1.3533
 7197SOL     OW23031   7.463   7.184   2.574  0.4910  0.6829 -0.0041
 7197SOL    HW123032   7.514   7.192   2.493 -0.1234  0.0427 -0.4684
 7197SOL    HW223033   7.522   7.142   2.635  0.0845 -1.4750 -0.9996
 7198SOL     OW23034   1.081   0.420   1.071 -0.0538 -0.6249  0.0940
 7198SOL    HW123035   1.102   0.387   1.158  0.4863 -0.8701 -0.1236
 7198SOL    HW223036   1.159   0.403   1.019 -0.1754 -0.0003 -0.3074
 7199SOL     OW23037   1.364   1.084   0.230 -0.2226 -0.0145  0.2788
 7199SOL    HW123038   1.400   1.015   0.285 -0.6410 -0.5676 -0.1125
 7199SOL    HW223039   1.278   1.102   0.267 -0.9535 -1.1359 -0.7653
 7200SOL     OW23040   1.007   7.479   8.356  0.3606 -0.2400  0.1435
 7200SOL    HW123041   0.966   7.405   8.401 -1.4849  0.5923 -0.0874
 7200SOL    HW223042   1.084   7.499   8.409 -0.3161 -0.9409  1.4537
 7201SOL     OW23043   1.826   1.757   6.869  0.0686  0.2292  0.5563
 7201SOL    HW123044   1.770   1.718   6.802  1.2226  0.7611 -0.7938
 7201SOL    HW223045   1.911   1.716   6.855  1.9679  4.3615 -2.3062
 7202SOL     OW23046   5.326   2.114   3.119 -0.3082  0.3537  0.4256
 7202SOL    HW123047   5.235   2.122   3.091 -0.5069  1.1031  1.2319
 7202SOL    HW223048   5.377   2.123   3.039 -0.9357  0.0440 -0.0191
 7203SOL     OW23049   7.590   7.046   9.400 -0.4914  0.1436 -0.1754
 7203SOL    HW123050   7.686   7.050   9.408 -0.4973  0.2453 -0.1541
 7203SOL    HW223051   7.569   6.954   9.417 -0.3158 -0.0652 -1.0138
 7204SOL     OW23052   0.850   6.523   2.203 -0.3727 -0.2392 -0.0991
 7204SOL    HW123053   0.933   6.561   2.176  0.1340 -1.0590  0.2737
 7204SOL    HW223054   0.806   6.593   2.252  1.7681 -0.9304  3.1056
 7205SOL     OW23055   1.365   4.729   2.339 -0.2846 -0.6434  0.8465
 7205SOL    HW123056   1.360   4.677   2.259 -0.5322 -0.2224  0.5899
 7205SOL    HW223057   1.400   4.668   2.405 -0.4476 -1.0953  0.5151
 7206SOL     OW23058   3.525   5.659   6.073 -0.1487  0.1949  0.4713
 7206SOL    HW123059   3.475   5.727   6.029  0.9252  0.9356  0.3457
 7206SOL    HW223060   3.463   5.588   6.087 -1.1919  1.0370  0.2341
 7207SOL     OW23061   1.937   1.347   1.755  0.1884  0.0522  0.1775
 7207SOL    HW123062   2.003   1.408   1.790  0.6914 -0.0495 -0.5612
 7207SOL    HW223063   1.985   1.265   1.744 -1.1823 -1.4845  4.0351
 7208SOL     OW23064   6.344   5.680  11.305  0.3838  0.2890  0.0664
 7208SOL    HW123065   6.323   5.761  11.259 -2.3502 -1.5645 -2.3016
 7208SOL    HW223066   6.261   5.634  11.312  2.1425 -3.4555 -1.1407
 7209SOL     OW23067   3.130   2.764   9.845  0.2484 -0.0171 -0.3664
 7209SOL    HW123068   3.044   2.786   9.879  0.2378 -1.1182  0.3961
 7209SOL    HW223069   3.143   2.822   9.770 -1.7419 -0.8126 -1.3678
 7210SOL     OW23070   1.434   5.148   6.517 -0.8653  0.3050 -0.0553
 7210SOL    HW123071   1.404   5.214   6.580  1.3018 -0.7723  2.3373
 7210SOL    HW223072   1.529   5.162   6.511 -0.1685 -2.8473  1.0837
 7211SOL     OW23073   2.778   3.630   7.364  0.4226 -0.4683 -0.8553
 7211SOL    HW123074   2.718   3.705   7.370 -0.6525 -1.3069 -0.7540
 7211SOL    HW223075   2.838   3.640   7.437  0.7918  0.7062 -1.2951
 7212SOL     OW23076   1.396   2.270   9.610  0.5992 -0.5704 -0.2232
 7212SOL    HW123077   1.437   2.185   9.627  1.5409  0.1015  1.0921
 7212SOL    HW223078   1.407   2.283   9.516  0.7315 -1.7535 -0.3920
 7213SOL     OW23079   2.428   6.585   8.502 -0.4632 -0.5575  0.0986
 7213SOL    HW123080   2.432   6.677   8.526  1.6635 -0.7086  0.5008
 7213SOL    HW223081   2.443   6.538   8.584 -1.6941 -1.2993 -0.0661
 7214SOL     OW23082   7.192   7.393   6.242 -0.0412 -0.3210  0.0903
 7214SOL    HW123083   7.250   7.322   6.215 -0.2235 -0.1178 -0.8649
 7214SOL    HW223084   7.237   7.473   6.216  0.3266 -0.0423  1.4838
 7215SOL     OW23085   4.862   0.797   3.152  0.1023  0.1182 -0.3054
 7215SOL    HW123086   4.792   0.811   3.216 -1.0078  0.2670 -1.5293
 7215SOL    HW223087   4.897   0.710   3.173 -0.3129  0.1186  0.4248
 7216SOL     OW23088   2.694   6.154   0.865  0.1529 -0.3889  0.5539
 7216SOL    HW123089   2.660   6.119   0.782 -1.2191  0.2863  0.8072
 7216SOL    HW223090   2.678   6.084   0.928 -3.1307  0.7553  1.1838
 7217SOL     OW23091   6.733   1.989   5.224 -0.3694  0.1296  0.1128
 7217SOL    HW123092   6.762   2.071   5.265  1.0001 -0.5090  0.4784
 7217SOL    HW223093   6.739   2.006   5.130 -0.0051  0.4237  0.1865
 7218SOL     OW23094   0.207   6.195  11.022 -0.2743  0.4347 -0.4117
 7218SOL    HW123095   0.259   6.186  10.943 -0.7582  0.4064 -0.7306
 7218SOL    HW223096   0.266   6.169  11.093 -0.1225 -0.4283 -0.8440
 7219SOL     OW23097   5.811   1.811  11.905 -0.6761 -0.6069 -0.2694
 7219SOL    HW123098   5.733   1.864  11.893  0.3958  1.0544 -0.1585
 7219SOL    HW223099   5.851   1.844  11.986 -0.1031 -1.7625 -0.0500
 7220SOL     OW23100   7.178   1.620  12.070 -0.1596  0.0084 -0.4247
 7220SOL    HW123101   7.249   1.594  12.129  0.6366  1.1022 -0.8656
 7220SOL    HW223102   7.099   1.587  12.111 -0.0653  3.3686  3.0144
 7221SOL     OW23103   5.312   5.990  12.222 -0.3734  0.2454  0.1379
 7221SOL    HW123104   5.223   6.003  12.255 -0.5105 -0.3826  0.0314
 7221SOL    HW223105   5.343   5.911  12.266  0.1000  0.4001  0.0965
 7222SOL     OW23106   0.742   4.851   9.258 -0.5183 -0.4022  0.1231
 7222SOL    HW123107   0.756   4.796   9.335 -0.2447 -0.2800  0.1634
 7222SOL    HW223108   0.820   4.836   9.203 -0.3494  0.0831  0.2243
 7223SOL     OW23109   3.768   0.590  10.510 -0.8295  0.3460  0.3619
 7223SOL    HW123110   3.798   0.510  10.552  0.2673  0.1332 -0.7747
 7223SOL    HW223111   3.842   0.618  10.455 -2.2266  0.5470 -1.5076
 7224SOL     OW23112   7.403   0.342   8.196 -0.4331 -0.0423  0.2498
 7224SOL    HW123113   7.357   0.417   8.158 -0.6458 -1.0188 -1.5238
 7224SOL    HW223114   7.334   0.279   8.215  0.0091 -1.2268 -1.7474
 7225SOL     OW23115   6.002   2.228   0.451 -0.7822  0.1201 -0.5950
 7225SOL    HW123116   5.987   2.194   0.540 -0.3848 -1.6538 -1.1650
 7225SOL    HW223117   6.042   2.314   0.464  0.2096 -0.5350  0.9645
 7226SOL     OW23118   3.757   0.824   6.651  0.2319  0.1554  0.5284
 7226SOL    HW123119   3.694   0.864   6.592 -0.7146 -0.6975  0.9319
 7226SOL    HW223120   3.840   0.829   6.604 -0.6253 -1.2303 -1.2403
 7227SOL     OW23121   5.781   3.985   8.505  0.6696  0.2738  0.6495
 7227SOL    HW123122   5.817   4.055   8.449  1.3087 -0.0600  0.6316
 7227SOL    HW223123   5.819   4.002   8.591  1.0434 -0.2033  0.5826
 7228SOL     OW23124   4.046   1.040   2.306 -0.1724 -0.5388 -0.4908
 7228SOL    HW123125   3.956   1.019   2.331  0.1832 -2.4814 -0.6587
 7228SOL    HW223126   4.042   1.057   2.212 -0.6785  1.6226 -0.1286
 7229SOL     OW23127   6.378   6.416   5.889  0.6802 -0.4013 -0.3641
 7229SOL    HW123128   6.323   6.346   5.853 -1.7346  1.7703 -1.1610
 7229SOL    HW223129   6.393   6.475   5.815  0.3802  1.2829  0.8553
 7230SOL     OW23130   2.014   0.654   3.826 -0.0977 -0.4586 -0.4450
 7230SOL    HW123131   1.965   0.655   3.909 -0.1096 -3.0167 -0.3158
 7230SOL    HW223132   2.104   0.639   3.853  0.0399 -0.3630 -0.8581
 7231SOL     OW23133   5.422   0.787   8.533 -0.3375 -0.5336  0.2108
 7231SOL    HW123134   5.393   0.851   8.468  3.1227  1.3928  0.3011
 7231SOL    HW223135   5.356   0.791   8.602 -2.4575 -0.3120 -1.6907
 7232SOL     OW23136   0.522   3.408   2.690 -0.0040  0.3973  0.4771
 7232SOL    HW123137   0.560   3.366   2.767  1.9843  2.3535  0.6529
 7232SOL    HW223138   0.476   3.485   2.724 -0.0732  0.6592 -0.1762
 7233SOL     OW23139   7.149   2.897   7.446 -0.1148  0.2720  0.1682
 7233SOL    HW123140   7.128   2.810   7.481  0.6150  0.1813  0.4158
 7233SOL    HW223141   7.077   2.918   7.387  0.5598 -1.2794 -1.2913
 7234SOL     OW23142   3.117   3.815   8.644 -0.0761  0.7464 -0.4099
 7234SOL    HW123143   3.139   3.729   8.608 -0.8396 -0.1496  1.1545
 7234SOL    HW223144   3.047   3.797   8.707 -0.1263  2.4969  0.0844
 7235SOL     OW23145   5.070   7.702   5.338 -0.1304 -0.1990 -0.1740
 7235SOL    HW123146   5.079   7.769   5.405  0.4012 -0.3873 -0.0519
 7235SOL    HW223147   4.997   7.648   5.367 -0.3542  0.1359 -0.1094
 7236SOL     OW23148   4.103   0.181   6.621  0.2538 -0.6839 -0.1010
 7236SOL    HW123149   4.108   0.121   6.696 -0.5191  0.2287  0.6942
 7236SOL    HW223150   4.195   0.194   6.595  0.4403 -2.2896 -0.3802
 7237SOL     OW23151   2.478   7.597   3.287  0.2713 -0.5686  0.4666
 7237SOL    HW123152   2.461   7.545   3.208 -0.4773 -0.3239  0.4618
 7237SOL    HW223153   2.435   7.548   3.357 -1.4412  0.6008  0.2918
 7238SOL     OW23154   0.404   6.800   2.525  0.2584  0.0401 -0.4121
 7238SOL    HW123155   0.390   6.747   2.603  0.0339  0.7286  0.0225
 7238SOL    HW223156   0.498   6.814   2.522  0.5544 -1.8968 -1.5483
 7239SOL     OW23157   3.534   0.657  10.389 -0.3387  0.0410 -0.3933
 7239SOL    HW123158   3.605   0.606  10.428 -2.1398 -0.9142  1.8661
 7239SOL    HW223159   3.485   0.594  10.336 -1.4720 -0.2143  0.8887
 7240SOL     OW23160   6.447   1.839   6.722 -0.1828  0.2654 -0.0693
 7240SOL    HW123161   6.519   1.775   6.722 -0.6434 -0.2924  1.5327
 7240SOL    HW223162   6.491   1.924   6.729  0.4618  0.2315 -2.6311
 7241SOL     OW23163   2.579   4.403   6.826  0.2859  0.3078 -0.3408
 7241SOL    HW123164   2.619   4.316   6.821  0.6049  0.3352  1.1536
 7241SOL    HW223165   2.614   4.440   6.907 -0.5749  1.4626 -0.4799
 7242SOL     OW23166   3.472   1.594  10.819  0.2722  0.4873 -0.2547
 7242SOL    HW123167   3.465   1.627  10.909 -1.0110  0.5817 -0.3715
 7242SOL    HW223168   3.433   1.662  10.765 -0.9763 -0.4843 -0.6490
 7243SOL     OW23169   0.549   2.886   7.191  0.3847 -0.2982  0.0134
 7243SOL    HW123170   0.478   2.933   7.149 -0.3362 -0.9788  0.4544
 7243SOL    HW223171   0.530   2.891   7.285 -0.0888 -2.0092  0.0470
 7244SOL     OW23172   2.743   7.002   0.560 -0.4853 -0.2050 -0.7087
 7244SOL    HW123173   2.746   7.093   0.591 -0.1296 -0.2446 -0.6266
 7244SOL    HW223174   2.663   6.966   0.599 -0.2565 -0.1337 -0.1747
 7245SOL     OW23175   7.636   3.195   1.039 -0.6456  0.7262 -0.4070
 7245SOL    HW123176   7.650   3.125   1.103 -1.7535 -1.0733 -2.0243
 7245SOL    HW223177   7.575   3.255   1.082  1.9216  1.9840  1.8400
 7246SOL     OW23178   2.782   4.077   0.749 -0.2532 -0.2899 -0.3954
 7246SOL    HW123179   2.799   4.015   0.820  0.1391  0.6921  0.4135
 7246SOL    HW223180   2.706   4.127   0.780 -0.8764 -0.6889 -1.2584
 7247SOL     OW23181   1.150   5.410   4.976  0.1671  0.4155 -0.1204
 7247SOL    HW123182   1.189   5.428   5.061  1.3012 -1.2221 -0.2328
 7247SOL    HW223183   1.075   5.354   4.995  0.3915  0.0900 -0.1832
 7248SOL     OW23184   2.093   6.912  10.105 -0.4477 -0.3478  0.1441
 7248SOL    HW123185   2.158   6.843  10.089 -0.1017 -0.1363  0.6182
 7248SOL    HW223186   2.073   6.904  10.198 -1.2949 -0.5702 -0.0427
 7249SOL     OW23187   3.954   4.772   5.994 -0.2272  0.3464 -0.1391
 7249SOL    HW123188   3.899   4.710   5.946 -0.2730  1.1227 -1.1207
 7249SOL    HW223189   3.971   4.842   5.932 -0.7583  1.6825  1.1640
 7250SOL     OW23190   2.221   0.171   7.102 -0.3024  0.3683 -0.5354
 7250SOL    HW123191   2.150   0.224   7.069 -1.2007 -0.2193  0.3980
 7250SOL    HW223192   2.209   0.169   7.197  0.2963 -0.6542 -0.4571
 7251SOL     OW23193   6.288   7.548  10.891 -0.1804 -0.4567 -0.4236
 7251SOL    HW123194   6.296   7.462  10.931 -0.1411  0.2924  1.2451
 7251SOL    HW223195   6.199   7.549  10.854 -0.0703 -1.3033 -0.7337
 7252SOL     OW23196   7.468   4.257   3.486  0.1243  0.1729  0.0281
 7252SOL    HW123197   7.419   4.334   3.461  2.4022  1.7339  0.0676
 7252SOL    HW223198   7.557   4.273   3.454  1.0741 -1.6576  1.5119
 7253SOL     OW23199   7.773   3.422   9.116  0.5019 -0.0526  0.0726
 7253SOL    HW123200   7.717   3.495   9.091  1.7570  0.8101 -0.2530
 7253SOL    HW223201   7.777   3.427   9.211 -0.2987 -0.3842  0.1372
 7254SOL     OW23202   4.547   7.871   8.903 -0.5203 -0.0656 -0.0516
 7254SOL    HW123203   4.496   7.950   8.922 -0.1350  0.9903 -2.8619
 7254SOL    HW223204   4.486   7.813   8.857  0.1300  0.2573 -1.3935
 7255SOL     OW23205   7.665   7.181   9.176  0.4158 -0.4176 -0.0080
 7255SOL    HW123206   7.637   7.272   9.168  1.4189 -0.0387  0.5932
 7255SOL    HW223207   7.612   7.145   9.247  0.3199 -0.1774  0.0420
 7256SOL     OW23208   7.706   3.067  10.778  0.3767  0.5908 -0.4058
 7256SOL    HW123209   7.682   3.159  10.768  0.8272  0.5578 -2.3215
 7256SOL    HW223210   7.762   3.049  10.702 -1.5788 -1.8714 -1.4165
 7257SOL     OW23211   1.046   3.575   4.620 -1.0700  0.2938 -0.6652
 7257SOL    HW123212   0.973   3.558   4.561  0.0904 -0.4010 -1.9576
 7257SOL    HW223213   1.103   3.499   4.611 -0.0630  0.9230  0.1442
 7258SOL     OW23214   4.391   6.497  11.579 -0.0367 -0.4288 -0.1018
 7258SOL    HW123215   4.348   6.571  11.621 -0.5268 -0.6349 -0.2345
 7258SOL    HW223216   4.375   6.509  11.486  1.1335  0.0791 -0.2486
 7259SOL     OW23217   3.336   0.609   8.746 -0.6449  0.1947 -0.3000
 7259SOL    HW123218   3.257   0.588   8.696 -0.6036 -2.0023  0.4097
 7259SOL    HW223219   3.311   0.593   8.837  0.6834 -0.8948 -0.0891
 7260SOL     OW23220   3.739   1.112   4.324 -0.3647 -0.2690 -0.1773
 7260SOL    HW123221   3.744   1.145   4.414  1.7868 -0.0776 -0.3129
 7260SOL    HW223222   3.813   1.153   4.280 -0.1925 -1.9272 -1.5028
 7261SOL     OW23223   1.356   2.657   5.435  0.3110 -0.1735  0.3182
 7261SOL    HW123224   1.375   2.675   5.527  2.7549 -1.2637  0.1117
 7261SOL    HW223225   1.432   2.692   5.388 -1.2261  1.0099 -1.3959
 7262SOL     OW23226   2.596   1.942   8.182  0.7123 -0.1136 -0.5978
 7262SOL    HW123227   2.686   1.973   8.193  1.4783 -1.3636 -2.8292
 7262SOL    HW223228   2.570   1.973   8.095 -0.5332 -0.9054 -0.5403
 7263SOL     OW23229   4.600   5.576   4.377  0.2945  0.7013 -0.2981
 7263SOL    HW123230   4.518   5.593   4.424  0.2506  1.5820 -0.6784
 7263SOL    HW223231   4.658   5.648   4.404  0.8235  0.2777 -0.3003
 7264SOL     OW23232   0.535   7.956   0.107 -0.1392  0.6049  0.9968
 7264SOL    HW123233   0.483   7.879   0.132  0.9811 -0.5591 -0.1045
 7264SOL    HW223234   0.590   7.972   0.184  1.9786 -1.8154  0.1449
 7265SOL     OW23235   1.783   6.642   2.231 -0.4313 -0.2300 -0.1738
 7265SOL    HW123236   1.854   6.583   2.204 -0.4221 -0.1294 -0.3674
 7265SOL    HW223237   1.706   6.612   2.183 -0.5265 -0.3480  0.0476
 7266SOL     OW23238   5.810   0.359   0.890  0.0925  0.9227 -0.1905
 7266SOL    HW123239   5.800   0.449   0.922  0.8747  0.3965  1.6467
 7266SOL    HW223240   5.861   0.315   0.958  0.1055 -0.8100 -1.2717
 7267SOL     OW23241   0.112   0.492   4.229 -0.0792 -0.4263 -0.3613
 7267SOL    HW123242   0.048   0.432   4.190 -0.3553  0.2998 -1.0394
 7267SOL    HW223243   0.197   0.459   4.199 -0.2239 -0.5352 -0.6593
 7268SOL     OW23244   1.807   2.819   9.457 -0.2599 -0.1473 -0.4466
 7268SOL    HW123245   1.804   2.883   9.527  1.1389  0.2814 -0.7441
 7268SOL    HW223246   1.730   2.837   9.404 -1.4634 -0.6317  1.0848
 7269SOL     OW23247   5.556   0.078   6.802 -0.2572 -0.5503  0.0973
 7269SOL    HW123248   5.546  -0.015   6.822 -1.5732 -0.4039  0.2149
 7269SOL    HW223249   5.541   0.122   6.886  0.7095 -0.2431  0.1155
 7270SOL     OW23250   5.551   0.517   0.408 -0.0171  0.1711  0.2875
 7270SOL    HW123251   5.551   0.459   0.484  1.2411  0.1201  0.2581
 7270SOL    HW223252   5.643   0.531   0.387 -0.2143 -2.1324 -2.9916
 7271SOL     OW23253   2.225   6.120   6.513 -0.2136 -0.1112 -0.4501
 7271SOL    HW123254   2.283   6.117   6.589  2.2511  1.0706 -2.1360
 7271SOL    HW223255   2.188   6.208   6.514  0.7530  0.3193 -1.2131
 7272SOL     OW23256   6.441   5.802   8.110  0.2261  0.5872 -0.6459
 7272SOL    HW123257   6.417   5.814   8.019 -1.4937  0.5335 -0.2293
 7272SOL    HW223258   6.531   5.769   8.107  0.6783  1.8182 -2.2503
 7273SOL     OW23259   0.621   2.153   1.559 -0.3481 -0.2215 -0.4680
 7273SOL    HW123260   0.587   2.212   1.491  1.1409  1.2338 -0.0198
 7273SOL    HW223261   0.602   2.065   1.526 -1.1016  0.4653 -1.9849
 7274SOL     OW23262   6.596   1.192   7.507  0.1865 -0.1802  0.1915
 7274SOL    HW123263   6.663   1.143   7.460 -0.0665 -0.6841  0.3531
 7274SOL    HW223264   6.562   1.255   7.443 -0.1214 -0.8276 -0.2896
 7275SOL     OW23265   0.925   1.689   0.048 -0.9793  0.7678 -0.4991
 7275SOL    HW123266   0.888   1.600   0.046  2.6185 -0.9301 -1.4334
 7275SOL    HW223267   0.967   1.698  -0.038  1.1304  2.1797  0.5986
 7276SOL     OW23268   2.653   6.907   9.418  0.1519 -0.2259 -0.6946
 7276SOL    HW123269   2.728   6.883   9.474 -0.0449 -0.9871 -0.7394
 7276SOL    HW223270   2.654   6.842   9.348 -1.2575 -1.0185 -0.0348
 7277SOL     OW23271   0.058   0.848   6.279  0.2898  0.5971 -0.2738
 7277SOL    HW123272   0.140   0.802   6.259  0.0083 -0.4401  0.8674
 7277SOL    HW223273   0.068   0.933   6.236  2.0669  0.5879  0.0256
 7278SOL     OW23274   5.547   0.931   4.592  0.1984 -0.0637  0.5404
 7278SOL    HW123275   5.593   0.850   4.571  0.9742  0.1368  1.3858
 7278SOL    HW223276   5.617   0.997   4.600 -0.3589  0.5414  0.4948
 7279SOL     OW23277   7.292   0.703  11.124 -0.3692 -0.4602  0.2051
 7279SOL    HW123278   7.345   0.783  11.132 -1.6185  0.2654  1.8081
 7279SOL    HW223279   7.205   0.734  11.101 -0.3284 -1.5887 -1.6449
 7280SOL     OW23280   0.440   0.460   3.140 -0.2528  0.1026 -0.1200
 7280SOL    HW123281   0.380   0.479   3.212  0.6801  1.3663  0.3371
 7280SOL    HW223282   0.388   0.476   3.061 -0.5482  1.0911  0.2691
 7281SOL     OW23283   0.260   7.470   1.316 -0.3863  0.1694 -0.0152
 7281SOL    HW123284   0.253   7.531   1.390  0.7006  1.0928 -0.6347
 7281SOL    HW223285   0.172   7.435   1.305 -0.3447 -0.9508  2.5035
 7282SOL     OW23286   5.715   2.733   9.548 -0.2864 -0.4886 -0.4054
 7282SOL    HW123287   5.761   2.800   9.498 -1.0270  0.7593  0.5157
 7282SOL    HW223288   5.769   2.720   9.626 -0.9839  0.2851  0.2215
 7283SOL     OW23289   1.204   5.877   7.357 -0.2898  0.1192 -0.3548
 7283SOL    HW123290   1.294   5.884   7.327 -0.4658  0.6067 -0.7888
 7283SOL    HW223291   1.210   5.836   7.443  0.3076 -0.2944 -0.5868
 7284SOL     OW23292   3.620   7.466  10.553  0.1568  0.0781  0.2662
 7284SOL    HW123293   3.693   7.508  10.599 -1.0372  0.0632  2.3326
 7284SOL    HW223294   3.583   7.535  10.498 -0.6651  1.3065  2.2478
 7285SOL     OW23295   4.936   4.752   2.986 -0.4978 -0.0384  0.0808
 7285SOL    HW123296   4.885   4.812   3.041  1.6810  1.6758  0.3329
 7285SOL    HW223297   4.995   4.708   3.047  1.9413  1.8674 -0.7266
 7286SOL     OW23298   0.365   2.295   6.427 -0.4707  0.9562 -0.0013
 7286SOL    HW123299   0.439   2.356   6.434 -0.0794  1.0527 -3.2773
 7286SOL    HW223300   0.393   2.232   6.361 -2.4928 -0.3243  0.2909
 7287SOL     OW23301   0.700   4.384   7.653  0.0251 -0.3540 -0.3152
 7287SOL    HW123302   0.719   4.396   7.559 -0.5425  0.7550 -0.3131
 7287SOL    HW223303   0.764   4.320   7.682 -0.2178 -1.2272 -1.6124
 7288SOL     OW23304   4.637   1.592   3.440 -0.4936 -0.3442  0.1639
 7288SOL    HW123305   4.719   1.553   3.409 -0.5298  1.1188 -1.9249
 7288SOL    HW223306   4.573   1.521   3.433 -0.0357 -0.6625 -1.1862
 7289SOL     OW23307   0.414   3.904   5.204 -0.1745 -0.2958 -0.0706
 7289SOL    HW123308   0.420   3.879   5.297  0.1251 -0.6233 -0.1787
 7289SOL    HW223309   0.321   3.922   5.191 -0.0222  1.2765  0.6870
 7290SOL     OW23310   0.718   7.098   4.590 -0.0169  0.3342 -0.0090
 7290SOL    HW123311   0.763   7.142   4.663  0.6310 -0.1477 -0.0986
 7290SOL    HW223312   0.786   7.042   4.552 -0.4387  0.3467 -0.7890
 7291SOL     OW23313   0.603   1.318   0.681  0.2429  0.3411 -0.1174
 7291SOL    HW123314   0.627   1.355   0.766 -0.1149  2.4158 -0.8583
 7291SOL    HW223315   0.527   1.369   0.654 -0.7543 -1.4645 -0.9296
 7292SOL     OW23316   6.070   6.466   3.318  0.1029  0.7303 -0.2582
 7292SOL    HW123317   6.092   6.444   3.409  1.2120  0.9903 -0.4539
 7292SOL    HW223318   6.101   6.556   3.307  1.3626  0.2071 -1.3241
 7293SOL     OW23319   1.169   3.191   1.350  0.4496 -0.0506  0.1793
 7293SOL    HW123320   1.085   3.166   1.311  1.1817 -0.8870 -0.8787
 7293SOL    HW223321   1.171   3.287   1.342 -1.6924  0.3700  2.9003
 7294SOL     OW23322   5.101   7.359  10.214 -0.4724 -0.3228 -0.9251
 7294SOL    HW123323   5.090   7.431  10.152  1.0233 -0.2888 -1.1727
 7294SOL    HW223324   5.175   7.385  10.269 -2.8882  0.5587  2.2117
 7295SOL     OW23325   6.066   5.883   8.656 -0.2186  0.5650 -0.0679
 7295SOL    HW123326   6.118   5.876   8.736  0.8355 -1.6664 -0.8456
 7295SOL    HW223327   5.977   5.861   8.683 -0.5425  2.8697  0.9937
 7296SOL     OW23328   6.294   3.501  10.300 -0.4084 -0.5433 -1.1507
 7296SOL    HW123329   6.242   3.581  10.310 -0.5061 -0.7539  0.0730
 7296SOL    HW223330   6.294   3.485  10.205 -1.8573 -0.0736 -1.2476
 7297SOL     OW23331   5.052   0.243   4.206  0.1309 -0.6441 -0.1649
 7297SOL    HW123332   5.115   0.312   4.224  0.2107 -0.5362 -0.8391
 7297SOL    HW223333   4.987   0.251   4.277 -0.0679  0.3650 -0.4431
 7298SOL     OW23334   5.613   5.689   2.796 -0.4598  0.0621 -0.3664
 7298SOL    HW123335   5.521   5.681   2.771 -1.1474 -1.8227  2.3038
 7298SOL    HW223336   5.615   5.759   2.862 -0.0462 -0.1153 -0.1842
 7299SOL     OW23337   3.304   1.010   5.430  0.1329 -0.2180 -0.8893
 7299SOL    HW123338   3.210   0.990   5.435  0.1484 -0.2333 -0.6237
 7299SOL    HW223339   3.313   1.092   5.478  0.2681 -0.2617 -0.8409
 7300SOL     OW23340   4.619   5.618  10.933 -0.2221  0.3599  0.5446
 7300SOL    HW123341   4.621   5.636  11.027 -1.1251  0.7123  0.5144
 7300SOL    HW223342   4.686   5.551  10.920 -0.4984 -0.1387  1.5385
 7301SOL     OW23343   1.532   7.953  10.567 -0.6294 -0.1563  0.1902
 7301SOL    HW123344   1.551   8.027  10.625 -0.5153 -1.3987  1.8255
 7301SOL    HW223345   1.551   7.876  10.620 -2.0368 -1.3816 -0.9958
 7302SOL     OW23346   4.139   0.476   8.689 -0.3532  0.6306 -0.4068
 7302SOL    HW123347   4.067   0.459   8.628 -1.4226  0.6631  0.8030
 7302SOL    HW223348   4.112   0.555   8.736  0.5919  0.7756 -0.1005
 7303SOL     OW23349   6.831   2.847   9.151 -0.5175 -0.5240  0.0320
 7303SOL    HW123350   6.912   2.801   9.128 -0.2474 -0.1873  0.3014
 7303SOL    HW223351   6.815   2.905   9.076 -0.6134 -0.7251 -0.1053
 7304SOL     OW23352   4.557   6.913   0.658 -0.0022  0.2018 -0.1375
 7304SOL    HW123353   4.627   6.972   0.688  0.0011  1.1410 -1.8828
 7304SOL    HW223354   4.539   6.858   0.734  0.6131  1.8650  1.2937
 7305SOL     OW23355   3.440   7.828   3.770  0.6151 -0.0894  0.1594
 7305SOL    HW123356   3.379   7.759   3.798  2.1218 -0.8215  1.8101
 7305SOL    HW223357   3.383   7.894   3.730 -1.5103 -0.0618  2.9093
 7306SOL     OW23358   4.743   2.991   8.072 -0.5005 -0.1260  0.1888
 7306SOL    HW123359   4.800   3.056   8.113  0.2424 -1.5234  1.4692
 7306SOL    HW223360   4.657   3.034   8.068 -0.0893  0.8547  1.2089
 7307SOL     OW23361   5.324   0.844  10.059  0.2266 -0.4461  0.2200
 7307SOL    HW123362   5.383   0.881  10.125  0.2145 -0.1090  0.0438
 7307SOL    HW223363   5.370   0.856   9.976 -0.8033  1.3978 -0.1450
 7308SOL     OW23364   0.893   3.126   7.799 -0.4639 -0.8003  0.1542
 7308SOL    HW123365   0.928   3.038   7.784 -0.9519 -0.7180 -1.6613
 7308SOL    HW223366   0.826   3.114   7.866  0.1597 -1.6379  0.6431
 7309SOL     OW23367   3.328   7.971   0.092  0.1052 -0.1479  0.1734
 7309SOL    HW123368   3.244   7.984   0.049  0.0274  0.7378  0.5760
 7309SOL    HW223369   3.391   8.019   0.038  0.6074 -1.9091 -0.8917
 7310SOL     OW23370   3.569   2.927   0.565  0.5693  0.0368 -0.3878
 7310SOL    HW123371   3.529   2.873   0.633  1.7753 -2.0411 -1.2381
 7310SOL    HW223372   3.634   2.980   0.611  1.3675 -1.3354  0.1442
 7311SOL     OW23373   1.477   7.590   8.164 -0.1675 -0.1608  0.4273
 7311SOL    HW123374   1.384   7.591   8.184 -0.6674  1.8425 -1.5162
 7311SOL    HW223375   1.521   7.596   8.249 -1.8462  0.2612  1.2994
 7312SOL     OW23376   1.481   6.263   5.142  0.2929  0.2255  0.0665
 7312SOL    HW123377   1.514   6.322   5.209 -1.1551 -0.0519  1.0865
 7312SOL    HW223378   1.555   6.249   5.083  0.5295  3.5309 -0.6057
 7313SOL     OW23379   4.441   0.448   2.643  0.4620  0.2922 -0.2855
 7313SOL    HW123380   4.381   0.458   2.717  0.7793 -1.5710  0.2675
 7313SOL    HW223381   4.527   0.441   2.682  0.5752 -1.2732 -0.7656
 7314SOL     OW23382   1.766   4.526   5.422  0.0185  0.5559  0.3976
 7314SOL    HW123383   1.679   4.564   5.409 -0.0021 -0.2188 -2.2051
 7314SOL    HW223384   1.826   4.586   5.378  0.3641 -0.5903 -0.7745
 7315SOL     OW23385   5.527   2.721   2.337 -0.0814 -0.1731 -0.2182
 7315SOL    HW123386   5.495   2.632   2.325 -2.0342  0.5340 -0.4987
 7315SOL    HW223387   5.592   2.733   2.268 -0.7816 -0.9339 -1.0175
 7316SOL     OW23388   2.027   2.496   1.314 -0.2351  0.0596  0.6004
 7316SOL    HW123389   2.030   2.536   1.401 -1.8591 -0.3119  0.8702
 7316SOL    HW223390   1.980   2.414   1.328  0.8983 -0.7904 -0.3693
 7317SOL     OW23391   5.960   7.399  10.461  0.1186 -0.9388 -0.8382
 7317SOL    HW123392   5.972   7.328  10.525 -0.0809 -0.8640 -0.7152
 7317SOL    HW223393   6.048   7.431  10.443  0.1829 -1.0158 -0.6583
 7318SOL     OW23394   1.606   0.096   4.121 -0.3442  0.8920  0.1197
 7318SOL    HW123395   1.593   0.123   4.030 -0.5329  0.3756 -0.0091
 7318SOL    HW223396   1.518   0.074   4.152 -0.4988  2.4392  0.8847
 7319SOL     OW23397   3.767   2.557   6.100 -0.5268 -0.3339 -0.0009
 7319SOL    HW123398   3.827   2.518   6.163  0.5968  0.5913 -0.4701
 7319SOL    HW223399   3.823   2.608   6.041 -1.8147  0.9155 -0.1979
 7320SOL     OW23400   5.073   5.113   1.762 -0.3073 -0.3951  0.4076
 7320SOL    HW123401   5.062   5.041   1.699 -1.8961  0.3397 -0.2153
 7320SOL    HW223402   5.053   5.074   1.847 -1.8121 -0.5797 -0.0024
 7321SOL     OW23403   1.447   5.083   7.087 -0.1223 -0.0131  0.2863
 7321SOL    HW123404   1.503   5.057   7.014 -0.5262 -0.5489  0.1607
 7321SOL    HW223405   1.506   5.127   7.149  0.2442  0.3242 -0.2994
 7322SOL     OW23406   4.221   6.835   6.351 -0.1326  0.1474 -0.3976
 7322SOL    HW123407   4.264   6.916   6.325  1.3614 -0.4879 -0.0178
 7322SOL    HW223408   4.150   6.824   6.288 -0.2705  1.6694 -0.5328
 7323SOL     OW23409   0.148   5.167  12.363  0.5665  0.7098 -0.3789
 7323SOL    HW123410   0.156   5.077  12.332  2.1847  0.1065  1.5409
 7323SOL    HW223411   0.123   5.157  12.455  3.1670  2.1011  0.5472
 7324SOL     OW23412   7.285   1.755   7.572 -0.0389  0.7692 -0.1571
 7324SOL    HW123413   7.347   1.822   7.545 -1.5045  1.3361 -2.3480
 7324SOL    HW223414   7.203   1.777   7.527 -1.9564  0.1517  2.7119
 7325SOL     OW23415   7.868   4.827  10.447  0.4640 -0.1009 -0.0016
 7325SOL    HW123416   7.883   4.921  10.460 -1.2388  0.6437 -2.5720
 7325SOL    HW223417   7.773   4.816  10.455 -0.0201 -0.6084 -4.1211
 7326SOL     OW23418   4.522   6.181   9.537  0.5236 -0.2857  0.1845
 7326SOL    HW123419   4.612   6.176   9.570  0.8561  0.5782 -0.5466
 7326SOL    HW223420   4.469   6.141   9.606  1.4279 -0.4766  0.7877
 7327SOL     OW23421   3.915   1.208  10.049 -0.0808 -0.1994 -0.9787
 7327SOL    HW123422   3.931   1.270  10.120 -0.3501 -1.1972 -0.0148
 7327SOL    HW223423   3.965   1.243   9.975 -0.6201  1.4064 -0.6170
 7328SOL     OW23424   0.196   6.665   4.059  1.1193  0.3679  0.0232
 7328SOL    HW123425   0.143   6.588   4.039  1.7198 -0.8339  2.6386
 7328SOL    HW223426   0.135   6.739   4.053 -0.7419 -0.8830  2.1099
 7329SOL     OW23427   0.260   5.374   4.077 -0.0440 -0.4860  0.2078
 7329SOL    HW123428   0.252   5.438   4.006 -0.9521  0.2418  0.9398
 7329SOL    HW223429   0.175   5.329   4.078 -0.3843  0.1382  1.3981
 7330SOL     OW23430   1.898   5.897  11.331 -0.5128 -0.1919  0.5154
 7330SOL    HW123431   1.976   5.952  11.320 -0.3939 -0.5435 -0.5141
 7330SOL    HW223432   1.850   5.938  11.403  0.3403  0.3622  0.7816
 7331SOL     OW23433   0.242   6.979   8.341  0.0473 -0.1169 -0.0798
 7331SOL    HW123434   0.176   6.931   8.392 -0.1734  0.4046  0.1274
 7331SOL    HW223435   0.317   6.919   8.337 -0.5717 -0.8801 -0.6639
 7332SOL     OW23436   5.943   5.249   5.333 -0.3201  0.0659 -0.9781
 7332SOL    HW123437   5.880   5.195   5.380  0.0659  0.7717  0.4102
 7332SOL    HW223438   5.891   5.292   5.264 -0.6957 -1.7382 -1.8715
 7333SOL     OW23439   2.201   4.089   6.225 -0.3492 -0.0481  0.2312
 7333SOL    HW123440   2.206   4.003   6.184  2.6358  0.6365 -1.1332
 7333SOL    HW223441   2.175   4.148   6.154  1.4714  0.6566  0.0869
 7334SOL     OW23442   5.346   3.102   3.760 -0.3127  0.2708 -0.3295
 7334SOL    HW123443   5.275   3.119   3.823  1.4847  0.3294  1.8098
 7334SOL    HW223444   5.373   3.189   3.731 -0.2380  0.3207 -0.1123
 7335SOL     OW23445   3.215   0.220   2.757  0.7623  0.2379 -0.3798
 7335SOL    HW123446   3.172   0.249   2.676  0.0874 -1.7311 -0.7919
 7335SOL    HW223447   3.173   0.271   2.826 -0.9612 -0.2879 -0.9769
 7336SOL     OW23448   5.705   6.298   7.897 -0.1511 -0.1105 -0.4963
 7336SOL    HW123449   5.726   6.389   7.916  0.2372 -0.4760  0.9235
 7336SOL    HW223450   5.639   6.302   7.828 -2.3993  1.3407  1.6019
 7337SOL     OW23451   4.446   1.695   9.528 -0.9085 -0.5086  0.3475
 7337SOL    HW123452   4.353   1.670   9.531 -0.6188 -1.6072  0.8619
 7337SOL    HW223453   4.450   1.768   9.467 -2.1367 -0.3567  0.4300
 7338SOL     OW23454   0.688   4.796   0.860 -0.1925  0.2309  0.5132
 7338SOL    HW123455   0.608   4.755   0.892  0.2409 -1.2008 -0.1631
 7338SOL    HW223456   0.758   4.756   0.912  0.1379  1.0039  0.6699
 7339SOL     OW23457   6.673   1.681   4.698  0.2288 -0.8206 -0.2459
 7339SOL    HW123458   6.619   1.683   4.618  0.9878  0.1375 -0.7634
 7339SOL    HW223459   6.639   1.753   4.751 -0.3123 -1.4955  0.3346
 7340SOL     OW23460   1.177   2.182   9.044 -0.0494  0.4498 -0.0261
 7340SOL    HW123461   1.082   2.174   9.047 -0.0530  0.5840  0.2289
 7340SOL    HW223462   1.193   2.273   9.021  0.0070  0.0152 -1.8612
 7341SOL     OW23463   7.392   7.328   9.722 -0.3936 -0.0063 -0.4123
 7341SOL    HW123464   7.402   7.311   9.816 -1.8927  0.5540 -0.1115
 7341SOL    HW223465   7.355   7.247   9.687 -0.5594  0.0468 -0.3631
 7342SOL     OW23466   5.441   3.730   4.465  0.0176  0.4500 -0.4087
 7342SOL    HW123467   5.534   3.747   4.454  0.2303  0.2985  0.9143
 7342SOL    HW223468   5.399   3.814   4.447  0.3476  0.3954 -1.5068
 7343SOL     OW23469   1.035   5.078   7.273  0.5207  0.5450 -0.3868
 7343SOL    HW123470   1.038   5.135   7.197 -0.9914 -0.9965 -1.6896
 7343SOL    HW223471   1.121   5.089   7.315  2.3267 -0.1679 -3.5516
 7344SOL     OW23472   0.793   5.993   0.111  0.1278  0.3023 -0.0444
 7344SOL    HW123473   0.877   5.994   0.158  1.1213 -0.5685 -1.6637
 7344SOL    HW223474   0.773   5.899   0.101 -0.2254  0.4670 -1.0125
 7345SOL     OW23475   3.006   2.697  11.422 -0.0760  0.4788  0.3323
 7345SOL    HW123476   3.033   2.733  11.337  2.5438  1.3063  1.4302
 7345SOL    HW223477   3.028   2.604  11.416 -0.6798  0.3537 -0.1469
 7346SOL     OW23478   6.915   3.821  10.871 -0.2087  0.1704  0.3992
 7346SOL    HW123479   6.934   3.849  10.961 -0.7413 -2.2076  1.3404
 7346SOL    HW223480   6.876   3.734  10.881 -0.1937 -0.2122 -2.1578
 7347SOL     OW23481   4.916   1.531   3.745 -0.2868  0.2226 -0.2611
 7347SOL    HW123482   4.970   1.610   3.752  0.9844 -0.4719 -1.6069
 7347SOL    HW223483   4.963   1.475   3.683 -0.9833 -1.7535  0.8854
 7348SOL     OW23484   7.655   4.810  11.198 -0.7589 -0.2497  0.5129
 7348SOL    HW123485   7.739   4.765  11.213 -0.2936  0.1598 -0.7437
 7348SOL    HW223486   7.664   4.893  11.244 -1.1052 -0.8577  1.7161
 7349SOL     OW23487   5.496   1.986   7.300  0.3544  0.0219  0.1757
 7349SOL    HW123488   5.413   2.012   7.260  1.4327  2.5056 -0.6157
 7349SOL    HW223489   5.557   2.056   7.277  2.3568 -1.0623  1.8513
 7350SOL     OW23490   2.171   7.261  10.327 -0.0777  0.4219 -0.1974
 7350SOL    HW123491   2.158   7.254  10.232 -0.2217  0.9151 -0.2137
 7350SOL    HW223492   2.085   7.280  10.362  0.0986  0.9380 -0.0358
 7351SOL     OW23493   0.759   3.825   5.103 -0.0824  0.0327  0.4579
 7351SOL    HW123494   0.826   3.883   5.068 -0.2019 -1.0546 -1.7200
 7351SOL    HW223495   0.779   3.819   5.197  1.3410  1.6645  0.3034
 7352SOL     OW23496   5.429   0.300   2.303  0.0433 -0.2700 -0.4962
 7352SOL    HW123497   5.515   0.259   2.300  0.1617  0.0116 -1.2771
 7352SOL    HW223498   5.375   0.247   2.244 -0.4865 -0.7956  0.4337
 7353SOL     OW23499   1.188   6.119  10.826  0.7433  0.3236 -0.1660
 7353SOL    HW123500   1.234   6.035  10.820 -1.3126 -0.7483 -2.4024
 7353SOL    HW223501   1.097   6.096  10.844 -0.0907  1.9400 -1.9284
 7354SOL     OW23502   7.890   7.174   2.318  0.4918  0.1491  0.2622
 7354SOL    HW123503   7.843   7.223   2.251  1.8560 -0.0459 -0.8855
 7354SOL    HW223504   7.827   7.109   2.349 -0.3642  0.6587 -0.3836
 7355SOL     OW23505   3.646   6.500  12.337  0.4050 -0.0532  0.1743
 7355SOL    HW123506   3.592   6.433  12.295  3.3894 -0.6513 -3.1479
 7355SOL    HW223507   3.722   6.452  12.370  1.7007  1.3876 -0.5664
 7356SOL     OW23508   2.145   7.704   3.945  0.6855 -0.0693  0.0363
 7356SOL    HW123509   2.076   7.665   3.891 -0.4561  0.8743  0.7491
 7356SOL    HW223510   2.176   7.633   4.000 -1.6396  0.0305  1.6077
 7357SOL     OW23511   7.215   1.877   4.287 -0.4946  0.0628  0.2023
 7357SOL    HW123512   7.288   1.853   4.344 -2.1159 -0.3239  2.2459
 7357SOL    HW223513   7.211   1.973   4.292  0.8694  0.2403 -1.3045
 7358SOL     OW23514   3.498   1.070   5.131 -0.1613 -0.2225 -0.2672
 7358SOL    HW123515   3.474   1.071   5.038 -1.7885  0.4137  0.1179
 7358SOL    HW223516   3.421   1.034   5.175  0.2563  0.2698  0.9111
 7359SOL     OW23517   6.826   3.516   4.028  0.1494 -0.1984 -0.0142
 7359SOL    HW123518   6.803   3.467   4.106 -1.7562 -0.2706 -0.5718
 7359SOL    HW223519   6.752   3.575   4.014  0.3532 -0.3082 -1.8515
 7360SOL     OW23520   6.999   3.315  11.446 -0.0522 -0.0511 -0.0632
 7360SOL    HW123521   7.046   3.352  11.521  0.7261  1.0729 -1.0635
 7360SOL    HW223522   6.982   3.224  11.470 -0.4268  0.4637  1.7473
 7361SOL     OW23523   3.894   6.103   2.025  0.0801 -0.7384  0.1569
 7361SOL    HW123524   3.952   6.172   1.993  0.5525 -1.9011 -1.6513
 7361SOL    HW223525   3.949   6.024   2.026 -0.7364 -1.3122  1.0985
 7362SOL     OW23526   1.790   3.006   9.661 -0.2419  0.2256 -0.2367
 7362SOL    HW123527   1.782   3.099   9.682 -2.7610  0.0290 -0.0205
 7362SOL    HW223528   1.805   2.963   9.745 -2.8648  0.1580  0.2953
 7363SOL     OW23529   6.123   0.307   8.486  0.2872 -0.0639  0.2275
 7363SOL    HW123530   6.136   0.214   8.505  2.4037  0.3834  1.2084
 7363SOL    HW223531   6.113   0.348   8.571 -0.2283  0.6773 -0.1787
 7364SOL     OW23532   1.603   1.869   6.082  0.3353 -0.5667  0.0956
 7364SOL    HW123533   1.653   1.815   6.020  0.3570  0.0054 -0.3909
 7364SOL    HW223534   1.561   1.936   6.027  0.0558 -0.2808  0.6566
 7365SOL     OW23535   3.560   3.697  11.159  0.7369  0.3185  0.8468
 7365SOL    HW123536   3.471   3.662  11.164  1.1154 -0.8428 -0.0182
 7365SOL    HW223537   3.614   3.622  11.137  2.1700  0.7092  2.7882
 7366SOL     OW23538   4.280   1.940   3.415  0.3474 -0.1918  0.6088
 7366SOL    HW123539   4.307   2.029   3.391  1.1971  0.0111  2.1623
 7366SOL    HW223540   4.346   1.883   3.375  1.9897  0.1691  2.5911
 7367SOL     OW23541   2.601   1.252  12.287  0.1119 -0.1953  0.1161
 7367SOL    HW123542   2.532   1.188  12.270  0.4320 -0.4413 -0.2546
 7367SOL    HW223543   2.566   1.334  12.255 -0.5260 -0.0641  1.0880
 7368SOL     OW23544   6.744   0.931   2.068  0.2028 -0.1103 -0.0750
 7368SOL    HW123545   6.814   0.986   2.033  0.4514 -1.0158 -1.0344
 7368SOL    HW223546   6.666   0.957   2.019  0.0802  0.1499  0.2503
 7369SOL     OW23547   2.245   3.905   7.895  0.1947 -0.1694  0.1444
 7369SOL    HW123548   2.197   3.986   7.878 -0.5746 -0.6413 -0.0055
 7369SOL    HW223549   2.317   3.931   7.953 -0.3295  0.5311  0.4959
 7370SOL     OW23550   3.782   6.203  10.464  0.1086  0.0386  0.2264
 7370SOL    HW123551   3.852   6.268  10.466 -1.4727  1.9225 -1.3002
 7370SOL    HW223552   3.817   6.128  10.512  2.0190  1.9931  2.1046
 7371SOL     OW23553   5.239   5.509   8.519  0.1702  0.0265 -0.2960
 7371SOL    HW123554   5.264   5.417   8.527 -0.5870 -0.1145  0.6792
 7371SOL    HW223555   5.256   5.531   8.428  0.0646 -1.1668 -0.6196
 7372SOL     OW23556   1.600   0.817   7.776 -0.3275  0.1322  0.6006
 7372SOL    HW123557   1.586   0.908   7.803  0.0504  0.1292  0.8041
 7372SOL    HW223558   1.687   0.817   7.735 -0.4364 -0.0842  0.3668
 7373SOL     OW23559   4.226   1.529   9.573  0.4208 -0.1316 -0.2295
 7373SOL    HW123560   4.265   1.445   9.597  0.8010  0.0506 -0.2043
 7373SOL    HW223561   4.141   1.506   9.537  0.4022 -0.5062  0.0510
 7374SOL     OW23562   2.337   3.602  11.706  0.4869 -0.2381 -0.5435
 7374SOL    HW123563   2.333   3.516  11.664  2.8681 -0.2606 -0.8874
 7374SOL    HW223564   2.390   3.587  11.784  0.3467  0.7803 -0.2456
 7375SOL     OW23565   6.599   3.164   3.266 -0.1768  0.0367  0.5157
 7375SOL    HW123566   6.674   3.131   3.216 -0.3143 -2.0498  1.5747
 7375SOL    HW223567   6.635   3.236   3.318  0.5581  0.5178 -0.6096
 7376SOL     OW23568   2.943   0.841   6.141  0.6676 -0.5222  0.9080
 7376SOL    HW123569   2.993   0.772   6.097  0.7600  0.0016  0.1585
 7376SOL    HW223570   3.003   0.876   6.207  0.8755 -0.6775  0.8019
 7377SOL     OW23571   0.446   1.018  11.799  0.1010 -0.1226  0.4092
 7377SOL    HW123572   0.515   1.079  11.772 -0.4211  1.5332  2.4684
 7377SOL    HW223573   0.370   1.044  11.748 -0.4417  1.8691  2.0834
 7378SOL     OW23574   5.352   1.072   1.051  0.1536  0.4317  0.6419
 7378SOL    HW123575   5.353   1.135   1.123  1.4551  0.5924  0.5080
 7378SOL    HW223576   5.297   1.001   1.082  0.0865  0.8454  1.4930
 7379SOL     OW23577   0.270   7.430   0.823  0.2857  0.2263  0.2365
 7379SOL    HW123578   0.308   7.511   0.788 -0.4125 -0.6073 -2.7154
 7379SOL    HW223579   0.176   7.439   0.807  0.2851 -1.4616 -0.9027
 7380SOL     OW23580   1.499   2.171   4.633  0.4921  0.6417 -0.1590
 7380SOL    HW123581   1.464   2.250   4.672 -0.9330 -0.1097  0.1497
 7380SOL    HW223582   1.575   2.149   4.687 -0.2177  0.7629  0.9124
 7381SOL     OW23583   6.585   1.244  12.460  0.4966  0.0206 -0.3668
 7381SOL    HW123584   6.677   1.264  12.478 -0.0827 -0.0891  3.8826
 7381SOL    HW223585   6.571   1.159  12.500 -1.4813  0.0892 -0.8112
 7382SOL     OW23586   6.034   2.293   3.124 -0.0466 -0.3590  0.0623
 7382SOL    HW123587   5.942   2.307   3.146 -0.1870  3.4290 -2.1002
 7382SOL    HW223588   6.031   2.238   3.046 -0.3478 -1.2876  0.7077
 7383SOL     OW23589   0.554   6.691   3.703 -0.1421  0.6085 -0.4207
 7383SOL    HW123590   0.593   6.604   3.716  0.8500  0.9456 -1.0149
 7383SOL    HW223591   0.466   6.673   3.670  0.0119 -0.1761 -0.4193
 7384SOL     OW23592   7.041   0.142   1.391 -0.3736  0.5707 -0.1915
 7384SOL    HW123593   7.054   0.107   1.302  0.4834 -0.4326  0.3074
 7384SOL    HW223594   7.087   0.225   1.390  0.3261  0.1874 -0.4579
 7385SOL     OW23595   0.022   7.275   8.310  0.2134  0.2241  0.6960
 7385SOL    HW123596  -0.004   7.359   8.348 -2.0077 -0.8689  1.7824
 7385SOL    HW223597  -0.036   7.264   8.235  1.2089  0.1100 -0.0727
 7386SOL     OW23598   4.991   5.430   5.680  0.7078  0.5737  0.0066
 7386SOL    HW123599   5.005   5.468   5.593  1.2287 -1.2297 -0.7488
 7386SOL    HW223600   5.068   5.456   5.730  1.8456 -0.7497 -0.9839
 7387SOL     OW23601   7.166   6.446   0.041 -0.3379 -0.6410 -0.1392
 7387SOL    HW123602   7.083   6.399   0.050 -1.1703  0.6608 -0.7226
 7387SOL    HW223603   7.143   6.529  -0.001  1.0857  0.2606  0.7505
 7388SOL     OW23604   4.675   1.588   3.873 -0.1936 -0.4781 -0.1594
 7388SOL    HW123605   4.587   1.556   3.855  0.5141 -0.8899 -3.6618
 7388SOL    HW223606   4.732   1.532   3.821  2.0845  0.2248  1.4502
 7389SOL     OW23607   2.928   1.529  10.546 -0.1947  0.0741 -1.0016
 7389SOL    HW123608   2.932   1.458  10.482 -1.6202  1.3018 -2.5676
 7389SOL    HW223609   2.896   1.605  10.495 -0.1001  1.4517  0.8940
 7390SOL     OW23610   4.209   0.495   2.416  0.1571  0.3871  0.4763
 7390SOL    HW123611   4.249   0.577   2.390  1.1988 -0.8018 -1.9867
 7390SOL    HW223612   4.276   0.451   2.469  0.2842  0.3757  0.3049
 7391SOL     OW23613   3.412   3.069   3.111  0.2690 -0.1138 -0.1701
 7391SOL    HW123614   3.405   3.163   3.130 -0.7829 -0.2842  0.3518
 7391SOL    HW223615   3.419   3.028   3.197 -2.7311 -0.7540 -0.1225
 7392SOL     OW23616   2.409   3.183  10.051 -0.3248  0.2902  0.0050
 7392SOL    HW123617   2.381   3.105  10.098  0.7213 -0.3352 -0.3802
 7392SOL    HW223618   2.483   3.217  10.102 -1.9940  2.2234  1.3103
 7393SOL     OW23619   5.375   6.374  11.387 -0.3035 -0.3111  0.1830
 7393SOL    HW123620   5.376   6.386  11.482 -0.1005 -2.5094  0.5051
 7393SOL    HW223621   5.309   6.436  11.356 -0.1154  0.7105  1.6904
 7394SOL     OW23622   6.406   5.297  12.469  0.0391 -0.0037 -0.5248
 7394SOL    HW123623   6.336   5.242  12.434  0.5661 -0.6803 -0.5369
 7394SOL    HW223624   6.391   5.297  12.564 -0.1566  0.1137 -0.5536
 7395SOL     OW23625   7.818   7.422   9.985  0.0909  0.0938 -0.6509
 7395SOL    HW123626   7.811   7.404  10.078  0.9497  0.7005 -0.4557
 7395SOL    HW223627   7.735   7.464   9.962  0.9241  2.5577  0.4782
 7396SOL     OW23628   7.901   2.719   1.526 -0.1049 -0.6035 -0.1362
 7396SOL    HW123629   7.843   2.794   1.518 -1.2661 -1.4831 -0.3409
 7396SOL    HW223630   7.936   2.706   1.438  0.6734  0.1270  0.0585
 7397SOL     OW23631   3.243   5.556   1.358 -0.0899 -0.1287 -0.4106
 7397SOL    HW123632   3.222   5.493   1.289 -0.6558  0.1974 -0.5420
 7397SOL    HW223633   3.175   5.623   1.351  0.5972  0.5903 -0.3907
 7398SOL     OW23634   1.279   3.103   5.282  0.1661 -0.0200 -0.1443
 7398SOL    HW123635   1.318   3.081   5.366 -0.2323  0.8845  0.2902
 7398SOL    HW223636   1.209   3.166   5.303 -2.5954 -2.6585 -0.6638
 7399SOL     OW23637   5.426   5.731  12.294  0.2974 -0.5359 -0.3305
 7399SOL    HW123638   5.490   5.726  12.364  1.3576 -1.5447 -1.3287
 7399SOL    HW223639   5.478   5.735  12.214 -0.8419 -2.6659 -1.2613
 7400SOL     OW23640   7.369   1.896  11.104 -0.1285  0.7107  0.0401
 7400SOL    HW123641   7.346   1.832  11.172 -0.4375  0.2403 -0.4867
 7400SOL    HW223642   7.464   1.891  11.098 -0.0745  0.9728  0.6426
 7401SOL     OW23643   0.724   5.375   4.682 -0.7047  0.1486 -0.1287
 7401SOL    HW123644   0.663   5.301   4.685 -2.0877  1.1831 -1.3923
 7401SOL    HW223645   0.720   5.406   4.592 -0.7359  2.2242  0.5385
 7402SOL     OW23646   1.732   6.894   0.292 -0.1549 -0.2031  0.0278
 7402SOL    HW123647   1.673   6.844   0.235 -0.5992 -1.3778  1.4531
 7402SOL    HW223648   1.785   6.828   0.337 -0.9053  0.5280  2.1317
 7403SOL     OW23649   3.682   1.799  10.732  0.3723  0.2023 -0.0752
 7403SOL    HW123650   3.648   1.751  10.807 -0.0542  1.1471  0.3426
 7403SOL    HW223651   3.662   1.743  10.656 -1.4945  0.4075  0.2212
 7404SOL     OW23652   7.019   6.185   7.812 -0.4621 -0.2667  0.1630
 7404SOL    HW123653   7.029   6.225   7.898  0.4467 -0.0335 -0.0454
 7404SOL    HW223654   7.030   6.092   7.828 -0.0822 -0.2043  0.2632
 7405SOL     OW23655   0.886   1.917   9.101  0.6252 -0.7528  0.0359
 7405SOL    HW123656   0.821   1.878   9.042 -1.2274 -1.2233  2.2245
 7405SOL    HW223657   0.958   1.854   9.102 -0.7873 -2.4392  0.7904
 7406SOL     OW23658   7.500   3.268   2.859  0.5702 -0.0313  0.0087
 7406SOL    HW123659   7.421   3.319   2.843 -1.5643 -2.9030  0.7682
 7406SOL    HW223660   7.526   3.290   2.948  0.8891  1.1882 -0.3682
 7407SOL     OW23661   4.448   2.142  10.073 -0.4893 -0.3449  0.5694
 7407SOL    HW123662   4.517   2.185  10.123  1.5054 -0.0123 -2.2348
 7407SOL    HW223663   4.480   2.053  10.058 -1.0014 -0.4220 -0.1307
 7408SOL     OW23664   0.247   6.754   6.448  0.2502 -0.0107  0.4832
 7408SOL    HW123665   0.190   6.731   6.521  0.0024  0.1362  0.3399
 7408SOL    HW223666   0.187   6.761   6.373  0.4792 -0.0122  0.2988
 7409SOL     OW23667   6.335   2.929   5.071  0.3352 -0.3301 -0.5825
 7409SOL    HW123668   6.349   2.915   5.164  0.9263 -2.5709 -0.9493
 7409SOL    HW223669   6.347   3.023   5.058  1.2436 -0.1390  1.4204
 7410SOL     OW23670   3.830   5.249   4.577 -0.2837 -0.6153  0.1064
 7410SOL    HW123671   3.803   5.296   4.498 -1.4752 -2.1719 -0.4840
 7410SOL    HW223672   3.872   5.169   4.544  2.9216  0.5291  1.0561
 7411SOL     OW23673   6.729   4.666  10.679  0.1695  0.2623 -0.0400
 7411SOL    HW123674   6.788   4.605  10.635  1.3163 -0.1543  1.9470
 7411SOL    HW223675   6.642   4.629  10.666  0.5596 -0.3101 -1.1614
 7412SOL     OW23676   5.663   7.689  10.212  0.0718 -0.2852 -0.4612
 7412SOL    HW123677   5.715   7.661  10.137 -0.7067 -0.5541 -0.9149
 7412SOL    HW223678   5.702   7.645  10.287  0.8851  0.0177 -0.6902
 7413SOL     OW23679   5.048   2.161  11.378  0.3946 -0.7079  0.4806
 7413SOL    HW123680   5.126   2.172  11.432 -1.3976  0.0713  3.1181
 7413SOL    HW223681   4.994   2.099  11.427 -1.3052 -0.0250 -0.4449
 7414SOL     OW23682   2.821   1.570   9.064  0.8128 -0.0310 -0.2913
 7414SOL    HW123683   2.913   1.592   9.054  0.7001  0.2874 -0.6514
 7414SOL    HW223684   2.778   1.609   8.987  0.5621 -1.2319 -0.7881
 7415SOL     OW23685   7.668   6.909  11.355 -0.1098  0.2312 -0.4206
 7415SOL    HW123686   7.628   6.948  11.278  0.5397  1.0566 -0.3565
 7415SOL    HW223687   7.602   6.917  11.424 -0.3094  0.4290 -0.6347
 7416SOL     OW23688   4.814   6.893   5.195 -0.0787 -0.4189 -0.0401
 7416SOL    HW123689   4.902   6.885   5.233  0.0269 -0.4740 -0.2934
 7416SOL    HW223690   4.824   6.863   5.105 -0.1087  0.6561 -0.4220
 7417SOL     OW23691   2.841   3.854   9.106  0.1798  0.2532  0.4688
 7417SOL    HW123692   2.846   3.927   9.044 -0.2071  0.6099  0.8470
 7417SOL    HW223693   2.920   3.803   9.091  0.2105  0.4792 -0.1420
 7418SOL     OW23694   0.766   5.518   3.697  0.7693 -0.4654 -0.1564
 7418SOL    HW123695   0.745   5.458   3.626 -1.0002  0.2472 -0.2838
 7418SOL    HW223696   0.800   5.596   3.652 -2.2621  0.7948 -0.4677
 7419SOL     OW23697   6.576   1.186   9.132 -0.3142  0.1771 -0.3362
 7419SOL    HW123698   6.617   1.235   9.061  0.7972 -0.3535 -0.0839
 7419SOL    HW223699   6.612   1.224   9.212 -0.5464 -0.0948 -0.1002
 7420SOL     OW23700   7.511   5.842   6.896 -0.6528 -0.0977  0.2532
 7420SOL    HW123701   7.592   5.876   6.935  0.2110 -2.4214  0.6079
 7420SOL    HW223702   7.465   5.800   6.968 -1.0675 -0.7998 -0.4119
 7421SOL     OW23703   7.946   5.778   3.765 -0.1558  0.0704  0.2361
 7421SOL    HW123704   8.008   5.761   3.835  1.0943  0.6135 -0.6888
 7421SOL    HW223705   7.999   5.814   3.694 -1.6084  1.1149 -0.3942
 7422SOL     OW23706   6.107   3.647  12.263  0.3389 -0.8265 -0.0692
 7422SOL    HW123707   6.121   3.577  12.326 -0.4306  1.9793  3.5765
 7422SOL    HW223708   6.194   3.684  12.247  0.4480 -1.0999 -0.1101
 7423SOL     OW23709   5.899   4.679   9.534  0.7039  0.0276  0.4765
 7423SOL    HW123710   5.948   4.754   9.569  0.9573 -0.1627  0.5335
 7423SOL    HW223711   5.962   4.607   9.534  1.2790  0.4414 -2.0813
 7424SOL     OW23712   3.088   3.118   8.458 -0.2593 -0.4854  0.1129
 7424SOL    HW123713   3.051   3.051   8.515 -1.4966 -0.0485 -0.1341
 7424SOL    HW223714   3.030   3.193   8.469  0.6231  0.2713 -0.2407
 7425SOL     OW23715   2.431   2.244   3.370  0.0403  0.2635 -0.2060
 7425SOL    HW123716   2.455   2.289   3.288  0.0767 -0.4267 -0.5766
 7425SOL    HW223717   2.419   2.153   3.345 -0.5621  0.1538  0.4456
 7426SOL     OW23718   7.140   0.840   1.981 -0.8403  0.0757 -0.3078
 7426SOL    HW123719   7.220   0.791   1.965 -1.8596 -1.5755 -0.6253
 7426SOL    HW223720   7.152   0.922   1.934  0.2912 -0.5176 -1.1145
 7427SOL     OW23721   6.313   7.055   2.433  0.1849 -0.6191 -0.1617
 7427SOL    HW123722   6.291   7.148   2.435 -0.1467 -0.6734 -1.0804
 7427SOL    HW223723   6.364   7.044   2.353  1.8586 -0.8810  0.9096
 7428SOL     OW23724   4.162   6.265   1.511 -0.4721  0.4166 -0.0704
 7428SOL    HW123725   4.085   6.310   1.545 -1.0104  0.9843 -1.8931
 7428SOL    HW223726   4.127   6.185   1.471 -0.1315  0.6904 -0.9329
 7429SOL     OW23727   6.141   5.044   8.266 -0.0799 -0.4292  0.3953
 7429SOL    HW123728   6.105   5.033   8.178  0.2005  0.4226  0.1563
 7429SOL    HW223729   6.097   4.978   8.319  0.0435 -1.2271 -0.4700
 7430SOL     OW23730   2.653   4.415   0.202 -0.2451  0.4159  0.1859
 7430SOL    HW123731   2.726   4.471   0.173  0.1481  1.1271  2.4044
 7430SOL    HW223732   2.683   4.378   0.285 -0.7711 -2.6424 -0.8697
 7431SOL     OW23733   7.235   5.615   8.974  0.4602  0.1561  0.7325
 7431SOL    HW123734   7.184   5.552   8.924  1.5162 -2.1026  2.3060
 7431SOL    HW223735   7.219   5.592   9.066  3.5415 -0.1487  1.3249
 7432SOL     OW23736   2.618   6.852  10.601 -0.3056 -0.2990  0.1452
 7432SOL    HW123737   2.625   6.896  10.685 -1.8002  2.2019 -0.9160
 7432SOL    HW223738   2.644   6.918  10.537 -0.8314 -1.5597 -1.4589
 7433SOL     OW23739   5.636   3.002   8.015  0.3925  0.2125  0.1074
 7433SOL    HW123740   5.716   3.017   8.066 -0.7269 -1.0351  2.3823
 7433SOL    HW223741   5.667   2.990   7.925  2.5480  1.7284  0.5635
 7434SOL     OW23742   3.792   7.425   9.034 -0.6268  0.3833  0.2953
 7434SOL    HW123743   3.703   7.446   9.008 -0.1514 -0.1942 -2.0500
 7434SOL    HW223744   3.847   7.471   8.972  0.6036 -1.7972 -0.3572
 7435SOL     OW23745   2.789   7.508   2.967  0.2043  0.2582  0.3768
 7435SOL    HW123746   2.744   7.479   3.047  0.4342  0.9168  0.7549
 7435SOL    HW223747   2.771   7.439   2.903 -0.7057  0.1347  0.7430
 7436SOL     OW23748   6.468   6.071  12.003  0.3060 -0.3896  0.3271
 7436SOL    HW123749   6.463   5.987  11.957 -0.2713 -0.8293  1.1629
 7436SOL    HW223750   6.560   6.078  12.031  0.0799 -1.4169  1.4350
 7437SOL     OW23751   5.273   4.274   2.984  0.2677 -0.2977 -0.2348
 7437SOL    HW123752   5.321   4.192   2.978 -0.2605 -0.5707 -0.9161
 7437SOL    HW223753   5.236   4.286   2.896  1.3415  1.2816 -0.5323
 7438SOL     OW23754   3.166   1.562   1.962  0.4603  0.4380 -0.3784
 7438SOL    HW123755   3.089   1.542   1.909  1.2091  1.9471 -2.1560
 7438SOL    HW223756   3.132   1.610   2.037 -0.5320 -0.9471  0.1143
 7439SOL     OW23757   7.518   1.349  10.216 -0.0005 -0.7804  0.2385
 7439SOL    HW123758   7.462   1.328  10.291  1.3851 -2.8337  0.7626
 7439SOL    HW223759   7.486   1.435  10.186 -0.6068  0.1247  3.1458
 7440SOL     OW23760   5.272   7.075   6.338 -0.4735 -0.0308 -0.0526
 7440SOL    HW123761   5.269   7.051   6.430 -1.2803 -0.6080 -0.2133
 7440SOL    HW223762   5.221   7.156   6.332  0.3002  0.4783  0.1325
 7441SOL     OW23763   2.596   4.271   2.650 -0.1476 -0.1979  0.0714
 7441SOL    HW123764   2.556   4.299   2.732 -0.8391  0.8492 -0.5987
 7441SOL    HW223765   2.541   4.198   2.620  0.1364 -0.6161  0.5430
 7442SOL     OW23766   3.142   3.307  10.889  0.2606 -0.2101  0.3906
 7442SOL    HW123767   3.090   3.366  10.944 -0.1126  1.1343 -1.3332
 7442SOL    HW223768   3.228   3.305  10.932  0.2170  1.4385  0.6346
 7443SOL     OW23769   1.726   1.006   9.558  0.3864  0.5930 -0.1072
 7443SOL    HW123770   1.698   0.935   9.616 -1.6605  1.3079 -0.1543
 7443SOL    HW223771   1.764   0.961   9.482 -2.0355 -0.5620 -0.7346
 7444SOL     OW23772   1.147   3.888   1.408  0.6640  0.2601 -0.1868
 7444SOL    HW123773   1.126   3.977   1.434  0.6743  0.1034  0.3647
 7444SOL    HW223774   1.084   3.833   1.454 -0.5373  0.0920 -1.9432
 7445SOL     OW23775   1.667   5.186   0.932 -0.2632  0.1225 -0.2033
 7445SOL    HW123776   1.673   5.261   0.992  0.6522 -0.6216  0.6768
 7445SOL    HW223777   1.576   5.159   0.937 -0.5671  1.0610 -0.3918
 7446SOL     OW23778   5.847   3.069  10.679 -0.2975 -0.2560 -0.1004
 7446SOL    HW123779   5.848   3.049  10.772 -0.6943  1.7108  0.3806
 7446SOL    HW223780   5.937   3.097  10.660 -0.3515 -0.1377 -0.1803
 7447SOL     OW23781   2.693   4.391   4.969 -0.2441  0.6212 -0.5365
 7447SOL    HW123782   2.604   4.412   4.997 -0.2395 -0.5041  0.4202
 7447SOL    HW223783   2.747   4.406   5.047  0.1032 -0.4911 -0.5405
 7448SOL     OW23784   5.326   1.919   8.894  0.3440  0.0091 -0.3176
 7448SOL    HW123785   5.277   1.883   8.968  0.4582  0.6730  0.0964
 7448SOL    HW223786   5.272   1.899   8.817  1.1931 -2.5201 -0.3502
 7449SOL     OW23787   5.753   2.155   8.951  0.5787 -0.6307 -0.0458
 7449SOL    HW123788   5.745   2.159   8.855 -0.3544 -0.2985  0.0373
 7449SOL    HW223789   5.663   2.151   8.982  0.8770 -0.6717  0.8309
 7450SOL     OW23790   4.377   6.417   4.590  0.3959 -0.1200 -0.4400
 7450SOL    HW123791   4.419   6.345   4.637  0.5859 -0.9753 -1.8717
 7450SOL    HW223792   4.412   6.496   4.630 -1.2651 -0.7213  2.5126
 7451SOL     OW23793   7.181   6.003   7.390 -0.3917 -0.0509  0.8153
 7451SOL    HW123794   7.130   5.940   7.442 -0.0085 -0.6594  0.4712
 7451SOL    HW223795   7.229   6.055   7.455 -0.2004 -0.5571  1.0852
 7452SOL     OW23796   1.365   2.341   4.258 -0.4227 -0.0253 -0.0501
 7452SOL    HW123797   1.460   2.347   4.246 -0.1346 -0.9852  1.5022
 7452SOL    HW223798   1.329   2.346   4.169  1.1540 -0.9161 -0.7732
 7453SOL     OW23799   0.769   5.685   7.750 -0.1946  0.1809 -0.3874
 7453SOL    HW123800   0.832   5.757   7.741  0.3746 -0.2435  0.1551
 7453SOL    HW223801   0.745   5.685   7.842 -0.2221 -0.3085 -0.3927
 7454SOL     OW23802   3.153   1.874   1.740  0.5274 -0.0525 -0.5820
 7454SOL    HW123803   3.088   1.832   1.685  0.0310  0.0163 -0.0536
 7454SOL    HW223804   3.235   1.865   1.691  0.5338 -2.0230 -0.2825
 7455SOL     OW23805   3.257   7.438   4.102  0.3457 -0.2354  0.2010
 7455SOL    HW123806   3.345   7.467   4.128 -0.1706  1.2348  0.4117
 7455SOL    HW223807   3.245   7.476   4.015 -0.3588  0.1929  0.4800
 7456SOL     OW23808   7.257   7.496   8.007 -0.0602  0.4251 -0.9186
 7456SOL    HW123809   7.181   7.541   7.970 -1.2415  0.3484  1.2778
 7456SOL    HW223810   7.307   7.564   8.051 -0.8093 -0.0379  0.7179
 7457SOL     OW23811   3.301   2.232   4.740 -0.0578 -0.2340  0.3959
 7457SOL    HW123812   3.206   2.243   4.744 -0.0925 -0.8074  2.2370
 7457SOL    HW223813   3.330   2.238   4.831  1.6235 -0.5674 -0.0740
 7458SOL     OW23814   2.632   5.693   0.526 -0.6075  0.4499 -0.2666
 7458SOL    HW123815   2.607   5.602   0.512  0.0963  0.0811  0.7596
 7458SOL    HW223816   2.668   5.695   0.614  1.3347  1.2893 -1.0058
 7459SOL     OW23817   2.407   3.576  10.097 -0.1296 -0.3999  0.4162
 7459SOL    HW123818   2.396   3.644  10.031 -1.4521 -1.8198 -0.9159
 7459SOL    HW223819   2.477   3.608  10.153 -0.0670  1.6038 -0.7204
 7460SOL     OW23820   3.800   2.128   5.606  0.3483  0.3526 -0.3730
 7460SOL    HW123821   3.740   2.131   5.532 -0.0554  0.4604 -0.0465
 7460SOL    HW223822   3.790   2.214   5.647  0.2094  0.1207  0.0834
 7461SOL     OW23823   3.648   2.840   5.859  0.3501 -0.1082 -0.3004
 7461SOL    HW123824   3.664   2.804   5.772  0.5133  0.8130 -0.6536
 7461SOL    HW223825   3.580   2.906   5.846  0.4289  0.0872  0.2602
 7462SOL     OW23826   5.176   7.725  11.475 -0.4629  0.2336 -0.3047
 7462SOL    HW123827   5.107   7.778  11.513  0.0594  0.3059  0.5598
 7462SOL    HW223828   5.252   7.740  11.531 -0.5292 -2.0946  0.5200
 7463SOL     OW23829   4.427   7.636   3.984 -0.3888 -0.2033  0.4261
 7463SOL    HW123830   4.373   7.705   4.023 -0.7238 -0.3996  0.3185
 7463SOL    HW223831   4.485   7.682   3.923  1.6571  0.3943  2.6691
 7464SOL     OW23832   6.567   0.903   4.237 -0.1303  0.5173 -0.2395
 7464SOL    HW123833   6.611   0.988   4.240  1.2482  0.0133 -2.7532
 7464SOL    HW223834   6.592   0.867   4.151 -0.2266 -2.6593  0.9477
 7465SOL     OW23835   0.660   4.948   0.437  0.4418  0.2498  0.1658
 7465SOL    HW123836   0.737   4.906   0.474 -1.0635 -2.5231  0.3529
 7465SOL    HW223837   0.607   4.975   0.512  1.3369  2.5972  0.0532
 7466SOL     OW23838   5.877   2.295   9.582  0.3124  0.0181 -0.4868
 7466SOL    HW123839   5.818   2.240   9.634  0.4261  0.8272  0.5329
 7466SOL    HW223840   5.823   2.328   9.511  0.4121 -1.9428 -1.5409
 7467SOL     OW23841   0.853   5.327  10.220 -0.0580  0.0501 -0.0648
 7467SOL    HW123842   0.770   5.374  10.213 -0.3545 -0.1576  1.6155
 7467SOL    HW223843   0.839   5.265  10.292  1.4611 -0.1740  0.0671
 7468SOL     OW23844   7.678   7.379   5.454  0.2259  0.5036  0.7363
 7468SOL    HW123845   7.624   7.401   5.530 -0.7141  0.2396  0.1530
 7468SOL    HW223846   7.662   7.450   5.391 -0.0909  0.0001  0.2394
 7469SOL     OW23847   1.356   5.619   1.484 -0.2617  0.3522  0.0183
 7469SOL    HW123848   1.272   5.582   1.509 -0.2157 -1.1544 -1.7809
 7469SOL    HW223849   1.341   5.656   1.396  0.8630  0.3396 -0.2007
 7470SOL     OW23850   3.290   2.294   7.066 -0.5037 -0.4499  0.3929
 7470SOL    HW123851   3.290   2.369   7.124  1.2642 -0.4070  0.3862
 7470SOL    HW223852   3.378   2.257   7.074 -0.9614 -1.8210 -0.4947
 7471SOL     OW23853   7.822   5.990   3.392 -0.3952 -0.1458  0.3250
 7471SOL    HW123854   7.883   6.061   3.409  0.5476 -1.2496  1.8131
 7471SOL    HW223855   7.740   6.018   3.431 -0.3180  0.5303  0.0170
 7472SOL     OW23856   1.524   7.085   5.365  0.0292 -0.1676  0.1010
 7472SOL    HW123857   1.601   7.029   5.355 -1.2310 -1.6321 -2.9768
 7472SOL    HW223858   1.548   7.168   5.324  0.4924 -0.0340  0.6451
 7473SOL     OW23859   6.268   1.901  10.363  0.1381  1.0856  0.6746
 7473SOL    HW123860   6.282   1.991  10.392  1.0446  0.2882  2.9211
 7473SOL    HW223861   6.338   1.886  10.299  2.3126  0.9444  2.9253
 7474SOL     OW23862   1.064   1.276  12.284  0.0717 -0.1281 -0.1693
 7474SOL    HW123863   1.054   1.359  12.238 -3.5880 -0.8975 -1.1588
 7474SOL    HW223864   1.092   1.300  12.372 -0.6837  2.1583 -0.4756
 7475SOL     OW23865   7.621   3.918   5.781  0.1631 -0.3894  0.4190
 7475SOL    HW123866   7.704   3.962   5.800 -0.6542  1.6789 -0.4508
 7475SOL    HW223867   7.559   3.955   5.844 -0.8104  0.6890 -1.0878
 7476SOL     OW23868   3.340   2.396   6.628  0.5805 -0.1547  0.2244
 7476SOL    HW123869   3.322   2.321   6.571  1.4418 -0.0838 -0.1515
 7476SOL    HW223870   3.385   2.459   6.571 -1.7817  1.4650  0.0041
 7477SOL     OW23871   7.287   5.280   1.934 -0.1597  0.5213 -0.0212
 7477SOL    HW123872   7.275   5.312   2.023 -1.5373 -0.2884  0.1084
 7477SOL    HW223873   7.374   5.312   1.909  0.0842  1.1037  1.4516
 7478SOL     OW23874   6.469   1.544   8.204 -0.7822 -0.1261 -0.5743
 7478SOL    HW123875   6.533   1.475   8.188  3.1278  2.9071  0.2691
 7478SOL    HW223876   6.421   1.515   8.281  0.1148 -2.2355 -0.7382
 7479SOL     OW23877   4.890   0.839   0.070  0.2286 -0.2912 -0.1743
 7479SOL    HW123878   4.967   0.812   0.020 -0.9775 -1.1190 -1.6700
 7479SOL    HW223879   4.844   0.900   0.013 -1.2000 -1.2800 -0.1328
 7480SOL     OW23880   3.031   6.672   9.940  0.8373 -0.0835 -0.0564
 7480SOL    HW123881   3.073   6.586   9.943 -0.8712 -1.0523 -1.4463
 7480SOL    HW223882   3.074   6.717   9.867 -0.2447 -0.9666 -1.2977
 7481SOL     OW23883   6.299   2.702   3.418  0.0139  0.0635  0.1952
 7481SOL    HW123884   6.293   2.625   3.475 -0.7264  0.1935  0.3034
 7481SOL    HW223885   6.391   2.706   3.392  0.5621  0.4820  2.0477
 7482SOL     OW23886   6.046   7.422   2.865  0.1189  0.2011  0.0282
 7482SOL    HW123887   6.099   7.343   2.866  0.2125  0.2647  1.0481
 7482SOL    HW223888   5.990   7.415   2.943 -2.3661 -0.5323 -1.6944
 7483SOL     OW23889   5.490   1.384   8.448  0.1368 -0.2565  0.1900
 7483SOL    HW123890   5.419   1.377   8.384 -0.8454 -1.0036  1.3228
 7483SOL    HW223891   5.455   1.439   8.517  1.1106  0.3653  0.2156
 7484SOL     OW23892   5.722   4.963   4.319 -0.2846 -0.5499  0.0298
 7484SOL    HW123893   5.740   4.877   4.358  0.3175 -0.1904  0.5684
 7484SOL    HW223894   5.701   5.019   4.394  3.3780  0.7965  0.2458
 7485SOL     OW23895   1.772   6.118   3.926  0.1478 -0.2889 -0.0449
 7485SOL    HW123896   1.774   6.091   4.017  1.1008 -3.0308 -0.7958
 7485SOL    HW223897   1.685   6.092   3.895  0.7048 -1.6724 -0.5111
 7486SOL     OW23898   0.203   3.848   3.163  0.3561 -0.5552 -0.0456
 7486SOL    HW123899   0.296   3.828   3.151  0.4866  0.0174 -0.0148
 7486SOL    HW223900   0.183   3.817   3.251  0.4207 -1.0330 -0.1972
 7487SOL     OW23901   4.591   1.888   7.979 -0.1539  0.0198 -0.4963
 7487SOL    HW123902   4.546   1.926   8.054  0.7600 -0.0816  0.1154
 7487SOL    HW223903   4.615   1.963   7.924  0.1859  0.1886 -0.1179
 7488SOL     OW23904   0.518   0.956  11.188 -0.4340  0.4937  0.8114
 7488SOL    HW123905   0.585   0.949  11.120 -0.0588  1.1124  1.1013
 7488SOL    HW223906   0.489   0.866  11.203 -0.2108  0.3039  0.1467
 7489SOL     OW23907   7.173   6.497   1.811 -0.1205 -0.0155 -0.4377
 7489SOL    HW123908   7.089   6.460   1.836 -0.5860  0.4093 -1.3082
 7489SOL    HW223909   7.157   6.592   1.805  0.3300  0.0391 -0.8990
 7490SOL     OW23910   1.166   1.246   9.943 -0.6359  0.3462  0.4280
 7490SOL    HW123911   1.229   1.281  10.006 -0.9749  0.9251  0.4578
 7490SOL    HW223912   1.095   1.311   9.942 -0.4319  0.5813 -0.8591
 7491SOL     OW23913   0.607   0.785   3.232 -0.3082  0.4041 -0.4048
 7491SOL    HW123914   0.660   0.805   3.154 -1.1368  2.1640 -0.5656
 7491SOL    HW223915   0.517   0.785   3.200 -0.8256  3.0021  0.8083
 7492SOL     OW23916   5.942   2.979   5.868 -0.0550 -0.1819  0.3908
 7492SOL    HW123917   5.890   3.027   5.804  0.1881 -0.4962 -0.0502
 7492SOL    HW223918   5.886   2.905   5.894 -0.3050  0.1589  0.8340
 7493SOL     OW23919   7.154   2.520   0.370  0.1147 -0.5383  0.2865
 7493SOL    HW123920   7.167   2.429   0.397 -1.0157 -0.7056  0.3049
 7493SOL    HW223921   7.187   2.523   0.280  0.0239 -1.0040  0.2355
 7494SOL     OW23922   2.460   1.069   3.386  0.0554 -0.0332 -0.0910
 7494SOL    HW123923   2.377   1.065   3.339  0.8457  0.4962 -1.6130
 7494SOL    HW223924   2.443   1.128   3.460 -0.5784  1.2257 -1.1881
 7495SOL     OW23925   5.661   0.282   8.559 -0.6383 -0.5327  0.4180
 7495SOL    HW123926   5.578   0.291   8.511 -0.0258  0.8920 -0.4476
 7495SOL    HW223927   5.728   0.306   8.495  0.4102 -0.9994  1.3051
 7496SOL     OW23928   0.413   2.257   2.696 -0.2098  0.7029 -0.3003
 7496SOL    HW123929   0.451   2.193   2.636 -0.1205  0.7606 -0.3060
 7496SOL    HW223930   0.483   2.322   2.709  0.5137 -0.3769  1.4922
 7497SOL     OW23931   6.939   6.902   2.123  0.2364  0.5378 -0.3189
 7497SOL    HW123932   6.860   6.908   2.178 -1.0897  1.0446 -2.1613
 7497SOL    HW223933   6.957   6.808   2.118  1.0934  0.5296  1.8571
 7498SOL     OW23934   1.584   4.036   7.267  0.0107 -0.0469  0.2630
 7498SOL    HW123935   1.510   3.987   7.232 -0.5325  1.3700 -0.6398
 7498SOL    HW223936   1.659   4.004   7.216 -0.6157  1.2722 -1.6279
 7499SOL     OW23937   7.190   5.768   6.956  0.1148  0.0572 -1.0595
 7499SOL    HW123938   7.268   5.756   7.011  0.5911 -0.1606 -1.7672
 7499SOL    HW223939   7.129   5.817   7.011  1.9038  3.0519 -1.4989
 7500SOL     OW23940   6.009   1.670   9.260 -0.3443  0.2315 -0.0629
 7500SOL    HW123941   5.971   1.734   9.321 -0.1994  0.4304 -0.1790
 7500SOL    HW223942   6.025   1.721   9.180  0.1957  0.1538 -0.0042
 7501SOL     OW23943   7.746   4.494   1.555 -0.5300  0.5071  0.0783
 7501SOL    HW123944   7.657   4.501   1.589 -0.5954  1.3033 -0.2456
 7501SOL    HW223945   7.777   4.584   1.548 -0.2190  0.3295 -1.1803
 7502SOL     OW23946   2.146   7.017   8.529 -0.0663  0.1255  0.0705
 7502SOL    HW123947   2.225   7.070   8.545  0.1798 -0.5900  1.3767
 7502SOL    HW223948   2.078   7.059   8.581 -0.6126  0.7898 -1.1192
 7503SOL     OW23949   1.518   4.794   5.922  0.2125  0.2589  0.1258
 7503SOL    HW123950   1.432   4.785   5.963 -1.1258  0.1841 -2.4710
 7503SOL    HW223951   1.580   4.789   5.994 -1.9305 -0.2067  2.0430
 7504SOL     OW23952   4.091   2.502  11.688 -0.2248 -0.0385  0.0887
 7504SOL    HW123953   3.996   2.497  11.672 -0.1018  1.7031 -1.5180
 7504SOL    HW223954   4.099   2.551  11.770 -0.7115 -0.0801  0.1638
 7505SOL     OW23955   5.691   2.122  10.511 -0.2652 -0.8120  0.0121
 7505SOL    HW123956   5.652   2.081  10.589 -0.2702 -0.2050  0.3373
 7505SOL    HW223957   5.775   2.156  10.542 -0.5447 -0.0093 -0.0803
 7506SOL     OW23958   3.902   3.874  12.343  0.2981 -0.1523  0.1544
 7506SOL    HW123959   3.949   3.931  12.282  0.3470  0.3162  0.6243
 7506SOL    HW223960   3.869   3.932  12.411 -2.2573 -0.2451 -0.9099
 7507SOL     OW23961   6.063   6.501   7.451 -0.0485  0.1984 -0.0069
 7507SOL    HW123962   6.158   6.508   7.451 -0.1089  1.4348  1.1746
 7507SOL    HW223963   6.036   6.543   7.369  0.3672  1.2677  0.3809
 7508SOL     OW23964   6.577   1.328   6.776  1.2182 -0.0751  0.3336
 7508SOL    HW123965   6.635   1.265   6.821 -0.3414 -1.5053  0.4452
 7508SOL    HW223966   6.637   1.392   6.738  2.8774 -1.4233  0.5328
 7509SOL     OW23967   2.366   4.956   6.160 -0.5130 -0.1975 -0.0394
 7509SOL    HW123968   2.438   4.984   6.104  0.2510  0.1805  1.1074
 7509SOL    HW223969   2.400   4.881   6.208 -1.0927 -0.4053  0.0594
 7510SOL     OW23970   2.668   2.000  10.382 -0.0563  0.4900  0.1491
 7510SOL    HW123971   2.578   1.981  10.407 -0.0047  1.0553  0.8133
 7510SOL    HW223972   2.710   1.915  10.375 -0.3275  0.2762  1.0704
 7511SOL     OW23973   2.130   6.938  10.391 -0.4058  0.0856 -0.5965
 7511SOL    HW123974   2.223   6.952  10.375 -0.5349 -0.8424 -2.5116
 7511SOL    HW223975   2.128   6.869  10.457  0.3438 -1.3367 -1.9784
 7512SOL     OW23976   2.864   0.162   6.062 -0.0887 -0.0926 -0.0118
 7512SOL    HW123977   2.824   0.243   6.032 -2.1167 -0.3267  1.8141
 7512SOL    HW223978   2.890   0.181   6.152  1.1033 -0.9405 -0.1548
 7513SOL     OW23979   2.312   4.525   1.242 -0.1393 -0.1681 -0.2478
 7513SOL    HW123980   2.352   4.451   1.195  1.0626 -0.4547  1.1446
 7513SOL    HW223981   2.248   4.484   1.300 -0.1334 -0.0370 -0.1483
 7514SOL     OW23982   7.979   1.065   3.534 -0.3532 -0.2720 -0.0100
 7514SOL    HW123983   7.990   0.989   3.476 -0.6729 -0.6215  0.3850
 7514SOL    HW223984   8.054   1.121   3.514 -0.8508 -0.0248 -1.3172
 7515SOL     OW23985   6.603   2.133   8.761 -0.3358 -0.0451 -0.1131
 7515SOL    HW123986   6.561   2.085   8.832  1.9113 -1.2786  0.4966
 7515SOL    HW223987   6.531   2.171   8.711 -2.0591 -0.9400  1.5756
 7516SOL     OW23988   7.138   3.583   5.696 -0.7583 -0.4365 -0.3821
 7516SOL    HW123989   7.231   3.569   5.713 -0.6021  0.3758 -0.5285
 7516SOL    HW223990   7.122   3.538   5.612 -0.1006  0.8469 -1.2302
 7517SOL     OW23991   3.821   7.941   5.575 -0.3524 -0.2607 -0.3872
 7517SOL    HW123992   3.743   7.884   5.578 -0.0891 -0.6105  2.7390
 7517SOL    HW223993   3.894   7.881   5.587  0.4377  0.1769 -2.5304
 7518SOL     OW23994   6.097   5.546  11.843 -0.5758 -0.0235 -0.1246
 7518SOL    HW123995   6.003   5.565  11.851 -0.0692  2.4259  1.1568
 7518SOL    HW223996   6.138   5.605  11.906  1.7617 -2.0104  0.3383
 7519SOL     OW23997   1.868   3.832   8.388 -0.2810 -0.3016  0.1921
 7519SOL    HW123998   1.875   3.865   8.478  1.4001  1.9972 -0.6749
 7519SOL    HW223999   1.936   3.880   8.340 -2.0635 -0.3784 -2.6179
 7520SOL     OW24000   5.264   6.932   5.486 -0.0286 -0.4891  0.1076
 7520SOL    HW124001   5.232   6.996   5.550  0.5778 -0.5043  0.4383
 7520SOL    HW224002   5.340   6.893   5.528 -1.1189 -2.3574  0.4650
 7521SOL     OW24003   7.769   2.349   7.825 -0.4050 -0.5080 -0.3368
 7521SOL    HW124004   7.778   2.314   7.913 -0.9663  0.5950  0.1883
 7521SOL    HW224005   7.841   2.411   7.816  0.0442 -1.0954 -0.9132
 7522SOL     OW24006   6.390   6.843   9.238  0.2395 -0.0840  0.0650
 7522SOL    HW124007   6.379   6.811   9.149  1.1932  1.2005 -0.5429
 7522SOL    HW224008   6.482   6.870   9.243  0.1851 -0.0478  1.4084
 7523SOL     OW24009   6.242   3.572   1.236  0.3419  0.2836  0.3424
 7523SOL    HW124010   6.163   3.519   1.236  1.3072 -1.2896 -1.6721
 7523SOL    HW224011   6.268   3.578   1.328 -1.3041 -0.3782  0.8727
 7524SOL     OW24012   5.585   2.841   0.283 -0.0436 -0.0198 -0.2996
 7524SOL    HW124013   5.565   2.769   0.222  0.5090  0.5981 -1.2359
 7524SOL    HW224014   5.521   2.908   0.263 -0.0736  0.0533  0.0396
 7525SOL     OW24015   7.203   3.645   3.603  0.6542  0.1836 -0.0815
 7525SOL    HW124016   7.198   3.618   3.512  0.2883 -1.0199  0.2831
 7525SOL    HW224017   7.152   3.727   3.606  0.0781 -0.1357 -0.8247
 7526SOL     OW24018   1.911   7.950   3.803 -0.4386  0.0616  0.2072
 7526SOL    HW124019   1.824   7.945   3.841 -2.0025  0.4872 -3.0161
 7526SOL    HW224020   1.920   7.869   3.752  0.6146  0.4854 -0.3158
 7527SOL     OW24021   7.833   2.419   8.511 -0.8450  0.3007  0.1921
 7527SOL    HW124022   7.793   2.333   8.523 -0.8129  0.6060  3.4359
 7527SOL    HW224023   7.805   2.469   8.588  1.8015  2.1229  0.0890
 7528SOL     OW24024   7.969   4.371   9.505 -0.4912 -0.1061 -0.1070
 7528SOL    HW124025   7.915   4.335   9.575 -1.0816  1.0579  0.0522
 7528SOL    HW224026   7.915   4.364   9.426 -0.7106  0.6609 -0.0287
 7529SOL     OW24027   2.413   4.830   8.326  0.1716  0.0192  0.4601
 7529SOL    HW124028   2.343   4.893   8.311 -0.2027 -0.3961  0.4530
 7529SOL    HW224029   2.434   4.797   8.239 -0.1101 -0.3714  0.5391
 7530SOL     OW24030   2.215   1.530   6.438 -0.3651 -0.1802 -0.7185
 7530SOL    HW124031   2.265   1.527   6.356  0.7987  1.5432 -0.1397
 7530SOL    HW224032   2.187   1.621   6.446 -0.9373 -0.4413  0.5198
 7531SOL     OW24033   0.952   4.332  10.712  0.4367  0.2961 -0.1566
 7531SOL    HW124034   0.910   4.265  10.658 -0.3825  1.4737 -1.0469
 7531SOL    HW224035   0.887   4.403  10.716  1.0303  0.7807  1.2766
 7532SOL     OW24036   7.698   3.403   5.640 -0.1791 -0.3555 -0.4005
 7532SOL    HW124037   7.723   3.355   5.720 -1.5907  0.9288  0.8883
 7532SOL    HW224038   7.651   3.338   5.587  1.5042 -1.4555 -0.6242
 7533SOL     OW24039   6.918   1.649   3.377  0.4540  0.1863  0.6353
 7533SOL    HW124040   6.950   1.735   3.349 -0.5761  0.7051  1.0015
 7533SOL    HW224041   6.834   1.667   3.418  0.5061 -0.9308  1.2725
 7534SOL     OW24042   4.545   3.304   0.754  0.3392  0.5206 -0.3485
 7534SOL    HW124043   4.634   3.300   0.719  0.4795 -1.0725  0.1239
 7534SOL    HW224044   4.547   3.379   0.814  1.6556 -0.0507  0.3699
 7535SOL     OW24045   5.647   7.792   9.660 -0.1889  0.0590  0.5467
 7535SOL    HW124046   5.586   7.741   9.606 -0.9112 -0.8682  2.1702
 7535SOL    HW224047   5.605   7.878   9.669  0.1123  0.3544 -0.6165
 7536SOL     OW24048   1.336   4.561   5.699 -0.7217  0.6786  0.2683
 7536SOL    HW124049   1.314   4.652   5.717  0.8121  0.7947  1.8636
 7536SOL    HW224050   1.413   4.566   5.642  1.7571  0.5791  3.3157
 7537SOL     OW24051   4.180   6.580   7.547  0.2790  0.1834 -0.1572
 7537SOL    HW124052   4.268   6.549   7.529  0.6202 -0.9173  2.8528
 7537SOL    HW224053   4.182   6.673   7.527  2.3626  0.3417  0.5770
 7538SOL     OW24054   2.039   7.849   7.721 -0.5923  0.0694 -0.1195
 7538SOL    HW124055   2.038   7.773   7.663 -1.4535 -0.4625  0.5753
 7538SOL    HW224056   2.124   7.845   7.764 -0.2971 -0.0199 -0.6941
 7539SOL     OW24057   6.083   3.502   9.880 -0.1046 -0.1375 -0.5132
 7539SOL    HW124058   6.173   3.473   9.867 -0.0904  0.3822 -1.7565
 7539SOL    HW224059   6.078   3.586   9.834 -0.9246  0.3942  0.5120
 7540SOL     OW24060   6.602   3.512   5.467 -0.1959 -0.1799 -0.4093
 7540SOL    HW124061   6.695   3.490   5.473 -0.2422 -0.3771 -0.3961
 7540SOL    HW224062   6.566   3.484   5.551 -0.4411 -0.9508 -0.7642
 7541SOL     OW24063   5.353   3.006  11.052 -0.5816 -0.6771  0.0102
 7541SOL    HW124064   5.307   3.071  10.998  0.8821 -0.4948 -1.0793
 7541SOL    HW224065   5.422   2.972  10.995 -0.9611 -2.8215  0.7445
 7542SOL     OW24066   3.018   6.873   4.070  0.0457 -0.2030  0.1157
 7542SOL    HW124067   3.073   6.827   4.135  0.3846  0.8707  0.6097
 7542SOL    HW224068   2.993   6.954   4.113  1.3227  1.1433 -1.5279
 7543SOL     OW24069   5.094   6.534   6.065 -0.7347  0.1045  0.1735
 7543SOL    HW124070   5.021   6.474   6.078 -1.3929 -0.1644 -3.5160
 7543SOL    HW224071   5.054   6.611   6.024  0.9432 -0.1438 -2.1757
 7544SOL     OW24072   6.352   3.398  12.088  0.6431  0.0497 -0.2324
 7544SOL    HW124073   6.423   3.445  12.046  1.0493 -0.5859 -0.2562
 7544SOL    HW224074   6.274   3.422  12.038  1.1992 -1.1792 -1.7536
 7545SOL     OW24075   1.953   5.137   0.970  0.1597 -0.0883 -0.0522
 7545SOL    HW124076   1.972   5.162   1.061  0.6473  1.2546 -0.4944
 7545SOL    HW224077   1.864   5.169   0.954  0.2601  0.1325 -0.1860
 7546SOL     OW24078   6.051   4.801  12.219 -0.5792  0.2880 -0.0888
 7546SOL    HW124079   6.144   4.814  12.236 -0.9623  1.5582  1.3134
 7546SOL    HW224080   6.047   4.730  12.156  1.3421  0.2825 -0.2471
 7547SOL     OW24081   1.285   7.092   9.783  0.6121  0.7820  0.6556
 7547SOL    HW124082   1.342   7.165   9.807  1.1732  0.5816 -0.0488
 7547SOL    HW224083   1.197   7.129   9.782  0.9384  1.5486 -0.1122
 7548SOL     OW24084   3.960   4.969   7.803  0.2854  0.0156  0.1580
 7548SOL    HW124085   3.875   4.955   7.845  0.0813 -1.8330 -0.7842
 7548SOL    HW224086   4.003   4.884   7.806  1.7574  0.7020 -0.2062
 7549SOL     OW24087   3.317   0.788   8.500 -0.0662 -0.3568 -0.3736
 7549SOL    HW124088   3.278   0.817   8.583 -0.4558  1.9558 -1.2769
 7549SOL    HW224089   3.406   0.823   8.502  0.3133 -1.2877 -0.4715
 7550SOL     OW24090   6.780   1.600   6.823 -0.7264 -0.4651 -0.1463
 7550SOL    HW124091   6.832   1.528   6.861  1.0167  0.5607 -0.4616
 7550SOL    HW224092   6.795   1.674   6.881 -1.7278 -0.0888 -0.3495
 7551SOL     OW24093   6.312   4.230   9.745 -0.0260 -0.1788 -0.3053
 7551SOL    HW124094   6.394   4.187   9.767  0.9441  1.3600 -0.8007
 7551SOL    HW224095   6.309   4.229   9.649 -2.1516 -2.9914 -0.3751
 7552SOL     OW24096   3.061   1.474   1.410  0.4435 -0.7771  0.1712
 7552SOL    HW124097   3.099   1.451   1.325 -0.8477 -0.2675 -0.5726
 7552SOL    HW224098   3.069   1.570   1.414  1.1236 -0.8543  0.9522
 7553SOL     OW24099   4.517   0.367   6.970  0.4570  0.4071 -0.2215
 7553SOL    HW124100   4.523   0.306   6.897 -1.8816 -1.3999  0.9372
 7553SOL    HW224101   4.436   0.416   6.954  0.5455  0.8254  0.5380
 7554SOL     OW24102   3.725   3.026   6.040  0.6162 -0.2961  0.2996
 7554SOL    HW124103   3.783   2.976   6.098  1.3069  0.3219  0.1533
 7554SOL    HW224104   3.710   2.968   5.965 -0.5892 -1.2567  1.2405
 7555SOL     OW24105   4.687   6.316   4.425  0.0830  0.2901 -0.4584
 7555SOL    HW124106   4.634   6.236   4.424 -0.6944  0.7674  0.4369
 7555SOL    HW224107   4.627   6.385   4.399  0.6074  0.6682 -0.6832
 7556SOL     OW24108   3.040   4.382   6.739  0.2452  0.4284  0.4703
 7556SOL    HW124109   3.065   4.395   6.830  1.0875 -1.1431  0.5014
 7556SOL    HW224110   3.053   4.288   6.724 -0.1979  0.5973 -1.1767
 7557SOL     OW24111   6.797   5.170  11.266  0.5461  0.4802 -0.1730
 7557SOL    HW124112   6.831   5.257  11.286  0.5703  0.1198  1.4555
 7557SOL    HW224113   6.743   5.147  11.342 -0.3431 -0.4880 -1.0598
 7558SOL     OW24114   7.787   2.618  10.900  0.5852  0.0581  0.0811
 7558SOL    HW124115   7.862   2.665  10.862  1.6882 -1.3803  0.3752
 7558SOL    HW224116   7.827   2.548  10.952 -0.9533  0.4578  1.8670
 7559SOL     OW24117   7.947   7.397   0.845 -0.3134  0.2994  0.1213
 7559SOL    HW124118   7.889   7.438   0.909 -0.7585  0.9973 -0.7125
 7559SOL    HW224119   7.899   7.320   0.815 -1.6846  1.8325 -1.8981
 7560SOL     OW24120   5.338   0.455  10.587  0.2122  0.1647  0.0816
 7560SOL    HW124121   5.255   0.498  10.567 -0.0208 -0.3593 -0.0983
 7560SOL    HW224122   5.387   0.520  10.636 -0.1760  0.5970 -0.0907
 7561SOL     OW24123   2.064   7.926  10.060  0.3976  0.5156 -1.0183
 7561SOL    HW124124   2.091   7.835  10.070  0.8558  0.8978  2.1525
 7561SOL    HW224125   2.067   7.962  10.148 -0.3910  3.4612 -2.0758
 7562SOL     OW24126   7.683   4.343   9.991 -0.5968  0.2895 -0.3422
 7562SOL    HW124127   7.641   4.261   9.968 -1.8459  1.6240 -3.3334
 7562SOL    HW224128   7.627   4.381  10.059  0.2676 -1.4748  1.4218
 7563SOL     OW24129   0.331   2.498   6.122  0.1190 -0.5329 -0.4091
 7563SOL    HW124130   0.356   2.548   6.044  1.0944 -0.9023 -0.3381
 7563SOL    HW224131   0.268   2.555   6.166  0.5001  0.2324 -0.8181
 7564SOL     OW24132   1.288   0.435   6.021 -0.3300  0.0692 -0.5117
 7564SOL    HW124133   1.362   0.495   6.035  0.0013 -0.6072  0.7870
 7564SOL    HW224134   1.211   0.486   6.044 -0.3190  0.8155 -1.9709
 7565SOL     OW24135   3.567   5.086   0.672  0.2118 -0.2721  0.3382
 7565SOL    HW124136   3.626   5.150   0.711 -0.4756  0.1076  0.7627
 7565SOL    HW224137   3.479   5.116   0.695 -0.1239 -2.5697  2.5382
 7566SOL     OW24138   1.522   5.274   3.024 -0.2009 -1.0758 -0.0114
 7566SOL    HW124139   1.474   5.247   3.102  0.0023 -2.1301 -0.2358
 7566SOL    HW224140   1.472   5.349   2.990 -2.0090 -2.4294 -0.5170
 7567SOL     OW24141   3.644   1.097  11.356  0.3992  0.3963 -0.0494
 7567SOL    HW124142   3.549   1.108  11.361  0.6289  2.4220  1.3030
 7567SOL    HW224143   3.665   1.103  11.263 -0.9852 -2.8942 -0.7014
 7568SOL     OW24144   1.238   4.284   5.152 -0.1647  0.4270 -0.5920
 7568SOL    HW124145   1.240   4.201   5.200  1.1563 -1.1457 -3.1674
 7568SOL    HW224146   1.316   4.330   5.181  0.2258 -0.1702 -0.6729
 7569SOL     OW24147   5.473   6.515   7.885  0.1419 -0.4228  0.2071
 7569SOL    HW124148   5.445   6.585   7.826  0.3865 -0.1907  0.3660
 7569SOL    HW224149   5.472   6.436   7.831 -2.5586 -0.7726  0.6046
 7570SOL     OW24150   3.119   0.090   4.768  0.0315 -0.3261  0.5860
 7570SOL    HW124151   3.165   0.027   4.824  1.6623 -0.5500 -0.9119
 7570SOL    HW224152   3.147   0.175   4.799 -0.8234 -0.3596  1.5038
 7571SOL     OW24153   6.130   2.596  10.395 -0.0737 -0.2172 -0.0421
 7571SOL    HW124154   6.067   2.561  10.458  0.7809  0.5639  1.3013
 7571SOL    HW224155   6.134   2.689  10.413  1.3849 -0.2219 -0.1486
 7572SOL     OW24156   5.684   3.974   8.965  0.0800 -0.2060 -0.3906
 7572SOL    HW124157   5.597   3.978   9.006  0.9950 -0.7201  1.7544
 7572SOL    HW224158   5.699   3.881   8.950  0.9769 -0.3211  1.0121
 7573SOL     OW24159   3.946   7.914  11.180 -0.0579  0.4741 -0.8408
 7573SOL    HW124160   3.879   7.982  11.171 -1.6357 -0.6263  1.5417
 7573SOL    HW224161   3.957   7.880  11.092 -2.8615  0.5601 -1.3242
 7574SOL     OW24162   1.516   6.585   8.139  0.0381 -0.5163  0.3130
 7574SOL    HW124163   1.472   6.505   8.112  0.9743 -1.2826  0.9744
 7574SOL    HW224164   1.516   6.582   8.234 -1.2387  1.0336  0.3933
 7575SOL     OW24165   4.301   0.140  12.102 -0.7395 -0.6835  0.3299
 7575SOL    HW124166   4.325   0.212  12.043  1.9361 -0.7323  1.1979
 7575SOL    HW224167   4.343   0.063  12.064 -1.0106 -1.1815  1.0125
 7576SOL     OW24168   0.113   2.518  11.677  0.1554  0.0962  0.0036
 7576SOL    HW124169   0.063   2.479  11.605 -0.4824 -0.8250  0.9232
 7576SOL    HW224170   0.202   2.524  11.643 -0.0567 -0.6911 -0.7319
 7577SOL     OW24171   0.708   6.548   5.169  0.4507  0.2899 -0.0143
 7577SOL    HW124172   0.733   6.579   5.257  1.3193  1.1806 -0.5545
 7577SOL    HW224173   0.661   6.466   5.186 -1.4655  1.5885  1.4235
 7578SOL     OW24174   3.472   5.985   7.668  0.5080 -0.0965  0.1166
 7578SOL    HW124175   3.439   5.925   7.601  0.9651 -0.3775  0.1392
 7578SOL    HW224176   3.504   6.060   7.619 -0.8563  0.5267  0.1384
 7579SOL     OW24177   7.943   3.735   9.186 -0.3309  0.0249 -0.1075
 7579SOL    HW124178   7.847   3.744   9.185 -0.6293 -2.1610  1.3248
 7579SOL    HW224179   7.959   3.659   9.243  2.1723 -0.7092 -1.6307
 7580SOL     OW24180   0.093   4.134   3.427  0.2836  0.3454 -0.3561
 7580SOL    HW124181   0.074   4.055   3.377  2.1446  0.4262 -1.2898
 7580SOL    HW224182   0.032   4.200   3.392  1.1795  0.2653 -2.2360
 7581SOL     OW24183   0.750   6.732   0.719 -0.4631  0.0389 -0.4240
 7581SOL    HW124184   0.751   6.690   0.633  0.1875 -0.0139 -0.3965
 7581SOL    HW224185   0.743   6.826   0.699 -0.8471 -0.0067 -0.5156
 7582SOL     OW24186   6.721   2.318  12.273  0.5182 -0.1229 -0.3691
 7582SOL    HW124187   6.804   2.335  12.230  0.6466  0.6122  0.1539
 7582SOL    HW224188   6.682   2.404  12.285  0.4555 -0.3070  0.9032
 7583SOL     OW24189   7.830   6.401   0.273 -0.4112 -0.3010 -0.0648
 7583SOL    HW124190   7.908   6.406   0.218 -2.1290 -0.5966 -2.6920
 7583SOL    HW224191   7.814   6.491   0.301 -0.1383  0.0511 -1.0194
 7584SOL     OW24192   2.629   2.011   6.563 -0.2222  0.0486 -0.2489
 7584SOL    HW124193   2.611   1.983   6.473  3.2289 -0.2503 -1.0025
 7584SOL    HW224194   2.659   1.931   6.607 -1.1176  0.3574  0.9515
 7585SOL     OW24195   5.363   3.495  12.456  0.5005  0.0524 -0.5478
 7585SOL    HW124196   5.320   3.578  12.437  0.2013  0.2259  0.7849
 7585SOL    HW224197   5.429   3.516  12.522  2.0582 -0.3701 -1.8850
 7586SOL     OW24198   6.371   2.729  10.502  0.1201  0.1501  0.5724
 7586SOL    HW124199   6.349   2.811  10.547 -0.3660  0.7248 -0.6549
 7586SOL    HW224200   6.448   2.751  10.449 -1.0351  0.3558 -1.1149
 7587SOL     OW24201   7.541   7.095   4.422 -0.0777 -0.2246 -0.0600
 7587SOL    HW124202   7.549   7.141   4.505  0.4182 -1.9012  0.8591
 7587SOL    HW224203   7.487   7.018   4.442  0.1705 -0.7318 -1.2471
 7588SOL     OW24204   6.285   7.010   2.017  0.1583  0.3172  0.0859
 7588SOL    HW124205   6.371   6.971   2.000 -0.4901 -0.8848 -0.6068
 7588SOL    HW224206   6.249   7.026   1.930 -1.5077 -1.9796  0.2560
 7589SOL     OW24207   3.611   7.294   0.475 -0.2113  0.2690 -0.0307
 7589SOL    HW124208   3.636   7.364   0.535  0.3773 -0.1870  0.2639
 7589SOL    HW224209   3.532   7.326   0.432 -1.4295  0.0775  1.9379
 7590SOL     OW24210   4.189   2.691  11.879  0.5161  0.1731  0.5714
 7590SOL    HW124211   4.159   2.771  11.836 -0.0005 -0.5872 -0.5363
 7590SOL    HW224212   4.264   2.663  11.828  0.6126 -0.1199  0.8728
 7591SOL     OW24213   0.971   4.809   1.977 -0.1877 -0.0196  1.3213
 7591SOL    HW124214   1.060   4.827   2.009 -0.4113  1.0516  1.3923
 7591SOL    HW224215   0.928   4.895   1.979 -0.9032 -0.3417  0.2877
 7592SOL     OW24216   7.497   6.042   2.665 -0.0498 -0.1191 -0.2067
 7592SOL    HW124217   7.538   5.958   2.686  0.2883 -0.0345 -0.5243
 7592SOL    HW224218   7.404   6.022   2.658  0.1544 -0.7246 -1.5160
 7593SOL     OW24219   5.820   0.470   3.150 -0.5056  0.0104  0.1670
 7593SOL    HW124220   5.824   0.498   3.241 -0.4010 -0.4493  0.3072
 7593SOL    HW224221   5.803   0.376   3.155 -1.2645  0.1076 -0.2939
 7594SOL     OW24222   7.122   6.081  11.457  0.0358  0.2008  0.1909
 7594SOL    HW124223   7.027   6.075  11.445 -0.0563  1.6013  0.0867
 7594SOL    HW224224   7.145   6.001  11.504 -1.3149  0.2135  0.9300
 7595SOL     OW24225   4.861   0.073   1.855  0.0196 -0.2984 -0.5790
 7595SOL    HW124226   4.865   0.048   1.762 -1.3335 -1.2761 -0.3895
 7595SOL    HW224227   4.786   0.132   1.861  0.5748  0.3953 -0.2194
 7596SOL     OW24228   0.575   7.653   7.524 -0.0616  0.8266 -0.2758
 7596SOL    HW124229   0.607   7.683   7.439  2.2967  0.6567  0.4755
 7596SOL    HW224230   0.591   7.727   7.583  3.4010 -0.7389  1.0526
 7597SOL     OW24231   4.450   7.381   4.044  0.0452 -0.1983  0.2416
 7597SOL    HW124232   4.459   7.475   4.026  0.2716 -0.4160 -0.8747
 7597SOL    HW224233   4.355   7.368   4.053  0.1128  0.4894  2.6157
 7598SOL     OW24234   6.844   6.189  10.847 -0.0943  0.3612 -0.3362
 7598SOL    HW124235   6.783   6.158  10.913 -0.6102 -0.8459 -1.3300
 7598SOL    HW224236   6.848   6.283  10.860 -0.3040  0.1669  1.2910
 7599SOL     OW24237   2.938   2.169   6.412 -0.7237  0.0773  0.0050
 7599SOL    HW124238   2.909   2.213   6.492 -0.0241  1.3112 -0.4023
 7599SOL    HW224239   2.925   2.076   6.430 -1.3943  0.3873  1.2220
 7600SOL     OW24240   3.998   7.787   6.714 -0.1529  0.3199 -0.1293
 7600SOL    HW124241   4.029   7.819   6.630 -0.8522  0.5362 -0.3126
 7600SOL    HW224242   3.903   7.784   6.705 -0.1829 -0.4047  0.3900
 7601SOL     OW24243   1.798   3.640   7.342 -0.2145  0.2128  0.0951
 7601SOL    HW124244   1.765   3.695   7.413  0.4687 -0.0040  0.5852
 7601SOL    HW224245   1.739   3.658   7.269 -1.5020 -0.2389  0.9837
 7602SOL     OW24246   4.262   4.430   2.828  0.8714 -0.4523  0.4822
 7602SOL    HW124247   4.354   4.456   2.816 -0.2735  3.5179 -1.6345
 7602SOL    HW224248   4.233   4.404   2.741  0.0329 -2.1561  1.2264
 7603SOL     OW24249   6.831   0.361  10.148 -0.3765  0.3614 -0.3274
 7603SOL    HW124250   6.773   0.437  10.139 -0.6861 -0.0099 -1.6322
 7603SOL    HW224251   6.787   0.306  10.213 -1.0123  0.5271 -0.6072
 7604SOL     OW24252   5.702   6.211  10.342 -0.1694 -0.7846 -0.1045
 7604SOL    HW124253   5.642   6.258  10.399 -1.8057 -1.8899 -0.8536
 7604SOL    HW224254   5.649   6.143  10.300  1.9901 -3.0738  0.6019
 7605SOL     OW24255   5.579   2.273   7.959 -0.7498 -0.3144 -0.2109
 7605SOL    HW124256   5.606   2.363   7.976  0.4349 -0.4728 -1.1156
 7605SOL    HW224257   5.493   2.282   7.917  0.0039  0.5150 -1.6706
 7606SOL     OW24258   3.018   0.512   6.364  0.1485 -0.1243  0.2672
 7606SOL    HW124259   3.048   0.445   6.426  1.7555  0.5352  0.2544
 7606SOL    HW224260   3.083   0.510   6.293  0.1423  1.3197  0.1861
 7607SOL     OW24261   6.289   1.430   1.175 -0.1794  0.2309  0.2998
 7607SOL    HW124262   6.237   1.490   1.121  0.9125  0.9271 -0.0101
 7607SOL    HW224263   6.332   1.487   1.240  1.5553 -0.0578 -0.5292
 7608SOL     OW24264   6.659   1.207  10.431  0.6193 -0.4732  0.3071
 7608SOL    HW124265   6.573   1.234  10.398  0.7382 -1.3922 -0.8119
 7608SOL    HW224266   6.646   1.196  10.525 -0.1686  0.5684  0.3436
 7609SOL     OW24267   6.769   3.741   6.207 -0.3120  0.1292 -0.3654
 7609SOL    HW124268   6.806   3.783   6.284  2.5939 -2.0156 -0.4003
 7609SOL    HW224269   6.768   3.808   6.140 -0.2074  1.2777  0.7531
 7610SOL     OW24270   0.859   7.869   5.250 -0.0461  0.0397  0.0120
 7610SOL    HW124271   0.860   7.890   5.156  0.5215  1.8371  0.3742
 7610SOL    HW224272   0.766   7.856   5.270 -0.2937  0.7702 -0.5831
 7611SOL     OW24273   2.280   3.826   4.041 -0.4078 -0.3195  0.1982
 7611SOL    HW124274   2.246   3.906   4.081 -0.6921 -0.6491  0.6376
 7611SOL    HW224275   2.295   3.767   4.115  2.3499  0.2310  0.1603
 7612SOL     OW24276   4.144   2.939   4.714  0.2480  0.0574 -0.4307
 7612SOL    HW124277   4.162   2.979   4.629  1.3975 -0.1867 -0.3200
 7612SOL    HW224278   4.223   2.890   4.735 -0.7625 -1.5409 -0.1333
 7613SOL     OW24279   5.018   7.415   4.227 -0.2770 -0.5027  0.0191
 7613SOL    HW124280   4.926   7.436   4.239 -0.1032  0.6029 -0.4996
 7613SOL    HW224281   5.063   7.465   4.295  0.1741  1.2109 -1.4754
 7614SOL     OW24282   1.009   6.470  10.498  0.5053 -0.1045  0.2184
 7614SOL    HW124283   1.060   6.405  10.546 -0.7262 -0.6426  0.8442
 7614SOL    HW224284   0.994   6.541  10.562  1.6967  0.7497 -0.4073
 7615SOL     OW24285   0.772   7.117   7.116  0.5036  0.5852 -0.0429
 7615SOL    HW124286   0.807   7.207   7.110 -1.0819  1.1925 -0.5131
 7615SOL    HW224287   0.794   7.077   7.031  2.7050 -0.0863  0.7645
 7616SOL     OW24288   1.714   3.021  12.061 -0.0252 -0.5825 -0.5265
 7616SOL    HW124289   1.800   2.995  12.092  1.4472  0.6784 -3.1316
 7616SOL    HW224290   1.692   3.098  12.113  0.7006 -0.5772 -0.2182
 7617SOL     OW24291   6.099   0.047   9.411 -0.0962 -0.0581 -0.3848
 7617SOL    HW124292   6.056   0.092   9.338 -0.3430  0.3430  0.0029
 7617SOL    HW224293   6.033  -0.014   9.443  0.2088 -0.6559 -0.8544
 7618SOL     OW24294   7.095   5.875   8.322  0.0873  0.6089  0.2589
 7618SOL    HW124295   7.061   5.902   8.407  1.6429  2.0578  0.4720
 7618SOL    HW224296   7.018   5.851   8.272 -0.9320  0.5608  1.7916
 7619SOL     OW24297   4.931   4.301  11.356  0.5355 -0.1675  0.4996
 7619SOL    HW124298   5.016   4.324  11.394  0.4999 -0.5899  0.8370
 7619SOL    HW224299   4.953   4.250  11.278  0.6135  0.9001 -0.2101
 7620SOL     OW24300   0.219   4.417  10.898  0.2340 -0.3048 -0.0647
 7620SOL    HW124301   0.276   4.464  10.959 -1.4821  0.2666  1.1897
 7620SOL    HW224302   0.269   4.340  10.872  0.8488 -0.8630  2.5108
 7621SOL     OW24303   6.534   5.213   8.366  0.4974 -0.2292 -0.2898
 7621SOL    HW124304   6.608   5.266   8.336  1.3049 -0.5824  1.0091
 7621SOL    HW224305   6.469   5.277   8.394  0.5247  0.0823 -0.9132
 7622SOL     OW24306   7.399   1.354   8.603 -0.1389 -0.6686  0.5980
 7622SOL    HW124307   7.357   1.396   8.527 -0.1882  0.1516  1.0677
 7622SOL    HW224308   7.395   1.260   8.583  1.4606 -0.4098 -1.2710
 7623SOL     OW24309   4.640   2.346   6.324  0.1136  0.2468  0.2119
 7623SOL    HW124310   4.557   2.372   6.282 -0.0584 -0.0092  0.3880
 7623SOL    HW224311   4.658   2.415   6.387 -0.6190 -0.3156  1.0576
 7624SOL     OW24312   3.564   6.516   0.308 -0.5665  0.0353  0.2772
 7624SOL    HW124313   3.544   6.528   0.401  1.3745  1.6349  0.5531
 7624SOL    HW224314   3.611   6.433   0.304  3.0079  1.8132  1.4736
 7625SOL     OW24315   2.518   1.082   2.319 -0.2303  0.5593  0.1394
 7625SOL    HW124316   2.437   1.072   2.370 -0.9905  0.4395 -1.0371
 7625SOL    HW224317   2.528   1.177   2.309 -0.4165  0.5678  0.0155
 7626SOL     OW24318   2.698   2.190   6.283  0.0200  0.1970  0.2659
 7626SOL    HW124319   2.783   2.191   6.329 -0.5308 -0.0437  1.3299
 7626SOL    HW224320   2.708   2.122   6.217  0.3233 -0.5997  1.0961
 7627SOL     OW24321   5.759   6.381  10.939 -0.4949  0.0694 -0.3194
 7627SOL    HW124322   5.822   6.318  10.903 -0.8461 -1.3367  1.4061
 7627SOL    HW224323   5.677   6.333  10.944 -0.3310 -0.0589  2.8389
 7628SOL     OW24324   2.080   0.157   2.661  0.0706 -0.6201  0.4390
 7628SOL    HW124325   2.058   0.117   2.745 -0.7328 -0.2727  0.4043
 7628SOL    HW224326   2.018   0.230   2.653  2.0257  1.1697  0.8798
 7629SOL     OW24327   7.762   5.013  11.753  0.1072  0.2687  0.0560
 7629SOL    HW124328   7.836   5.068  11.775  3.0691 -3.4805  0.4622
 7629SOL    HW224329   7.781   4.981  11.664 -0.5186 -1.4074  0.4837
 7630SOL     OW24330   3.930   7.200   0.620 -0.3251 -0.3367  0.3802
 7630SOL    HW124331   3.945   7.147   0.541 -2.2669  1.6012 -1.4165
 7630SOL    HW224332   3.846   7.169   0.654 -0.0609 -0.3500  1.0386
 7631SOL     OW24333   0.675   5.392  12.470 -0.0252  0.1111 -0.1873
 7631SOL    HW124334   0.694   5.329  12.400  0.0699  0.1661 -0.2118
 7631SOL    HW224335   0.581   5.384  12.484  0.0788 -0.4722  0.2309
 7632SOL     OW24336   6.263   4.821   9.689 -0.3581  0.1373 -0.0505
 7632SOL    HW124337   6.260   4.913   9.714  2.8168  0.5009 -0.5955
 7632SOL    HW224338   6.228   4.774   9.764  1.0149  1.6488  1.6186
 7633SOL     OW24339   7.635   5.928   5.261 -0.3379 -0.6073  0.3673
 7633SOL    HW124340   7.726   5.934   5.231  0.4077 -1.8714  2.2031
 7633SOL    HW224341   7.599   5.853   5.214  0.6272 -2.1748  1.9979
 7634SOL     OW24342   2.766   7.334   9.927  0.2385  0.1863  0.0870
 7634SOL    HW124343   2.774   7.322   9.832 -1.2124  0.0664 -0.0316
 7634SOL    HW224344   2.686   7.289   9.951  1.1025 -0.6434  1.5597
 7635SOL     OW24345   1.519   7.811   6.510 -0.3352  0.3157  0.1841
 7635SOL    HW124346   1.579   7.882   6.487  0.5555 -0.6204 -0.4627
 7635SOL    HW224347   1.517   7.812   6.606  0.5157  0.5299  0.2104
 7636SOL     OW24348   2.040   6.464   3.602 -0.7979 -0.6610 -0.2187
 7636SOL    HW124349   1.988   6.533   3.643  1.3527  1.8340 -1.4204
 7636SOL    HW224350   2.034   6.482   3.508  0.2488 -1.7774 -0.5278
 7637SOL     OW24351   1.970   2.027   5.165  1.0401  0.5726 -0.0083
 7637SOL    HW124352   2.044   1.981   5.206  1.9076  2.3856  0.5636
 7637SOL    HW224353   2.010   2.082   5.097 -0.1299 -0.5413 -1.6721
 7638SOL     OW24354   1.539   7.267   7.250 -0.2624  0.4104 -0.3579
 7638SOL    HW124355   1.582   7.210   7.315 -1.4056 -1.9569 -1.5788
 7638SOL    HW224356   1.537   7.353   7.293  2.4297 -0.1521  1.1771
 7639SOL     OW24357   3.056   1.840   6.735  0.5241  0.1734  0.5941
 7639SOL    HW124358   3.030   1.898   6.807 -1.4509 -0.7053  0.6754
 7639SOL    HW224359   3.060   1.753   6.775  1.0371 -0.0955 -0.0307
 7640SOL     OW24360   7.077   7.183   1.944 -0.0392 -0.1231 -0.8427
 7640SOL    HW124361   7.159   7.185   1.994 -1.5251 -0.9039  1.8299
 7640SOL    HW224362   7.097   7.130   1.867  1.6519 -1.4195  0.4182
 7641SOL     OW24363   6.846   6.035   4.143  0.5316 -0.4604 -0.1356
 7641SOL    HW124364   6.774   6.013   4.201  0.7069 -0.8932 -0.0800
 7641SOL    HW224365   6.822   5.998   4.058  1.3306 -1.8761  0.2217
 7642SOL     OW24366   5.427   0.020  11.416  0.2367 -0.1183 -0.1151
 7642SOL    HW124367   5.345   0.052  11.454  1.1108 -1.2256  3.0413
 7642SOL    HW224368   5.494   0.078  11.454  1.1506 -1.0757 -0.2395
 7643SOL     OW24369   0.274   4.579   6.460 -0.1257 -0.5142  0.9373
 7643SOL    HW124370   0.313   4.625   6.385 -3.6292 -1.4158 -1.6876
 7643SOL    HW224371   0.303   4.489   6.450  1.0886 -0.2749  1.9982
 7644SOL     OW24372   1.372   5.471   5.414 -0.3079  0.3151  0.1582
 7644SOL    HW124373   1.363   5.378   5.392 -1.4911  0.3475  0.4765
 7644SOL    HW224374   1.332   5.481   5.500  2.9569  0.4870  1.8210
 7645SOL     OW24375   0.361   4.432  12.157  0.1302 -0.1446 -0.3614
 7645SOL    HW124376   0.340   4.485  12.080 -0.1737  1.6223  0.8771
 7645SOL    HW224377   0.456   4.425  12.157  0.0740 -1.3859 -1.6393
 7646SOL     OW24378   4.598   7.000   9.610  0.1260 -0.0897  0.0939
 7646SOL    HW124379   4.632   6.913   9.589  1.0666  0.5135 -1.0545
 7646SOL    HW224380   4.504   6.993   9.597  0.2396 -0.8348 -0.4027
 7647SOL     OW24381   7.371   2.255   8.492 -0.1669  0.5360  0.1500
 7647SOL    HW124382   7.308   2.252   8.420 -0.2535 -0.2281  0.2494
 7647SOL    HW224383   7.429   2.180   8.476 -1.1796 -0.6480  1.7529
 7648SOL     OW24384   4.811   0.430  10.572 -0.1114 -0.7215  0.3110
 7648SOL    HW124385   4.875   0.454  10.638  0.5677  0.2639 -0.6644
 7648SOL    HW224386   4.726   0.452  10.612  0.3105  0.2516  0.7083
 7649SOL     OW24387   1.708   1.446   6.008 -0.1419 -0.3209 -0.2828
 7649SOL    HW124388   1.724   1.524   5.955  1.3368  0.9424  1.8675
 7649SOL    HW224389   1.615   1.426   5.995 -0.3026  1.1921 -1.6656
 7650SOL     OW24390   4.597   5.826   7.125  0.0994  0.0050  0.6112
 7650SOL    HW124391   4.549   5.811   7.206  0.5127 -1.8244  0.5498
 7650SOL    HW224392   4.530   5.826   7.056  0.1409 -2.8918  0.4830
 7651SOL     OW24393   2.144   3.533   2.764  0.3630 -0.3488 -0.2544
 7651SOL    HW124394   2.058   3.555   2.728  0.0605 -1.5730 -0.3211
 7651SOL    HW224395   2.199   3.520   2.687 -0.2681 -2.9033 -0.3787
 7652SOL     OW24396   7.864   2.934   2.602 -0.4137  0.2495 -0.0928
 7652SOL    HW124397   7.899   3.014   2.565  0.0917 -0.3232 -0.8978
 7652SOL    HW224398   7.798   2.906   2.539 -1.9870  1.0404  1.1473
 7653SOL     OW24399   4.066   1.407   0.408 -0.2781 -0.1145 -0.1218
 7653SOL    HW124400   4.005   1.403   0.482  0.7515  0.5485  0.8030
 7653SOL    HW224401   4.047   1.328   0.357  0.8325 -2.1454  2.3761
 7654SOL     OW24402   4.113   6.399   4.513 -0.0123  0.2560 -0.1983
 7654SOL    HW124403   4.199   6.421   4.550 -0.0058  1.2570 -0.7567
 7654SOL    HW224404   4.052   6.458   4.558 -0.7625 -1.7410  1.6105
 7655SOL     OW24405   0.384   6.333   3.126  0.2430 -1.0150 -0.2351
 7655SOL    HW124406   0.373   6.381   3.208 -0.4059 -0.4997 -0.6122
 7655SOL    HW224407   0.423   6.397   3.066 -3.0493 -0.0272 -1.5377
 7656SOL     OW24408   0.815   5.840  11.671  0.1519  0.2305  0.2309
 7656SOL    HW124409   0.819   5.794  11.755  1.4307  0.5103  0.3412
 7656SOL    HW224410   0.747   5.906  11.683 -1.0517 -0.9917  0.3753
 7657SOL     OW24411   0.310   5.729   5.110 -0.0374 -0.2006 -0.4133
 7657SOL    HW124412   0.314   5.666   5.182 -0.2237  0.5930  0.3075
 7657SOL    HW224413   0.395   5.720   5.066  0.0109 -0.8125 -0.2030
 7658SOL     OW24414   6.365   3.230  10.866  0.5016  0.1434 -0.2321
 7658SOL    HW124415   6.358   3.164  10.796 -0.0324  0.9738 -0.9816
 7658SOL    HW224416   6.331   3.310  10.827  1.9434  1.0935  0.3944
 7659SOL     OW24417   0.199   6.255   2.857 -0.6475  0.1295  0.0275
 7659SOL    HW124418   0.293   6.272   2.865 -0.5301 -0.1262 -0.7626
 7659SOL    HW224419   0.157   6.334   2.889 -0.2473 -0.9383  3.6718
 7660SOL     OW24420   2.054   3.665   5.149  0.4047 -0.4127 -0.3666
 7660SOL    HW124421   2.045   3.601   5.220  1.0051 -1.6881 -1.3889
 7660SOL    HW224422   2.125   3.722   5.177 -1.0306  0.7029  1.1794
 7661SOL     OW24423   3.527   5.933   4.024  0.4733 -0.1563  0.2146
 7661SOL    HW124424   3.610   5.977   4.043  0.4201  0.5659 -1.1541
 7661SOL    HW224425   3.500   5.897   4.109  0.8969  1.8016  1.2506
 7662SOL     OW24426   2.656   7.217  10.797  0.9584  0.1361  0.2055
 7662SOL    HW124427   2.687   7.297  10.755 -0.4623 -0.7510 -2.8057
 7662SOL    HW224428   2.561   7.217  10.783  0.9060 -1.9913  0.1895
 7663SOL     OW24429   7.162   7.336   8.865 -0.3464  0.4405  0.1459
 7663SOL    HW124430   7.176   7.317   8.957  1.1077  0.4020 -0.0603
 7663SOL    HW224431   7.205   7.264   8.819  3.1979  2.7647 -0.6060
 7664SOL     OW24432   1.526   1.971   3.006 -0.4138  0.7722  0.2400
 7664SOL    HW124433   1.449   1.981   3.062 -1.8312 -2.1132 -0.9805
 7664SOL    HW224434   1.494   1.991   2.918  1.0860  2.5383  0.0395
 7665SOL     OW24435   5.128   4.274   5.230  0.0781 -0.0403  0.0677
 7665SOL    HW124436   5.185   4.348   5.212  0.3635 -0.3350 -0.2506
 7665SOL    HW224437   5.040   4.311   5.228  0.2727  0.5164  1.0569
 7666SOL     OW24438   6.030   2.095   0.726  0.2055  0.4134  0.0987
 7666SOL    HW124439   6.053   2.056   0.810  4.7511 -1.2080 -1.6233
 7666SOL    HW224440   5.971   2.031   0.685  0.4514 -0.2847  0.8108
 7667SOL     OW24441   6.030   4.331   7.275  0.7265 -0.1903 -0.0039
 7667SOL    HW124442   6.004   4.421   7.296  1.5068  0.0473  0.0029
 7667SOL    HW224443   6.109   4.316   7.327  1.1110 -0.5647 -0.6641
 7668SOL     OW24444   6.772   6.886   6.544  0.4696  0.0699  0.5645
 7668SOL    HW124445   6.782   6.979   6.562  0.2882  0.2667 -0.3269
 7668SOL    HW224446   6.699   6.858   6.599 -1.3869  1.0851 -1.2586
 7669SOL     OW24447   5.118   6.975   8.404 -0.8526 -0.1983 -0.2511
 7669SOL    HW124448   5.180   7.045   8.425 -0.0380 -0.4454 -1.6863
 7669SOL    HW224449   5.032   7.017   8.408 -0.4949  0.5058  0.3629
 7670SOL     OW24450   1.765   6.862   5.738 -0.4404  0.2081  0.2500
 7670SOL    HW124451   1.732   6.787   5.688 -0.1127  0.0115  0.3208
 7670SOL    HW224452   1.699   6.878   5.805 -1.0262  0.6580 -0.4239
 7671SOL     OW24453   1.624   4.211  12.004 -0.6960  0.2629 -0.1682
 7671SOL    HW124454   1.667   4.239  12.085  1.4379  1.0415 -1.4868
 7671SOL    HW224455   1.534   4.189  12.030 -0.0025  0.2650  2.4181
 7672SOL     OW24456   4.856   5.313   5.209 -0.6165 -0.4782 -0.1591
 7672SOL    HW124457   4.824   5.338   5.295 -0.5750  0.9439 -0.5395
 7672SOL    HW224458   4.780   5.274   5.165 -0.7595 -0.7665  0.3348
 7673SOL     OW24459   1.516   5.968   5.938  0.0305 -0.1358  0.3233
 7673SOL    HW124460   1.583   5.948   6.004 -1.1017 -2.0618  0.9946
 7673SOL    HW224461   1.506   5.887   5.888 -2.4357 -0.2677  0.8772
 7674SOL     OW24462   0.258   0.260   9.193 -0.0829 -0.2417 -0.3595
 7674SOL    HW124463   0.228   0.344   9.159 -0.6602 -0.4013 -0.2720
 7674SOL    HW224464   0.316   0.282   9.266 -1.5199  0.0935  0.7337
 7675SOL     OW24465   2.198   0.345   0.336 -0.6378 -0.0576  0.3190
 7675SOL    HW124466   2.192   0.289   0.259  1.1598  0.8596 -0.5219
 7675SOL    HW224467   2.256   0.298   0.396 -0.2865  0.2432  0.2140
 7676SOL     OW24468   7.040   4.511  10.612  0.0107 -0.6321 -0.2787
 7676SOL    HW124469   7.034   4.493  10.706 -2.0175  0.3272 -0.1838
 7676SOL    HW224470   7.097   4.588  10.607  0.7642 -1.1515  0.0809
 7677SOL     OW24471   6.447   0.626  10.615 -0.0433 -0.0588  0.0566
 7677SOL    HW124472   6.532   0.656  10.582 -0.9501  2.9117  0.1028
 7677SOL    HW224473   6.441   0.663  10.703 -0.8707 -1.3533  0.5702
 7678SOL     OW24474   3.980   7.306   3.477  0.3608  0.2798 -0.0549
 7678SOL    HW124475   4.071   7.333   3.489  0.7073 -0.6109 -0.5482
 7678SOL    HW224476   3.975   7.281   3.384 -0.4270  0.4702 -0.0652
 7679SOL     OW24477   1.470   7.262   3.907 -0.2350 -0.1628 -0.1944
 7679SOL    HW124478   1.449   7.328   3.973  0.6503  0.9010 -0.9355
 7679SOL    HW224479   1.555   7.226   3.935 -0.1562 -0.1542 -0.4226
 7680SOL     OW24480   2.776   1.714   4.467  0.3892  0.5055 -0.7597
 7680SOL    HW124481   2.712   1.751   4.528  1.0158  1.3854 -0.6198
 7680SOL    HW224482   2.723   1.669   4.401 -0.2719 -1.9772  1.3039
 7681SOL     OW24483   5.894   7.869   7.916  0.1520 -0.6520 -0.0681
 7681SOL    HW124484   5.973   7.817   7.930  2.1328  1.5418 -2.0729
 7681SOL    HW224485   5.909   7.913   7.833 -2.6282  0.9191  0.1410
 7682SOL     OW24486   1.165   6.311   9.492  0.2825  0.0809  0.0891
 7682SOL    HW124487   1.196   6.291   9.580  0.3588  0.1423  0.0764
 7682SOL    HW224488   1.206   6.395   9.471 -1.4557  1.1606  0.8344
 7683SOL     OW24489   0.504   1.010   3.386 -0.0676 -0.1345 -0.5675
 7683SOL    HW124490   0.451   0.977   3.459  0.2761 -0.0563 -0.2780
 7683SOL    HW224491   0.528   0.931   3.337 -0.4400 -0.1711 -0.6983
 7684SOL     OW24492   2.028   0.463   1.675 -0.2212 -0.0267  0.5845
 7684SOL    HW124493   1.963   0.397   1.696  1.2809 -1.1728  1.8883
 7684SOL    HW224494   2.096   0.416   1.627  0.2466  0.8670  0.3471
 7685SOL     OW24495   5.752   3.469  11.010  0.0958  0.0204  0.7139
 7685SOL    HW124496   5.760   3.421  10.927 -0.1913  3.0191 -1.1831
 7685SOL    HW224497   5.840   3.470  11.046  0.8407  1.0997 -1.0490
 7686SOL     OW24498   5.015   2.607  11.606 -0.2249 -0.3074 -0.2834
 7686SOL    HW124499   5.066   2.653  11.540 -0.1739 -0.1497 -0.1363
 7686SOL    HW224500   5.068   2.530  11.629 -0.4892 -0.6580 -0.8122
 7687SOL     OW24501   6.984   2.915   5.287 -0.6411  0.1863 -0.8907
 7687SOL    HW124502   7.077   2.897   5.273 -0.1621  0.9197  1.0492
 7687SOL    HW224503   6.938   2.848   5.236  0.9543 -0.5587 -1.3916
 7688SOL     OW24504   4.752   0.298   7.963 -0.1327 -0.1575 -0.7364
 7688SOL    HW124505   4.841   0.277   7.993 -1.4508 -1.4671  2.7342
 7688SOL    HW224506   4.712   0.213   7.946 -1.5914  0.1966  0.7177
 7689SOL     OW24507   2.743   1.717   5.630 -0.2376 -0.1427 -0.4193
 7689SOL    HW124508   2.811   1.758   5.684 -0.4167  1.5529 -1.4144
 7689SOL    HW224509   2.661   1.733   5.677 -0.1674 -0.5718 -0.1404
 7690SOL     OW24510   4.879   6.613   7.060  0.2307  0.0556  0.7042
 7690SOL    HW124511   4.839   6.611   6.974 -0.3946 -0.8193  1.0013
 7690SOL    HW224512   4.887   6.706   7.081 -2.3106  0.3014  0.9180
 7691SOL     OW24513   6.197   3.630   4.613 -0.2374  0.5490 -0.5260
 7691SOL    HW124514   6.105   3.617   4.592 -0.6069 -0.1189  1.3521
 7691SOL    HW224515   6.244   3.571   4.554 -1.1613 -0.7788  0.0288
 7692SOL     OW24516   6.170   7.964   0.845 -0.1459  0.1155  0.0199
 7692SOL    HW124517   6.194   7.981   0.936 -1.7025  2.6532  0.0342
 7692SOL    HW224518   6.149   8.050   0.809 -1.9104 -1.0848 -2.0538
 7693SOL     OW24519   1.545   4.661   3.417 -0.0499 -0.0189 -0.1047
 7693SOL    HW124520   1.511   4.719   3.486 -0.4682 -0.4606  0.0667
 7693SOL    HW224521   1.565   4.579   3.462  1.3445  0.2566 -0.1906
 7694SOL     OW24522   7.451   4.241  10.412 -0.3418 -0.0346  0.3531
 7694SOL    HW124523   7.539   4.239  10.449 -0.4586 -0.0853  0.6336
 7694SOL    HW224524   7.393   4.239  10.488 -0.6004 -1.1732  0.1518
 7695SOL     OW24525   3.783   7.449   9.315  0.2020 -0.5439 -0.6910
 7695SOL    HW124526   3.792   7.429   9.222  1.2526  0.1322 -0.7432
 7695SOL    HW224527   3.860   7.409   9.356  1.1128  1.3206 -0.4863
 7696SOL     OW24528   6.639   6.018   4.331  0.1833 -0.6366 -0.5158
 7696SOL    HW124529   6.572   5.950   4.321 -0.1144 -0.2861 -0.9408
 7696SOL    HW224530   6.618   6.060   4.415 -0.5147 -0.1225 -0.9316
 7697SOL     OW24531   3.637   4.015  12.281 -0.1794 -0.6244 -0.0462
 7697SOL    HW124532   3.705   4.072  12.316 -1.0436  0.9634 -0.7959
 7697SOL    HW224533   3.670   3.927  12.293  1.4586  0.0526  0.7058
 7698SOL     OW24534   4.851   2.371   4.571  0.0800 -0.4277  0.5917
 7698SOL    HW124535   4.857   2.465   4.586 -0.3957 -0.5347  1.4944
 7698SOL    HW224536   4.765   2.346   4.603 -0.7314 -0.8233 -1.6863
 7699SOL     OW24537   0.393   2.104   4.895 -0.1630  0.5761 -0.5661
 7699SOL    HW124538   0.455   2.177   4.894  1.1983 -0.5361  0.1264
 7699SOL    HW224539   0.353   2.108   4.982  0.6953 -0.1246 -0.1290
 7700SOL     OW24540   1.943   0.914   1.849 -0.0295  0.0256  0.1942
 7700SOL    HW124541   1.993   0.887   1.926 -0.4131 -1.3328  0.0052
 7700SOL    HW224542   1.868   0.854   1.847 -0.8870  1.0894 -0.3357
 7701SOL     OW24543   6.327   7.685   5.098 -0.2397 -0.5195 -0.1413
 7701SOL    HW124544   6.305   7.614   5.038  2.1724 -1.0513 -0.5001
 7701SOL    HW224545   6.355   7.758   5.042  3.9436 -1.6508  0.0830
 7702SOL     OW24546   4.158   7.662   6.182  0.3663 -0.5595 -0.2453
 7702SOL    HW124547   4.103   7.593   6.146  0.1301 -0.6247  0.2270
 7702SOL    HW224548   4.102   7.705   6.248  0.9474 -0.7473  0.3765
 7703SOL     OW24549   5.494   7.616  11.194  0.1809 -0.0329  0.4284
 7703SOL    HW124550   5.524   7.685  11.254  0.0896  0.0038  0.4309
 7703SOL    HW224551   5.451   7.663  11.123  0.3987 -0.0684  0.2697
 7704SOL     OW24552   6.840   4.196  10.047  0.1955 -0.6071  0.1232
 7704SOL    HW124553   6.778   4.165  10.113  0.9482 -1.3069  0.5347
 7704SOL    HW224554   6.830   4.291  10.046 -1.0761 -0.7292 -0.0365
 7705SOL     OW24555   3.619   3.969   9.512  0.2473 -0.2461 -0.0788
 7705SOL    HW124556   3.660   4.053   9.493 -0.3421  1.2649  4.2684
 7705SOL    HW224557   3.654   3.910   9.445  1.9849  2.9961 -2.3163
 7706SOL     OW24558   0.794   4.039   6.421  0.2488  0.3611  0.0912
 7706SOL    HW124559   0.739   4.018   6.496 -0.2913 -0.3766 -0.4996
 7706SOL    HW224560   0.751   4.112   6.378  0.7009  0.9616  0.6366
 7707SOL     OW24561   7.420   3.273   7.627 -0.1374 -0.1551  0.2330
 7707SOL    HW124562   7.367   3.353   7.633 -0.1871 -0.1174 -0.6450
 7707SOL    HW224563   7.355   3.202   7.619 -0.0747 -0.2293  0.3668
 7708SOL     OW24564   0.186   0.235   4.750  0.4207 -0.3671 -0.4119
 7708SOL    HW124565   0.154   0.210   4.663  1.7035  1.2528 -1.4242
 7708SOL    HW224566   0.109   0.267   4.797 -0.0203  0.3197 -1.5715
 7709SOL     OW24567   7.697   1.767   1.533  0.2131  0.0684 -0.1749
 7709SOL    HW124568   7.642   1.758   1.455  0.1395  2.3301 -0.4454
 7709SOL    HW224569   7.697   1.861   1.552  0.5297 -0.3748  2.3673
 7710SOL     OW24570   5.453   5.732   5.038  0.5683 -0.4985 -0.1291
 7710SOL    HW124571   5.377   5.703   4.988 -0.7841 -1.1892  2.1919
 7710SOL    HW224572   5.527   5.684   5.000 -0.6051 -1.9993 -0.5769
 7711SOL     OW24573   4.771   2.706   4.582 -0.0979 -0.1439 -0.0455
 7711SOL    HW124574   4.732   2.789   4.555  0.2139 -0.0596 -0.2477
 7711SOL    HW224575   4.710   2.670   4.647  0.4822  0.9483  1.1516
 7712SOL     OW24576   4.706   1.225  12.180 -0.3619 -0.3192 -0.0291
 7712SOL    HW124577   4.754   1.305  12.160 -0.4485  0.1673  1.6015
 7712SOL    HW224578   4.622   1.236  12.134 -0.2276  0.3496 -0.1294
 7713SOL     OW24579   0.398   6.511   0.712  0.4153  0.3808  0.0734
 7713SOL    HW124580   0.478   6.554   0.740  0.1973  1.9052 -1.4616
 7713SOL    HW224581   0.333   6.582   0.706 -0.6051 -0.5420 -0.2835
 7714SOL     OW24582   0.976   2.842   1.348 -0.0279  0.1575  0.1368
 7714SOL    HW124583   0.913   2.912   1.364 -0.9723 -1.1956  3.0972
 7714SOL    HW224584   0.990   2.844   1.253  0.5190  4.6527  0.0889
 7715SOL     OW24585   6.124   5.050   1.342 -0.0420 -0.2327  0.0573
 7715SOL    HW124586   6.185   5.039   1.269 -0.2009 -1.2350  0.0612
 7715SOL    HW224587   6.109   4.961   1.375 -1.2846  0.0194  0.2327
 7716SOL     OW24588   4.676   4.818   4.692  0.2314  0.0657 -0.1514
 7716SOL    HW124589   4.601   4.791   4.743 -0.7245  0.3890 -1.3432
 7716SOL    HW224590   4.658   4.786   4.603  2.2046 -1.1794 -0.1706
 7717SOL     OW24591   2.708   5.758   9.033  0.1471 -0.0024 -0.4908
 7717SOL    HW124592   2.737   5.669   9.052 -1.2366 -0.5279 -0.7512
 7717SOL    HW224593   2.715   5.767   8.938  0.4511  0.2403 -0.4496
 7718SOL     OW24594   1.350   6.947   1.195  0.1544 -0.8338 -0.0999
 7718SOL    HW124595   1.293   7.003   1.142 -1.2388 -0.2995  1.8666
 7718SOL    HW224596   1.330   6.858   1.166 -2.4147 -0.7463  1.0829
 7719SOL     OW24597   4.638   2.223  11.495  0.0588 -0.9352 -0.2320
 7719SOL    HW124598   4.665   2.224  11.403 -0.1857 -0.6838 -0.3020
 7719SOL    HW224599   4.698   2.283  11.539 -2.0254  1.8222 -0.8605
 7720SOL     OW24600   2.961   5.996   5.121 -0.1807 -0.2145 -0.1591
 7720SOL    HW124601   2.957   6.081   5.078  1.2688 -0.0554 -0.0383
 7720SOL    HW224602   2.872   5.961   5.115 -0.0384 -0.2959 -3.4820
 7721SOL     OW24603   7.611   5.760   0.240  0.0295  0.7165  0.0928
 7721SOL    HW124604   7.690   5.808   0.216 -0.0894  0.7887 -0.1650
 7721SOL    HW224605   7.587   5.713   0.160  1.0926 -1.1232  0.7813
 7722SOL     OW24606   4.202   1.573   8.914 -0.2464  0.2531 -0.2615
 7722SOL    HW124607   4.172   1.622   8.990 -1.2338  2.2241 -1.8251
 7722SOL    HW224608   4.124   1.529   8.880 -0.1016  0.4779 -0.9023
 7723SOL     OW24609   3.301   0.018   2.599 -0.3311  0.2851 -0.0051
 7723SOL    HW124610   3.337   0.104   2.619  0.5447 -0.0298 -0.1730
 7723SOL    HW224611   3.206   0.032   2.594 -0.1744  1.3097 -0.3990
 7724SOL     OW24612   0.692   4.231   4.050  0.4297  0.0347  0.0083
 7724SOL    HW124613   0.625   4.289   4.012  0.2408 -1.0805 -1.4585
 7724SOL    HW224614   0.653   4.143   4.045  2.0417 -0.6621 -1.0271
 7725SOL     OW24615   6.389   4.460   4.063 -0.3098  0.0969 -0.5645
 7725SOL    HW124616   6.395   4.416   4.148 -1.3834  0.1878 -0.4219
 7725SOL    HW224617   6.375   4.389   4.000  0.6201  0.0182 -0.6879
 7726SOL     OW24618   5.008   5.250  10.321  0.0631  0.0127 -0.2826
 7726SOL    HW124619   4.981   5.293  10.240  0.2876 -0.3942 -0.5783
 7726SOL    HW224620   5.096   5.284  10.338  0.1649 -0.1778 -0.4155
 7727SOL     OW24621   3.303   6.440   1.184 -0.1740  0.2855 -0.3037
 7727SOL    HW124622   3.356   6.368   1.149  1.1298  1.1011 -0.0554
 7727SOL    HW224623   3.226   6.443   1.126 -0.6698 -1.8024  0.1599
 7728SOL     OW24624   3.295   0.953   2.120 -0.2870  0.4798 -0.2446
 7728SOL    HW124625   3.261   1.041   2.136 -0.6207  0.4896 -0.9627
 7728SOL    HW224626   3.246   0.921   2.044  0.7333  0.1776 -0.8065
 7729SOL     OW24627   2.614   5.802   6.403  0.6567  0.0174  0.0381
 7729SOL    HW124628   2.672   5.857   6.456 -0.0425  0.2488  0.5785
 7729SOL    HW224629   2.671   5.764   6.336  1.6877 -0.7913  1.3440
 7730SOL     OW24630   2.130   1.911   3.361 -0.2704 -0.1690  0.3376
 7730SOL    HW124631   2.167   1.987   3.407  0.7959 -0.7927  0.5353
 7730SOL    HW224632   2.185   1.901   3.283 -1.7865  0.6089 -0.9059
 7731SOL     OW24633   0.331   4.996   2.180 -0.2769  0.1994 -0.1692
 7731SOL    HW124634   0.403   5.038   2.227  0.0995 -0.9732  0.3444
 7731SOL    HW224635   0.252   5.030   2.223  0.0479 -0.3981  0.9505
 7732SOL     OW24636   5.827   7.033   1.077  0.5402 -0.3075  0.1537
 7732SOL    HW124637   5.803   6.951   1.033  0.6247 -0.3220  0.1349
 7732SOL    HW224638   5.851   7.092   1.006  0.6588 -0.3251  0.1787
 7733SOL     OW24639   0.129   0.402   8.080  0.5854  0.4947 -0.1201
 7733SOL    HW124640   0.081   0.437   8.155  0.1047  0.5982 -0.4713
 7733SOL    HW224641   0.066   0.345   8.036  1.4090 -0.9878  0.5566
 7734SOL     OW24642   6.222   3.664  11.394 -0.2813  0.1138 -0.3815
 7734SOL    HW124643   6.216   3.577  11.434  0.5043  0.8015  1.3653
 7734SOL    HW224644   6.184   3.653  11.307 -3.9797 -1.0814  1.1456
 7735SOL     OW24645   6.023   5.979   4.023  0.3472 -0.1614 -0.5020
 7735SOL    HW124646   6.074   5.967   3.944  0.9146  2.0857 -0.5429
 7735SOL    HW224647   6.056   6.060   4.062 -1.2303 -0.1599  0.9985
 7736SOL     OW24648   5.964   0.996  10.521 -0.0426 -0.1934  0.0510
 7736SOL    HW124649   5.917   1.078  10.541 -0.5269 -0.7417  1.2592
 7736SOL    HW224650   5.962   0.947  10.603  0.3068 -1.3938 -0.6388
 7737SOL     OW24651   5.449   5.452   5.554  0.4123  0.4030  0.0940
 7737SOL    HW124652   5.412   5.374   5.594  0.9557 -0.0480 -0.2649
 7737SOL    HW224653   5.544   5.437   5.555  0.7413  2.1024  2.2220
 7738SOL     OW24654   4.509   2.554   3.982 -0.2083 -0.2662 -0.1381
 7738SOL    HW124655   4.497   2.602   3.900 -3.3484  0.5823  0.6711
 7738SOL    HW224656   4.601   2.567   4.005  0.2935  1.0262 -2.5567
 7739SOL     OW24657   2.492   5.132   6.330  0.2776 -0.2337 -0.3283
 7739SOL    HW124658   2.546   5.166   6.258 -0.9892 -1.5908 -2.0161
 7739SOL    HW224659   2.402   5.136   6.296 -0.4988  0.1050  1.6324
 7740SOL     OW24660   1.714   3.948   8.866  0.1461  0.0763 -0.4228
 7740SOL    HW124661   1.633   3.897   8.864  0.9346 -1.4136  1.5949
 7740SOL    HW224662   1.748   3.944   8.777 -1.6814  0.2724 -1.1781
 7741SOL     OW24663   2.249   2.673  12.448  0.1983  0.3359 -0.1423
 7741SOL    HW124664   2.303   2.718  12.514  0.8000 -0.1744 -0.2758
 7741SOL    HW224665   2.162   2.669  12.488  0.2820  1.0435  0.1400
 7742SOL     OW24666   1.721   6.517   3.093  0.5593 -0.1496 -0.5749
 7742SOL    HW124667   1.760   6.459   3.028  0.8617 -0.8570  0.2111
 7742SOL    HW224668   1.642   6.471   3.123  0.3072  0.2633 -0.5942
 7743SOL     OW24669   3.966   0.340   0.096 -0.2982 -0.5381  0.0083
 7743SOL    HW124670   4.047   0.355   0.048  0.1688 -3.5051 -0.3059
 7743SOL    HW224671   3.987   0.362   0.187  0.4964 -0.1598 -0.2593
 7744SOL     OW24672   7.204   3.793  10.867  0.2836 -0.3335  0.1046
 7744SOL    HW124673   7.123   3.814  10.819  0.6425  0.6937 -0.0611
 7744SOL    HW224674   7.253   3.738  10.807  0.9601  1.3628 -0.9668
 7745SOL     OW24675   1.602   0.468   9.301  0.3919  0.4088  0.0953
 7745SOL    HW124676   1.568   0.467   9.211 -0.3301  0.3131  0.3610
 7745SOL    HW224677   1.657   0.546   9.304 -0.2969  0.9272 -0.1816
 7746SOL     OW24678   7.780   0.931  10.230 -0.2969  0.2440  0.2915
 7746SOL    HW124679   7.776   1.027  10.233 -0.7054  0.2186  0.6475
 7746SOL    HW224680   7.862   0.909  10.274  0.5263  0.4863 -1.0663
 7747SOL     OW24681   5.929   7.314   6.989  0.0996 -0.2723 -0.2722
 7747SOL    HW124682   5.920   7.403   7.024 -0.1731 -0.1410 -0.6643
 7747SOL    HW224683   5.937   7.327   6.894 -0.5009 -0.7009 -0.3838
 7748SOL     OW24684   7.374   6.885  12.067  0.3016  0.1545 -0.7104
 7748SOL    HW124685   7.330   6.846  11.991  0.4364 -0.1883 -0.6132
 7748SOL    HW224686   7.345   6.832  12.141  1.0115 -0.1765 -0.6645
 7749SOL     OW24687   6.916   6.616   4.562 -0.5003 -0.2596  0.1264
 7749SOL    HW124688   6.886   6.704   4.586  1.6250  0.6940 -0.4822
 7749SOL    HW224689   7.001   6.607   4.605  1.4340 -0.1867 -3.3684
 7750SOL     OW24690   1.331   2.754   2.780  0.2062  0.3185  0.0455
 7750SOL    HW124691   1.284   2.810   2.718  1.6329  0.7772 -0.6778
 7750SOL    HW224692   1.277   2.755   2.859 -1.6588 -0.2735 -1.1628
 7751SOL     OW24693   6.399   7.603   2.220  0.3227 -0.0311  0.6519
 7751SOL    HW124694   6.418   7.514   2.192  0.0645  0.2149 -0.3583
 7751SOL    HW224695   6.482   7.650   2.210 -0.2828  0.6440 -2.1652
 7752SOL     OW24696   5.493   3.959  10.416 -0.5853 -0.1801  0.1037
 7752SOL    HW124697   5.460   4.017  10.484  1.8317  1.5642 -0.0704
 7752SOL    HW224698   5.471   4.002  10.334 -0.7617 -0.6815 -0.1157
 7753SOL     OW24699   7.592   1.636   5.002 -0.2541 -0.4452 -0.0793
 7753SOL    HW124700   7.593   1.718   4.953 -0.2719 -0.6030 -0.3430
 7753SOL    HW224701   7.599   1.663   5.094  2.3586 -0.2640 -0.2652
 7754SOL     OW24702   7.319   5.680   9.393  0.0675  0.0154  0.0531
 7754SOL    HW124703   7.319   5.766   9.351 -0.9370  0.1785  0.3514
 7754SOL    HW224704   7.282   5.696   9.480  0.1864 -0.6645  0.2339
 7755SOL     OW24705   1.668   1.117   7.865  0.9700 -0.4378  0.1555
 7755SOL    HW124706   1.722   1.059   7.919 -1.0136 -0.6197  2.0448
 7755SOL    HW224707   1.595   1.142   7.921  0.9782  2.8122 -1.0738
 7756SOL     OW24708   1.979   4.136   9.299  0.4887 -0.5312  0.0155
 7756SOL    HW124709   1.885   4.152   9.308  0.6799  1.3368 -0.8485
 7756SOL    HW224710   1.996   4.144   9.206  1.4025 -1.7425  0.0452
 7757SOL     OW24711   5.262   5.419   9.107  0.0757  0.4414 -0.0755
 7757SOL    HW124712   5.311   5.501   9.119  0.7638  0.1220 -0.6818
 7757SOL    HW224713   5.194   5.423   9.174 -1.7439  2.8591 -1.8593
 7758SOL     OW24714   2.914   5.400   3.896 -0.1707 -0.7232 -0.3578
 7758SOL    HW124715   2.998   5.365   3.925  0.4210  1.1430  0.2981
 7758SOL    HW224716   2.914   5.388   3.801  1.3848  0.3043 -0.5201
 7759SOL     OW24717   7.712   0.107   4.691 -0.6609 -0.1933  0.3949
 7759SOL    HW124718   7.648   0.050   4.735 -0.5569  0.2222  1.1036
 7759SOL    HW224719   7.793   0.056   4.692 -0.4634  0.1239  1.4064
 7760SOL     OW24720   6.726   5.561  10.753 -0.1529  0.4861  0.4062
 7760SOL    HW124721   6.690   5.592  10.670 -1.6795  1.5392  1.3996
 7760SOL    HW224722   6.756   5.640  10.797 -2.5046  0.4853  2.2554
 7761SOL     OW24723   1.319   7.555   9.790  0.1809 -0.6217  0.1268
 7761SOL    HW124724   1.396   7.612   9.797 -0.8520  0.8816 -0.1754
 7761SOL    HW224725   1.323   7.520   9.701  1.7366 -2.4576  0.8550
 7762SOL     OW24726   1.496   5.080   7.751  0.4643  0.1018  0.0279
 7762SOL    HW124727   1.578   5.037   7.725  0.5735 -1.0418  2.0540
 7762SOL    HW224728   1.515   5.173   7.743  1.2898 -0.1434 -1.3952
 7763SOL     OW24729   4.178   1.933  10.763 -0.1353 -0.1800  0.0615
 7763SOL    HW124730   4.088   1.929  10.731  0.0494 -0.5800 -0.4278
 7763SOL    HW224731   4.187   2.022  10.798 -0.4999  0.1104 -0.5561
 7764SOL     OW24732   7.510   2.459   2.328 -0.2809  0.3164  0.0283
 7764SOL    HW124733   7.466   2.410   2.398  0.2720  0.3532  0.4059
 7764SOL    HW224734   7.564   2.393   2.284 -1.2208  0.1211 -0.8741
 7765SOL     OW24735   7.193   3.298   0.626 -0.5753  0.6618 -0.3043
 7765SOL    HW124736   7.275   3.259   0.596 -0.3371 -0.3051  1.4586
 7765SOL    HW224737   7.132   3.285   0.553  0.5255  0.4092 -1.2112
 7766SOL     OW24738   1.288   5.779   3.520 -0.0761 -0.5605 -0.1680
 7766SOL    HW124739   1.380   5.753   3.518 -0.4553 -2.0000  0.2707
 7766SOL    HW224740   1.242   5.704   3.557 -1.4996 -0.0636 -0.8415
 7767SOL     OW24741   7.797   2.144  11.238  0.5286  0.4817 -0.0859
 7767SOL    HW124742   7.774   2.234  11.216  0.5221  0.3525 -0.6357
 7767SOL    HW224743   7.890   2.146  11.257  0.5616  0.5762 -0.2587
 7768SOL     OW24744   2.329   1.409   7.361 -0.4019 -0.0333 -0.0993
 7768SOL    HW124745   2.365   1.321   7.374 -1.0850 -0.3552 -0.3294
 7768SOL    HW224746   2.406   1.466   7.363 -0.1686 -0.2337  3.2357
 7769SOL     OW24747   5.842   0.389  12.235  0.2948  0.5527  0.3668
 7769SOL    HW124748   5.866   0.308  12.279 -1.8078 -0.7272 -0.6905
 7769SOL    HW224749   5.748   0.398  12.249 -0.3461  0.5236 -2.9681
 7770SOL     OW24750   2.134   6.649   8.828 -0.0421 -0.0161  0.1526
 7770SOL    HW124751   2.058   6.616   8.780  0.3684  1.3758 -1.5409
 7770SOL    HW224752   2.101   6.724   8.876  0.3766  1.0593 -1.1860
 7771SOL     OW24753   4.629   4.667  10.160 -0.2728  0.1962  0.5716
 7771SOL    HW124754   4.560   4.656  10.094  1.0758 -1.2149 -0.6820
 7771SOL    HW224755   4.644   4.761  10.163 -0.9125  0.3595 -0.5604
 7772SOL     OW24756   1.363   2.713   9.145  0.7749 -0.3619  0.1772
 7772SOL    HW124757   1.448   2.735   9.107  0.1977  1.4677 -0.1560
 7772SOL    HW224758   1.366   2.749   9.233 -0.4132  1.7807 -0.5852
 7773SOL     OW24759   1.363   4.927  11.783 -0.4180 -0.1487 -0.2052
 7773SOL    HW124760   1.449   4.915  11.823 -0.8783 -1.0649  0.5417
 7773SOL    HW224761   1.370   5.009  11.735  0.9254 -0.2919 -0.2859
 7774SOL     OW24762   6.279   2.266   0.684  0.1187  0.1790  0.4197
 7774SOL    HW124763   6.279   2.171   0.667 -0.8046  0.6702 -3.1378
 7774SOL    HW224764   6.191   2.286   0.713  0.2056 -0.0046  0.8097
 7775SOL     OW24765   6.797   5.997   8.516 -0.2282  0.2621 -0.2789
 7775SOL    HW124766   6.724   6.036   8.564  0.5382 -0.5460  1.6669
 7775SOL    HW224767   6.801   5.907   8.547  0.5027 -0.2343 -1.7074
 7776SOL     OW24768   0.824   6.006   3.736  0.3712 -0.1917 -0.0497
 7776SOL    HW124769   0.789   5.978   3.651  0.8972 -1.6973  0.2054
 7776SOL    HW224770   0.751   5.999   3.796 -0.0406  1.0110 -0.3831
 7777SOL     OW24771   6.608   1.053   8.166 -0.1613 -0.3864 -0.1928
 7777SOL    HW124772   6.556   1.016   8.094 -1.0576  0.2275  0.1372
 7777SOL    HW224773   6.694   1.010   8.156 -1.2251 -2.8266  0.3734
 7778SOL     OW24774   5.249   0.474   0.776  0.1323  0.8165  0.3168
 7778SOL    HW124775   5.217   0.389   0.746  0.5324  0.3253  1.2290
 7778SOL    HW224776   5.270   0.521   0.696 -0.2145  0.1038 -0.2094
 7779SOL     OW24777   2.517   1.675   6.892 -0.0539 -0.1820 -0.1625
 7779SOL    HW124778   2.579   1.748   6.881 -0.6304  0.3413  0.0264
 7779SOL    HW224779   2.468   1.673   6.810 -0.0214 -0.3792 -0.1774
 7780SOL     OW24780   4.092   3.347   1.976  0.2095  0.5037 -0.2302
 7780SOL    HW124781   4.142   3.313   1.902  0.9686  2.1778 -0.5402
 7780SOL    HW224782   4.002   3.321   1.958  0.4817  0.3109 -1.4222
 7781SOL     OW24783   0.051   0.769   3.413 -0.1946 -0.1174 -0.0675
 7781SOL    HW124784   0.145   0.752   3.413 -0.0968  0.0567 -2.3877
 7781SOL    HW224785   0.025   0.761   3.321 -3.1908 -3.8639  0.8593
 7782SOL     OW24786   4.806   2.203   0.851 -0.3100 -0.0092  0.1594
 7782SOL    HW124787   4.790   2.133   0.915  0.8826 -2.5322 -2.0976
 7782SOL    HW224788   4.720   2.220   0.812 -1.0030  1.3776  2.1188
 7783SOL     OW24789   4.707   5.460   4.974  0.1248 -0.0866  0.4739
 7783SOL    HW124790   4.658   5.516   5.033  0.0349 -0.9261  1.2139
 7783SOL    HW224791   4.799   5.477   4.995  0.2207  1.7576 -1.1633
 7784SOL     OW24792   4.513   3.416   0.502  0.0923  0.3839 -0.4480
 7784SOL    HW124793   4.536   3.360   0.576 -1.8557  2.0617  1.6023
 7784SOL    HW224794   4.549   3.502   0.525 -0.7507  0.9913 -1.3028
 7785SOL     OW24795   3.800   4.862   1.170  0.0488  0.9392  0.8188
 7785SOL    HW124796   3.747   4.927   1.123 -1.6384 -0.5911  0.4996
 7785SOL    HW224797   3.753   4.848   1.252  0.1524 -0.1621  0.7085
 7786SOL     OW24798   6.149   2.681   5.855  0.2176 -1.0296  0.4790
 7786SOL    HW124799   6.086   2.669   5.784  0.3996 -1.6967  0.4285
 7786SOL    HW224800   6.235   2.665   5.814  0.4903  0.5155  0.3881
 7787SOL     OW24801   6.889   0.039   7.479 -0.0569  0.1460 -0.1407
 7787SOL    HW124802   6.943   0.054   7.401  1.1519  0.7662  0.7912
 7787SOL    HW224803   6.908   0.113   7.536  1.3927 -1.7557  2.0287
 7788SOL     OW24804   7.663   1.398   4.857 -0.5974  0.1407  0.6678
 7788SOL    HW124805   7.667   1.477   4.911 -0.0366  0.7485 -0.2446
 7788SOL    HW224806   7.745   1.397   4.809 -1.4582  0.1172 -0.8715
 7789SOL     OW24807   7.865   6.353   4.944 -0.6308  0.5654 -0.1883
 7789SOL    HW124808   7.957   6.328   4.958  0.2965  2.2727 -2.5343
 7789SOL    HW224809   7.824   6.275   4.908  0.2611  0.1609 -0.3590
 7790SOL     OW24810   0.034   0.865   7.773  0.2210 -0.3101 -0.8120
 7790SOL    HW124811   0.026   0.832   7.863 -1.1431  0.9359 -0.4176
 7790SOL    HW224812   0.065   0.955   7.784  1.7202 -0.6915 -1.7127
 7791SOL     OW24813   6.807   0.966   2.343  0.1678  0.1706 -0.0372
 7791SOL    HW124814   6.748   0.996   2.274 -2.1980 -1.8640  0.9531
 7791SOL    HW224815   6.893   0.960   2.300 -0.3521  2.7926 -1.6444
 7792SOL     OW24816   6.971   1.780   7.126  0.1322 -0.8955 -0.3707
 7792SOL    HW124817   6.915   1.819   7.193  1.9362  1.7167 -0.2383
 7792SOL    HW224818   6.948   1.825   7.045  2.2804  0.6649 -0.2119
 7793SOL     OW24819   1.307   6.930  10.002 -0.2377  0.4274  0.1958
 7793SOL    HW124820   1.280   6.986   9.929  0.9114  2.2443  1.0700
 7793SOL    HW224821   1.234   6.870  10.015  0.3204 -1.4311 -3.7462
 7794SOL     OW24822   1.125   1.035   5.590 -0.5855 -0.1054 -0.2991
 7794SOL    HW124823   1.061   1.097   5.623  1.4501  2.0687 -0.1928
 7794SOL    HW224824   1.164   0.997   5.669 -1.3144 -1.0275 -0.3617
 7795SOL     OW24825   1.994   6.308   1.349  0.1120  0.2032  0.1576
 7795SOL    HW124826   1.965   6.350   1.430  0.8668 -1.0103  1.1099
 7795SOL    HW224827   2.090   6.309   1.355  0.1783  0.2692 -0.8146
 7796SOL     OW24828   4.349   1.512   9.929  0.1043  0.0200  0.1768
 7796SOL    HW124829   4.413   1.556   9.873  0.4968 -0.2058  0.4411
 7796SOL    HW224830   4.312   1.582   9.982  0.5245  0.0762  0.4019
 7797SOL     OW24831   3.584   1.959   0.618 -0.3187  0.4310  0.6000
 7797SOL    HW124832   3.678   1.948   0.604 -0.7880 -1.2997 -2.0708
 7797SOL    HW224833   3.547   1.875   0.593 -2.7187  1.6482 -0.2411
 7798SOL     OW24834   5.277   1.130  10.793 -0.5775 -0.2287 -0.0027
 7798SOL    HW124835   5.238   1.214  10.815  0.5046  0.3855 -0.3633
 7798SOL    HW224836   5.223   1.096  10.721 -3.0437 -1.4269  2.2590
 7799SOL     OW24837   4.364   3.551   7.867 -0.1915  0.1713 -0.2960
 7799SOL    HW124838   4.454   3.582   7.863  0.9383 -2.7705  0.3240
 7799SOL    HW224839   4.358   3.485   7.798 -1.0161 -1.5759  1.3571
 7800SOL     OW24840   1.762   4.200   6.470  0.1431  0.4067  0.5899
 7800SOL    HW124841   1.847   4.162   6.450  0.4521  0.5628  1.5261
 7800SOL    HW224842   1.723   4.139   6.533 -0.1946  0.6283  0.5993
 7801SOL     OW24843   1.680   5.270   4.875  0.8095  0.1705 -0.1306
 7801SOL    HW124844   1.684   5.362   4.899 -0.3294  0.1063  0.3449
 7801SOL    HW224845   1.587   5.248   4.879  0.9598 -0.7375 -1.2398
 7802SOL     OW24846   1.975   6.111   7.023  0.0381  0.4152  0.7953
 7802SOL    HW124847   2.022   6.194   7.030  0.5317  0.2127 -0.0251
 7802SOL    HW224848   1.975   6.090   6.930  0.6855 -0.9416  1.0666
 7803SOL     OW24849   5.094   2.309   4.175  0.2073 -0.1294  0.3989
 7803SOL    HW124850   5.116   2.388   4.225 -1.7684 -0.1426  1.3940
 7803SOL    HW224851   5.060   2.248   4.241  1.2577 -1.6678 -0.4296
 7804SOL     OW24852   1.151   5.184   3.921 -0.0338  0.0834 -0.3463
 7804SOL    HW124853   1.116   5.109   3.968  0.6626  0.5164  0.9025
 7804SOL    HW224854   1.245   5.171   3.920 -0.0253  0.0993 -1.6302
 7805SOL     OW24855   2.177   5.334   7.972 -0.3738  0.1664 -0.1469
 7805SOL    HW124856   2.201   5.405   7.913  1.5404 -0.8946 -0.7797
 7805SOL    HW224857   2.141   5.266   7.915 -0.7350  0.0382  0.2266
 7806SOL     OW24858   0.654   0.330   1.918  0.5211  0.1323  0.0068
 7806SOL    HW124859   0.611   0.306   1.836  1.0896 -0.8996 -0.0116
 7806SOL    HW224860   0.658   0.426   1.916 -0.5948  0.1899 -0.5756
 7807SOL     OW24861   4.952   3.092  12.464  0.3062 -0.1594  0.3316
 7807SOL    HW124862   5.047   3.086  12.468  0.4101  0.9628 -0.2182
 7807SOL    HW224863   4.922   3.052  12.546  1.1907 -1.4716  0.0463
 7808SOL     OW24864   6.056   5.059   7.997  0.0372  0.0442 -0.2435
 7808SOL    HW124865   6.132   5.117   7.995  0.0656  0.1370  1.3996
 7808SOL    HW224866   6.085   4.978   7.956  0.5194  0.6176 -1.0461
 7809SOL     OW24867   4.493   7.198   2.660  0.1480  0.1762  0.4424
 7809SOL    HW124868   4.415   7.254   2.662  0.6277  1.0062 -1.4112
 7809SOL    HW224869   4.560   7.252   2.617  2.4606  0.3073  3.8123
 7810SOL     OW24870   4.524   5.945  10.855 -0.0832  0.3154  0.7194
 7810SOL    HW124871   4.454   5.888  10.823  1.6089  0.1722 -3.3094
 7810SOL    HW224872   4.587   5.884  10.895 -0.7452  0.0935  1.4666
 7811SOL     OW24873   3.308   5.460  11.943  0.5808  0.0182  0.1839
 7811SOL    HW124874   3.213   5.461  11.929  0.7880  1.4270 -1.4430
 7811SOL    HW224875   3.319   5.483  12.035 -0.6675 -1.7559  0.8467
 7812SOL     OW24876   7.037   4.392   5.000 -0.4187  0.1720 -0.5729
 7812SOL    HW124877   7.117   4.421   4.956  0.6634 -3.4265 -1.3256
 7812SOL    HW224878   7.065   4.373   5.090 -0.6169 -0.2273 -0.5926
 7813SOL     OW24879   3.615   7.284   0.934 -0.1776  0.2218  0.1430
 7813SOL    HW124880   3.582   7.310   1.020 -0.4340  1.6102 -0.3534
 7813SOL    HW224881   3.698   7.330   0.924  1.0775 -1.8178  0.6126
 7814SOL     OW24882   4.473   2.053   4.979  0.0495  0.1445 -0.5888
 7814SOL    HW124883   4.449   2.106   4.903 -0.3293  0.2487 -0.4001
 7814SOL    HW224884   4.500   1.968   4.942 -0.7054 -0.0066 -0.8074
 7815SOL     OW24885   6.041   1.512   8.711 -0.0438  0.0221 -0.2370
 7815SOL    HW124886   6.109   1.456   8.748 -0.4179  0.4121  1.1142
 7815SOL    HW224887   6.017   1.570   8.783 -1.8494 -0.1602 -0.6523
 7816SOL     OW24888   4.452   3.570   2.664  0.7676 -0.6356 -0.3878
 7816SOL    HW124889   4.533   3.578   2.613  0.4626  0.2895 -0.7573
 7816SOL    HW224890   4.479   3.585   2.754  0.9558  0.1441 -0.5607
 7817SOL     OW24891   6.163   6.439   2.861  0.8932  0.0253  0.3396
 7817SOL    HW124892   6.171   6.499   2.935 -0.4941  0.5574  0.0868
 7817SOL    HW224893   6.071   6.446   2.834  1.6197  0.7778 -2.1977
 7818SOL     OW24894   0.418   0.218  11.099  0.4955  0.0683 -0.3838
 7818SOL    HW124895   0.443   0.211  11.006  0.7856 -0.3117 -0.2767
 7818SOL    HW224896   0.324   0.239  11.097 -0.1166 -2.4646 -0.7280
 7819SOL     OW24897   3.092   1.736   9.053 -0.0752  0.0319 -0.7120
 7819SOL    HW124898   3.141   1.702   8.978 -0.2718  1.4737 -1.5315
 7819SOL    HW224899   3.125   1.825   9.065  1.0551 -0.6282  1.9242
 7820SOL     OW24900   3.223   1.782  10.294  0.3104 -0.0702  0.3066
 7820SOL    HW124901   3.206   1.715  10.360 -0.6714 -0.6475 -0.4837
 7820SOL    HW224902   3.189   1.744  10.213 -0.6443  1.5265 -0.1034
 7821SOL     OW24903   3.140   5.094   1.381  0.3923  0.0258  0.2865
 7821SOL    HW124904   3.076   5.153   1.421 -1.0601 -1.5046  0.3518
 7821SOL    HW224905   3.129   5.012   1.430  1.0046 -0.8636 -1.0296
 7822SOL     OW24906   5.564   1.894   8.732 -0.5174 -0.1377  0.3238
 7822SOL    HW124907   5.504   1.927   8.799 -0.6912 -0.6380  0.4126
 7822SOL    HW224908   5.562   1.962   8.664 -0.0236  0.5764  0.9948
 7823SOL     OW24909   1.015   4.384   8.789 -0.2279 -0.0397  0.1469
 7823SOL    HW124910   1.034   4.436   8.868  0.4375 -0.3250  0.1867
 7823SOL    HW224911   0.956   4.316   8.820 -0.5512  0.2840  0.2447
 7824SOL     OW24912   1.203   1.054  12.433 -0.2956  0.4016  0.3626
 7824SOL    HW124913   1.286   1.042  12.480  1.1492  1.5614 -1.7403
 7824SOL    HW224914   1.154   0.973  12.450  0.5005  0.3614  3.0202
 7825SOL     OW24915   6.894   7.629  10.220 -0.4439 -0.0987 -0.4276
 7825SOL    HW124916   6.830   7.676  10.166 -0.6485 -0.9954 -0.9794
 7825SOL    HW224917   6.969   7.617  10.163 -0.2511 -0.1293 -0.1706
 7826SOL     OW24918   4.829   4.285   5.863 -0.1380  0.1120 -0.0646
 7826SOL    HW124919   4.924   4.294   5.850 -0.1464 -1.7188 -1.8575
 7826SOL    HW224920   4.820   4.247   5.950  0.9406 -1.6112 -0.6524
 7827SOL     OW24921   5.011   5.851   7.949 -0.0094  0.7055  0.5734
 7827SOL    HW124922   4.954   5.785   7.910 -0.5747  1.9836 -0.8675
 7827SOL    HW224923   4.981   5.859   8.040 -0.7516 -0.1077  0.4070
 7828SOL     OW24924   5.171   3.899  10.962 -0.5422 -0.4306  0.1454
 7828SOL    HW124925   5.161   3.945  10.878 -1.2597 -0.5121  0.1811
 7828SOL    HW224926   5.260   3.918  10.989  0.3668 -1.9697 -1.5645
 7829SOL     OW24927   0.596   0.486   0.017 -0.3255 -0.0453 -0.3164
 7829SOL    HW124928   0.620   0.517   0.104  1.4332 -0.6452 -0.5483
 7829SOL    HW224929   0.587   0.392   0.026  1.0126 -0.2647 -0.9919
 7830SOL     OW24930   2.083   7.040   3.106  0.3653 -0.0382  0.0769
 7830SOL    HW124931   2.008   7.067   3.053  0.2915  2.1834  1.1949
 7830SOL    HW224932   2.055   7.055   3.197  1.9506  0.3257  0.5324
 7831SOL     OW24933   4.645   2.820   7.833 -0.2265 -0.3363 -0.3954
 7831SOL    HW124934   4.711   2.884   7.858 -0.5925  0.4305 -1.3401
 7831SOL    HW224935   4.568   2.844   7.885 -0.0328 -0.7364  0.0994
 7832SOL     OW24936   7.408   3.910   2.842 -0.2304  0.1637  0.4817
 7832SOL    HW124937   7.433   3.904   2.935  0.3283 -1.4374  0.2479
 7832SOL    HW224938   7.488   3.890   2.794 -1.2296 -2.3200 -0.3116
 7833SOL     OW24939   7.719   2.393   4.013  0.0133 -0.2476  0.0519
 7833SOL    HW124940   7.700   2.432   3.928  1.6194  1.0244  0.2199
 7833SOL    HW224941   7.802   2.347   4.000  1.0151  1.1145  1.2047
 7834SOL     OW24942   1.068   5.986   4.435  0.0136 -0.2521 -0.3656
 7834SOL    HW124943   1.002   5.918   4.420  1.9289 -1.7389 -2.8809
 7834SOL    HW224944   1.135   5.943   4.487  1.0432 -0.2271 -1.6169
 7835SOL     OW24945   4.058   6.306   2.903 -0.0260 -0.3197  0.4062
 7835SOL    HW124946   4.056   6.401   2.902  0.6327 -0.3020 -0.7755
 7835SOL    HW224947   4.151   6.283   2.908  0.0096 -0.8604 -1.7395
 7836SOL     OW24948   0.779   1.515   2.022 -0.1134 -0.0838 -0.6453
 7836SOL    HW124949   0.762   1.446   1.958 -1.4993  0.1879 -0.6163
 7836SOL    HW224950   0.802   1.469   2.102 -0.8734 -0.5224 -0.6695
 7837SOL     OW24951   6.722   1.666   7.363  0.2312  0.2755  0.0519
 7837SOL    HW124952   6.753   1.749   7.327 -1.1910  1.2021  0.8774
 7837SOL    HW224953   6.655   1.637   7.301 -0.3260  0.4993  0.5533
 7838SOL     OW24954   7.179   7.121   5.956  0.3002 -0.0270  0.1408
 7838SOL    HW124955   7.085   7.135   5.969  0.3529  1.3065 -0.6659
 7838SOL    HW224956   7.189   7.026   5.953 -0.9104 -0.2066  0.9658
 7839SOL     OW24957   4.058   2.742   7.367 -0.4007 -0.2462 -0.4746
 7839SOL    HW124958   4.009   2.823   7.381 -0.8173 -0.3759 -1.1794
 7839SOL    HW224959   4.139   2.755   7.416  0.2243  1.2251 -1.8061
 7840SOL     OW24960   0.141   3.960   7.756 -0.0784 -0.6690 -0.2572
 7840SOL    HW124961   0.177   3.871   7.755 -0.0807 -0.6731 -0.0725
 7840SOL    HW224962   0.059   3.952   7.804 -1.3569 -1.0376 -2.3905
 7841SOL     OW24963   6.596   7.454   2.947  0.2053 -0.0417  0.0178
 7841SOL    HW124964   6.521   7.510   2.928  0.1818  0.2604  0.9379
 7841SOL    HW224965   6.566   7.398   3.019 -0.1348 -1.9894 -1.5580
 7842SOL     OW24966   5.060   3.230   0.442 -0.3471  0.3204 -0.6854
 7842SOL    HW124967   5.138   3.216   0.388  0.1508  0.7450 -0.0999
 7842SOL    HW224968   5.058   3.325   0.456 -0.9307  0.3042 -0.6382
 7843SOL     OW24969   1.184   6.502   0.885 -0.2324  0.2378 -0.2707
 7843SOL    HW124970   1.123   6.451   0.938 -0.9578  2.1082  0.8005
 7843SOL    HW224971   1.193   6.452   0.804 -1.0502 -1.4451  0.6265
 7844SOL     OW24972   5.689   0.860   3.131 -0.2214  0.1127 -0.2484
 7844SOL    HW124973   5.608   0.880   3.179 -0.6217 -1.3402 -0.2818
 7844SOL    HW224974   5.759   0.879   3.193 -0.6095  0.5873  0.0623
 7845SOL     OW24975   4.876   7.473   7.691  0.1144 -0.2799 -0.2698
 7845SOL    HW124976   4.803   7.444   7.637 -0.2468 -2.7223  1.3274
 7845SOL    HW224977   4.930   7.527   7.633 -1.7535 -0.3133 -2.1423
 7846SOL     OW24978   7.310   7.758   5.934  0.0413  0.2342 -0.1857
 7846SOL    HW124979   7.217   7.740   5.929  0.0175  0.5723 -1.1373
 7846SOL    HW224980   7.319   7.849   5.905  0.7692 -0.1279 -1.1668
 7847SOL     OW24981   0.618   6.298  10.435 -0.0369  0.2072 -0.2921
 7847SOL    HW124982   0.569   6.369  10.394 -1.9430  1.2480  3.3842
 7847SOL    HW224983   0.556   6.226  10.442  0.8056 -0.5947 -0.7204
 7848SOL     OW24984   4.993   2.386   0.798  0.2580 -0.3111  0.2576
 7848SOL    HW124985   4.951   2.381   0.884  1.4091  0.0560  0.8591
 7848SOL    HW224986   4.968   2.304   0.754 -0.2964 -0.5225  0.9494
 7849SOL     OW24987   7.369   7.628  12.280  0.1047 -0.2011  0.1358
 7849SOL    HW124988   7.405   7.551  12.235  1.0341 -0.2495  0.9276
 7849SOL    HW224989   7.351   7.598  12.369  0.9666  0.6203  0.6014
 7850SOL     OW24990   3.368   6.185   7.021  0.1828  0.3364 -0.0273
 7850SOL    HW124991   3.396   6.191   6.930 -0.7900 -0.1460 -0.3759
 7850SOL    HW224992   3.362   6.276   7.051 -0.1555  0.5191 -0.6496
 7851SOL     OW24993   2.244   5.288   3.263  0.3831  0.1236  0.0132
 7851SOL    HW124994   2.195   5.307   3.343  0.6955  0.4830  0.1217
 7851SOL    HW224995   2.180   5.300   3.193 -0.4042 -2.0008  0.3035
 7852SOL     OW24996   3.161   5.129   4.672  0.1178 -0.2844 -0.0792
 7852SOL    HW124997   3.068   5.134   4.651  0.5027  0.3141 -1.7725
 7852SOL    HW224998   3.166   5.061   4.739 -1.6121  0.2050  0.6007
 7853SOL     OW24999   2.554   5.494   9.357  0.2260  0.0907 -0.3356
 7853SOL    HW125000   2.508   5.487   9.441  0.6586 -0.0130 -0.1071
 7853SOL    HW225001   2.502   5.440   9.298  1.7318 -2.6411  0.6396
 7854SOL     OW25002   4.401   1.537   9.197 -0.5402  0.3596 -0.3164
 7854SOL    HW125003   4.370   1.625   9.175 -0.4131  0.1922 -1.2102
 7854SOL    HW225004   4.496   1.542   9.186 -0.4071  0.3941  0.7069
 7855SOL     OW25005   7.419   0.211   3.035  0.5223  0.2154 -0.5421
 7855SOL    HW125006   7.489   0.146   3.039  1.5289  1.3066  0.9630
 7855SOL    HW225007   7.338   0.161   3.045  1.2235 -0.8578 -0.0520
 7856SOL     OW25008   3.145   4.072   2.336 -0.3255  0.0098 -0.2591
 7856SOL    HW125009   3.200   4.140   2.297 -2.3164  1.7399 -0.2258
 7856SOL    HW225010   3.101   4.116   2.409  0.3202 -2.0904  1.5177
 7857SOL     OW25011   6.122   2.593   0.434 -0.0592  0.0948 -0.3587
 7857SOL    HW125012   6.099   2.657   0.501 -0.8721 -0.9476  0.3872
 7857SOL    HW225013   6.212   2.615   0.410  0.1273  0.7091  0.8243
 7858SOL     OW25014   2.909   3.103  10.022 -0.2614 -0.2615  0.1138
 7858SOL    HW125015   2.821   3.103   9.985 -0.3898  0.3035  0.4072
 7858SOL    HW225016   2.935   3.011  10.022 -0.1418 -0.2489 -1.6176
 7859SOL     OW25017   2.650   0.062   0.075  0.6424 -0.1451 -0.0646
 7859SOL    HW125018   2.644  -0.008   0.009 -2.6955  0.3534 -0.4525
 7859SOL    HW225019   2.726   0.038   0.128  0.4160 -3.3529 -0.9715
 7860SOL     OW25020   6.074   6.286   6.143  0.0753  0.9935 -0.6668
 7860SOL    HW125021   5.999   6.322   6.097 -1.4924 -2.6839 -1.3842
 7860SOL    HW225022   6.135   6.260   6.074  1.4571  2.6544 -0.1455
 7861SOL     OW25023   7.216   6.914   1.533  0.6460  0.0062 -0.4646
 7861SOL    HW125024   7.191   6.901   1.441  2.2536 -1.2716 -0.7808
 7861SOL    HW225025   7.290   6.854   1.546  0.6331  0.3663  1.5998
 7862SOL     OW25026   1.360   0.724   6.485  0.6907  0.1548  0.1744
 7862SOL    HW125027   1.336   0.682   6.567  1.6337 -1.0225 -0.1297
 7862SOL    HW225028   1.281   0.717   6.431 -0.1636  1.5431  1.1757
 7863SOL     OW25029   3.041   4.642   2.937 -0.1614 -0.0376  0.0841
 7863SOL    HW125030   3.110   4.628   3.003  0.5029  1.4685 -0.2491
 7863SOL    HW225031   2.966   4.595   2.972  1.5080 -3.3935 -0.4514
 7864SOL     OW25032   3.271   0.905   3.321 -0.2477 -0.3565  0.6224
 7864SOL    HW125033   3.195   0.945   3.279 -0.4880 -0.0844  1.3090
 7864SOL    HW225034   3.288   0.826   3.269 -0.9152 -0.3536  0.3859
 7865SOL     OW25035   3.808   7.948   8.611 -0.4711  0.2332 -0.2427
 7865SOL    HW125036   3.769   8.022   8.565 -0.1655  0.6287  0.1224
 7865SOL    HW225037   3.748   7.930   8.684  0.3068  1.2262  0.6709
 7866SOL     OW25038   5.955   2.252  10.726 -0.6793  0.2879 -0.2876
 7866SOL    HW125039   6.024   2.194  10.759  0.5122  1.9958  0.3814
 7866SOL    HW225040   5.878   2.229  10.778  0.1040  0.1285  0.8412
 7867SOL     OW25041   3.209   3.740   7.136 -0.6737  0.4261  0.1258
 7867SOL    HW125042   3.171   3.828   7.126  0.8932  1.1178 -0.0697
 7867SOL    HW225043   3.153   3.683   7.084 -1.7591  1.2941  0.3062
 7868SOL     OW25044   0.649   4.607   0.451  0.0114 -0.4490 -0.5497
 7868SOL    HW125045   0.580   4.629   0.514 -0.6980 -0.3035 -1.3585
 7868SOL    HW225046   0.714   4.676   0.462 -0.6635  0.2466 -0.7839
 7869SOL     OW25047   7.959   5.970  12.083  0.3925  0.1076 -0.0328
 7869SOL    HW125048   7.892   6.018  12.035  0.9114  0.9183  0.0331
 7869SOL    HW225049   8.013   5.929  12.016  0.7027  0.6642 -0.1218
 7870SOL     OW25050   5.576   1.584   1.557 -0.1854  0.1128  0.3592
 7870SOL    HW125051   5.525   1.575   1.476  0.3088 -0.3089  0.0897
 7870SOL    HW225052   5.557   1.673   1.587 -0.3652  0.2783 -0.2293
 7871SOL     OW25053   2.070   2.925   4.088 -0.2252  0.3844 -0.9082
 7871SOL    HW125054   2.043   2.931   4.180  0.8170  0.6611 -0.6056
 7871SOL    HW225055   2.101   3.013   4.067 -1.6147  0.6698 -1.9250
 7872SOL     OW25056   2.338   7.873   4.023  0.1249  0.7174  0.2468
 7872SOL    HW125057   2.266   7.826   3.980  0.8285 -1.4786  1.2920
 7872SOL    HW225058   2.402   7.887   3.954  0.6098 -1.4706  0.1510
 7873SOL     OW25059   0.561   7.950   2.303 -0.1189 -0.3309  0.0235
 7873SOL    HW125060   0.601   8.005   2.236 -2.3090  1.3414 -0.0389
 7873SOL    HW225061   0.580   7.995   2.385  1.6463 -1.8052  0.4819
 7874SOL     OW25062   2.321   3.076   8.234 -0.2486  0.6365 -0.4907
 7874SOL    HW125063   2.378   3.072   8.311 -1.0902 -1.1153  0.0990
 7874SOL    HW225064   2.376   3.044   8.162 -0.1348  0.0422 -0.1490
 7875SOL     OW25065   5.954   3.014   1.160  0.3963 -0.4042 -0.0391
 7875SOL    HW125066   5.894   2.940   1.149 -0.2354  0.1033 -0.0634
 7875SOL    HW225067   5.898   3.091   1.156  0.6669  0.0096  2.6334
 7876SOL     OW25068   6.886   5.254   9.830 -0.1915  0.6822  0.3135
 7876SOL    HW125069   6.858   5.325   9.888  1.1537  0.9107  0.7206
 7876SOL    HW225070   6.891   5.177   9.887 -0.7789  0.4542  0.0637
 7877SOL     OW25071   2.422   7.020   4.224 -0.5116  0.8537 -0.4930
 7877SOL    HW125072   2.458   7.090   4.169 -1.1149  1.0634 -0.6223
 7877SOL    HW225073   2.336   7.001   4.186 -0.8922  0.9294  0.3160
 7878SOL     OW25074   2.403   6.987   5.006  0.0437 -0.7283  0.1170
 7878SOL    HW125075   2.417   7.081   5.017  1.7039 -0.8289 -0.7614
 7878SOL    HW225076   2.491   6.950   5.003 -0.5713 -2.6009  2.4775
 7879SOL     OW25077   0.775   5.401   9.781  0.3026  0.5188  0.0860
 7879SOL    HW125078   0.779   5.459   9.704 -1.1834  0.5107 -0.0147
 7879SOL    HW225079   0.726   5.325   9.751  0.0002  0.3651  0.9552
 7880SOL     OW25080   3.070   5.523   2.993  0.2573 -0.0230 -0.0691
 7880SOL    HW125081   3.101   5.552   3.079  1.8155  0.5760 -0.7923
 7880SOL    HW225082   3.116   5.580   2.931 -0.7070 -0.5586 -1.3056
 7881SOL     OW25083   1.033   4.785   0.295  0.1702  0.7773 -0.6227
 7881SOL    HW125084   1.061   4.876   0.311  0.8285  0.5055 -0.1760
 7881SOL    HW225085   1.084   4.733   0.357 -1.1207  0.2113 -0.0038
 7882SOL     OW25086   0.408   7.376   5.813  0.2529 -0.5469  0.1133
 7882SOL    HW125087   0.465   7.372   5.890  1.3226 -0.4369 -0.6427
 7882SOL    HW225088   0.331   7.326   5.837  0.4414 -0.2740  1.3543
 7883SOL     OW25089   4.198   4.488   9.436  0.7386  0.6170 -0.1450
 7883SOL    HW125090   4.197   4.577   9.472  1.4886  0.2238  0.9214
 7883SOL    HW225091   4.291   4.470   9.422  0.5378  0.2563 -1.0422
 7884SOL     OW25092   6.246   0.770   2.508  0.1213  0.2823 -0.5757
 7884SOL    HW125093   6.239   0.852   2.461 -0.4047  0.1843 -0.6715
 7884SOL    HW225094   6.333   0.772   2.548  0.5961  0.3486 -1.5790
 7885SOL     OW25095   2.559   4.822   4.064 -0.4084  0.4443  0.3033
 7885SOL    HW125096   2.593   4.904   4.100 -1.8672  1.0473  0.3753
 7885SOL    HW225097   2.636   4.767   4.053  0.6291  1.8991  0.0530
 7886SOL     OW25098   5.276   2.455   3.114 -0.0579 -0.0313  0.2565
 7886SOL    HW125099   5.188   2.488   3.136 -0.0209 -0.0494  0.4333
 7886SOL    HW225100   5.259   2.377   3.060 -0.1776 -0.7537  1.3012
 7887SOL     OW25101   6.317   4.688   7.184 -0.6234 -0.9491  0.0160
 7887SOL    HW125102   6.313   4.778   7.151 -1.4679 -1.2618 -0.7665
 7887SOL    HW225103   6.362   4.696   7.268  0.2430  0.0649 -0.5204
 7888SOL     OW25104   1.630   5.963   4.118 -0.1082 -0.0467  0.1797
 7888SOL    HW125105   1.614   5.949   4.024 -0.2856  0.6302  0.1032
 7888SOL    HW225106   1.643   5.875   4.153  2.2897 -0.2030 -0.8769
 7889SOL     OW25107   0.368   2.868   0.529 -0.3455 -0.4701  0.2981
 7889SOL    HW125108   0.320   2.938   0.574 -0.4621 -0.7293  0.5814
 7889SOL    HW225109   0.390   2.805   0.598  1.0886  0.0115  0.3086
 7890SOL     OW25110   2.648   4.095   6.465  0.2650  0.4397 -0.2759
 7890SOL    HW125111   2.669   4.084   6.372  0.9648 -2.9918  0.1612
 7890SOL    HW225112   2.613   4.011   6.492  0.6915  1.1065  2.7373
 7891SOL     OW25113   2.369   5.213  11.006  1.0537 -0.1217  0.2928
 7891SOL    HW125114   2.379   5.121  10.981 -1.0001  0.1689 -1.9867
 7891SOL    HW225115   2.394   5.262  10.928  0.7001  1.1898  0.9740
 7892SOL     OW25116   6.218   2.495   3.587 -0.0103  0.4142 -0.3807
 7892SOL    HW125117   6.179   2.544   3.658  0.7087  1.1898 -0.5092
 7892SOL    HW225118   6.201   2.403   3.609 -0.4251  0.6742  0.4073
 7893SOL     OW25119   1.764   2.941   5.184  0.2148  0.1319  0.3986
 7893SOL    HW125120   1.804   2.991   5.255  2.3623 -0.7545 -0.0912
 7893SOL    HW225121   1.813   2.967   5.106 -2.1717  1.1889 -0.8625
 7894SOL     OW25122   7.637   7.220   7.900 -0.6234  0.2997  0.4634
 7894SOL    HW125123   7.604   7.275   7.828  0.9077 -0.3867 -0.8150
 7894SOL    HW225124   7.559   7.173   7.931 -1.2787  0.3627 -0.9785
 7895SOL     OW25125   0.334   7.745   1.027 -0.0775  0.0015 -0.1906
 7895SOL    HW125126   0.333   7.764   0.933 -0.6323  0.3680 -0.1138
 7895SOL    HW225127   0.292   7.821   1.068  0.1817 -0.1407  0.3585
 7896SOL     OW25128   5.137   3.670  10.233  0.2789 -0.1118  0.9853
 7896SOL    HW125129   5.074   3.604  10.261 -0.6640 -0.0482 -0.8782
 7896SOL    HW225130   5.126   3.742  10.296 -0.8085 -0.5089  1.2706
 7897SOL     OW25131   4.538   7.002   6.919 -1.1183  0.4430  0.4410
 7897SOL    HW125132   4.446   7.016   6.943 -0.9459  1.5461  0.5351
 7897SOL    HW225133   4.542   6.911   6.889 -2.4354  0.6484 -0.4500
 7898SOL     OW25134   5.508   6.146   5.426 -0.2552  0.4010 -0.0849
 7898SOL    HW125135   5.416   6.122   5.420  0.1755 -1.0602 -2.1137
 7898SOL    HW225136   5.551   6.070   5.466 -0.1159  1.8453  2.7424
 7899SOL     OW25137   4.974   1.064  11.477  0.1863 -0.2909 -0.0131
 7899SOL    HW125138   5.060   1.049  11.517 -0.5665 -0.6357  1.5499
 7899SOL    HW225139   4.912   1.056  11.549 -1.2719 -1.1025 -1.2774
 7900SOL     OW25140   1.447   4.049  12.143 -0.0623 -0.2493 -0.1330
 7900SOL    HW125141   1.525   4.004  12.177 -0.2498 -0.9677 -0.6372
 7900SOL    HW225142   1.395   4.068  12.221  1.1853  1.3711  0.3480
 7901SOL     OW25143   7.601   0.792   2.820  0.3120  0.3264  0.4533
 7901SOL    HW125144   7.575   0.880   2.792  1.1512 -0.3721 -3.0170
 7901SOL    HW225145   7.518   0.749   2.842 -0.3258  1.3526  0.1323
 7902SOL     OW25146   3.381   7.691   7.003 -0.1001  0.3570 -0.3914
 7902SOL    HW125147   3.286   7.695   6.990 -0.2829  0.7149  0.9552
 7902SOL    HW225148   3.411   7.624   6.942 -1.0297  1.1978 -1.8316
 7903SOL     OW25149   6.711   7.978   3.335 -0.3051 -0.2900 -0.4319
 7903SOL    HW125150   6.622   7.953   3.310 -0.3064 -1.9276  1.0335
 7903SOL    HW225151   6.706   7.992   3.430  1.1204 -1.0704 -0.2205
 7904SOL     OW25152   1.510   7.736   9.844  0.0344  0.0615  0.4730
 7904SOL    HW125153   1.533   7.787   9.767  0.8307 -0.3459  0.4315
 7904SOL    HW225154   1.594   7.708   9.881 -0.3563 -2.8952 -0.6172
 7905SOL     OW25155   0.353   6.408   1.488  0.0655 -0.4013  0.1128
 7905SOL    HW125156   0.438   6.385   1.452  1.0089  4.4188 -1.5117
 7905SOL    HW225157   0.344   6.501   1.470 -3.8125  0.2864  3.9137
 7906SOL     OW25158   3.068   4.361   9.602 -0.2000  0.2652  0.2092
 7906SOL    HW125159   3.140   4.299   9.592  0.2790  0.6154  1.3365
 7906SOL    HW225160   3.061   4.403   9.516 -2.3154 -3.1611 -1.5107
 7907SOL     OW25161   3.155   2.852   7.671 -0.0506  0.2140  0.1137
 7907SOL    HW125162   3.193   2.900   7.597 -0.6784  0.0195 -0.3414
 7907SOL    HW225163   3.131   2.920   7.734  1.0516  0.3390  0.4144
 7908SOL     OW25164   4.719   2.170   2.979 -0.6690  0.0286  0.4615
 7908SOL    HW125165   4.651   2.223   3.021 -3.0640 -1.3643 -1.3796
 7908SOL    HW225166   4.690   2.080   2.991  1.7413 -0.7529  0.9644
 7909SOL     OW25167   7.845   0.993  12.163  0.2731  0.5340 -0.1027
 7909SOL    HW125168   7.840   0.980  12.258  1.0861 -0.4660 -0.1864
 7909SOL    HW225169   7.932   1.031  12.148  0.4851 -0.0984 -0.5202
 7910SOL     OW25170   1.592   3.968   1.393  0.2147 -0.2408  0.2835
 7910SOL    HW125171   1.535   4.025   1.341  1.0212  0.3646  0.0403
 7910SOL    HW225172   1.599   3.888   1.341 -0.1368 -0.1853  0.1499
 7911SOL     OW25173   1.534   0.740   7.018  0.1131  0.0658 -0.6745
 7911SOL    HW125174   1.593   0.681   6.972 -0.3728  0.5988 -2.0517
 7911SOL    HW225175   1.574   0.826   7.009 -0.8375  0.4354 -1.6233
 7912SOL     OW25176   7.841   6.501   5.345  0.0307 -0.1590 -0.0843
 7912SOL    HW125177   7.852   6.406   5.353 -0.2259 -0.0961  1.2131
 7912SOL    HW225178   7.872   6.521   5.257 -0.8021 -1.5749 -0.7312
 7913SOL     OW25179   3.921   7.064   6.359 -0.0802 -0.4938  0.7498
 7913SOL    HW125180   3.894   7.155   6.370 -0.6397 -0.4912 -0.4166
 7913SOL    HW225181   3.842   7.013   6.374  0.2372 -0.7896  1.4206
 7914SOL     OW25182   1.610   0.922   2.436  0.4858  0.5347 -0.6144
 7914SOL    HW125183   1.660   0.941   2.515 -2.1372 -2.2566  1.9844
 7914SOL    HW225184   1.629   0.830   2.417  0.0094  0.7713 -2.4484
 7915SOL     OW25185   5.820   0.825   4.748  0.3354  0.1401 -0.4045
 7915SOL    HW125186   5.899   0.878   4.744  0.6942 -0.4470 -1.7178
 7915SOL    HW225187   5.752   0.884   4.779  0.9098  1.1291 -1.0002
 7916SOL     OW25188   0.510   5.017  11.048 -0.2130 -0.1356 -0.7267
 7916SOL    HW125189   0.517   5.081  10.978 -0.0749 -0.0458 -0.6321
 7916SOL    HW225190   0.510   5.069  11.129  3.7411 -0.3505 -0.3716
 7917SOL     OW25191   4.067   1.338   3.802  0.0869  0.2745 -0.6265
 7917SOL    HW125192   3.981   1.376   3.787 -0.7686 -1.0834  0.5671
 7917SOL    HW225193   4.107   1.335   3.715 -0.8817  1.3428 -1.1301
 7918SOL     OW25194   2.230   6.255   8.095  0.5483  0.1433 -0.6886
 7918SOL    HW125195   2.233   6.278   8.188  3.5318  1.9721 -1.0995
 7918SOL    HW225196   2.194   6.167   8.092  0.2153  0.1143  2.1748
 7919SOL     OW25197   1.244   3.136   7.221 -0.5005 -0.1716  0.8595
 7919SOL    HW125198   1.165   3.132   7.167  0.4979 -1.2415 -0.5995
 7919SOL    HW225199   1.307   3.185   7.169  0.4245 -1.0470  1.1069
 7920SOL     OW25200   5.188   2.110   0.338 -0.1271 -0.2068  0.1730
 7920SOL    HW125201   5.205   2.017   0.322  0.2158 -0.2068  0.5303
 7920SOL    HW225202   5.176   2.147   0.250  1.4367 -0.2687 -0.0967
 7921SOL     OW25203   5.063   6.044   9.081 -0.0330 -0.7124 -0.2077
 7921SOL    HW125204   5.098   6.087   9.159  1.2388 -0.8073 -0.7036
 7921SOL    HW225205   5.035   5.958   9.111 -0.4478 -0.4028  0.3188
 7922SOL     OW25206   7.224   0.069   6.313 -0.2621 -0.5557  0.0666
 7922SOL    HW125207   7.273   0.085   6.394 -2.5745  2.0017  1.1067
 7922SOL    HW225208   7.197  -0.022   6.320 -0.1028 -0.5016  2.0185
 7923SOL     OW25209   0.380   7.194   0.751 -0.3649  0.4040 -0.0503
 7923SOL    HW125210   0.460   7.184   0.803 -0.5848 -0.0174  0.2105
 7923SOL    HW225211   0.341   7.275   0.782 -0.8296 -0.1746  0.9015
 7924SOL     OW25212   1.882   5.241   9.665 -0.2441  0.0122 -0.1876
 7924SOL    HW125213   1.955   5.207   9.614 -0.9880  0.6655 -1.7748
 7924SOL    HW225214   1.807   5.236   9.605 -0.9013  1.9284  0.4068
 7925SOL     OW25215   0.590   6.399  11.869  0.4518 -0.2671  0.1474
 7925SOL    HW125216   0.524   6.347  11.915  0.3203 -0.0464  0.2107
 7925SOL    HW225217   0.610   6.349  11.790 -0.5297  0.1474 -0.3734
 7926SOL     OW25218   4.913   7.362   1.395 -0.1023 -0.0919 -0.0478
 7926SOL    HW125219   4.877   7.405   1.318 -0.4368  1.2153  0.8097
 7926SOL    HW225220   4.880   7.272   1.389 -0.6268  0.1530 -1.0979
 7927SOL     OW25221   1.887   1.180   3.198  0.4333 -0.2576  0.7088
 7927SOL    HW125222   1.791   1.170   3.196  0.2377  1.2654  1.0794
 7927SOL    HW225223   1.920   1.091   3.206 -0.8766 -1.0244 -1.3754
 7928SOL     OW25224   2.870   0.553  10.749 -0.2926  0.7811 -0.6075
 7928SOL    HW125225   2.928   0.483  10.720 -1.1479  0.0219 -0.5548
 7928SOL    HW225226   2.910   0.633  10.716 -0.3796  0.0909 -2.4920
 7929SOL     OW25227   3.914   0.923   8.086 -0.0652  0.2409  0.6369
 7929SOL    HW125228   3.929   1.011   8.121 -0.3787  0.6668 -0.2411
 7929SOL    HW225229   3.986   0.870   8.120  2.0476  1.5955 -1.4387
 7930SOL     OW25230   4.878   7.087   1.429  0.1298  0.7084 -0.6758
 7930SOL    HW125231   4.887   7.013   1.368 -0.1049  1.2517 -1.3928
 7930SOL    HW225232   4.869   7.046   1.515  1.7502 -0.0398 -0.8362
 7931SOL     OW25233   4.541   1.236   6.784  0.1244  0.0615 -0.2675
 7931SOL    HW125234   4.630   1.204   6.795  0.4398  1.6295  2.6101
 7931SOL    HW225235   4.488   1.156   6.780  1.4922 -0.8838 -0.3669
 7932SOL     OW25236   3.681   7.330   5.530 -0.0780  0.1778  0.5054
 7932SOL    HW125237   3.736   7.332   5.451  0.7387 -0.8455  1.0273
 7932SOL    HW225238   3.598   7.291   5.501 -1.5838  3.8736 -0.8498
 7933SOL     OW25239   1.071   1.656   1.782 -0.4976  0.0418  0.2469
 7933SOL    HW125240   1.004   1.696   1.727 -0.4237  0.8204  0.7137
 7933SOL    HW225241   1.034   1.655   1.870 -0.6417 -1.2642  0.1892
 7934SOL     OW25242   7.687   3.261   9.935  0.2212 -0.6767 -0.3206
 7934SOL    HW125243   7.612   3.297   9.887  0.9329 -0.0541 -1.0007
 7934SOL    HW225244   7.716   3.188   9.880  0.3046 -0.7201 -0.2169
 7935SOL     OW25245   0.211   2.426   2.312 -0.0663  0.4960  0.1450
 7935SOL    HW125246   0.264   2.476   2.374 -1.4037  0.5057  1.3550
 7935SOL    HW225247   0.177   2.353   2.364 -1.1877  0.4729 -0.5898
 7936SOL     OW25248   1.815   1.870   5.395  0.5722 -0.3410 -0.5796
 7936SOL    HW125249   1.791   1.934   5.462  0.7998 -0.5060 -0.3353
 7936SOL    HW225250   1.866   1.921   5.331 -0.0721 -0.0799 -0.8884
 7937SOL     OW25251   2.946   5.674   0.741 -0.1978 -0.1768  0.5090
 7937SOL    HW125252   2.950   5.685   0.646  0.6013 -0.8132  0.4549
 7937SOL    HW225253   3.030   5.707   0.772 -0.9979  1.3576  1.1649
 7938SOL     OW25254   5.151   6.466   1.618  0.0454  0.4470 -0.8542
 7938SOL    HW125255   5.237   6.500   1.641  0.0080 -0.1519  0.2161
 7938SOL    HW225256   5.125   6.413   1.693 -0.3003 -1.1712 -2.0610
 7939SOL     OW25257   6.672   6.521   1.076 -0.3318  0.3127 -0.2258
 7939SOL    HW125258   6.582   6.539   1.051 -1.0321  1.6717  2.8533
 7939SOL    HW225259   6.667   6.442   1.129  0.0403  1.0746  0.9912
 7940SOL     OW25260   0.337   2.601   7.132  0.3287 -0.1621  0.7187
 7940SOL    HW125261   0.359   2.693   7.149 -0.4710  0.1248  0.2495
 7940SOL    HW225262   0.283   2.576   7.207  0.1991 -0.1230  0.6384
 7941SOL     OW25263   2.607   4.098   6.186 -0.3560  0.1379 -0.1952
 7941SOL    HW125264   2.584   4.063   6.100 -2.9992  0.7380  0.1912
 7941SOL    HW225265   2.629   4.190   6.169  1.9813 -0.4137 -0.5513
 7942SOL     OW25266   7.134   7.776   5.226 -0.1555 -0.3576 -0.1442
 7942SOL    HW125267   7.195   7.734   5.287  1.1171  1.9176  0.2523
 7942SOL    HW225268   7.055   7.723   5.231  0.1202 -0.6639  2.9921
 7943SOL     OW25269   1.051   1.169   4.992 -0.5410  0.1472  0.0405
 7943SOL    HW125270   0.955   1.164   4.997 -0.6632  2.4360  2.0858
 7943SOL    HW225271   1.082   1.111   5.061 -0.5606  0.8320  0.6375
 7944SOL     OW25272   7.228   7.622  11.561  0.5329  0.0454  0.2760
 7944SOL    HW125273   7.239   7.625  11.656  1.8793 -2.0769  0.2384
 7944SOL    HW225274   7.316   7.635  11.526 -0.0120  1.2033 -0.7398
 7945SOL     OW25275   0.760   0.399   7.079 -0.0902 -0.2365  0.5096
 7945SOL    HW125276   0.719   0.436   7.001  1.7890  0.2687 -0.3033
 7945SOL    HW225277   0.800   0.317   7.049  0.0034 -0.4347  1.1467
 7946SOL     OW25278   4.313   2.409   0.724 -0.1475 -0.3042  0.0352
 7946SOL    HW125279   4.377   2.416   0.654 -1.1798 -0.2727 -0.9377
 7946SOL    HW225280   4.229   2.424   0.681 -0.7749  0.1321  1.3543
 7947SOL     OW25281   3.712   5.066   2.747 -0.2001 -0.0209  0.2766
 7947SOL    HW125282   3.658   5.092   2.672 -1.0206  0.8226  1.1286
 7947SOL    HW225283   3.688   5.128   2.816  0.1780 -1.0813  1.3875
 7948SOL     OW25284   0.303   0.379   2.678 -0.4009  0.6203 -0.5896
 7948SOL    HW125285   0.316   0.287   2.700 -0.4841  0.7253 -0.1000
 7948SOL    HW225286   0.208   0.391   2.677 -0.4858  0.1587 -2.9151
 7949SOL     OW25287   2.692   6.814   2.431 -0.5807 -0.1381 -0.0418
 7949SOL    HW125288   2.662   6.731   2.394 -1.0932  0.3771 -0.8131
 7949SOL    HW225289   2.745   6.854   2.362 -0.6181  0.3270  0.1945
 7950SOL     OW25290   0.786   4.083   7.067  0.0895 -0.3049 -0.0229
 7950SOL    HW125291   0.777   4.165   7.020 -2.5739 -0.3185  0.3462
 7950SOL    HW225292   0.703   4.071   7.113  2.0674 -0.8017  3.9035
 7951SOL     OW25293   1.801   6.803  11.225  0.0164 -0.6463 -0.1523
 7951SOL    HW125294   1.814   6.815  11.131  1.4473 -1.4813 -0.0826
 7951SOL    HW225295   1.828   6.886  11.264 -0.3916 -0.3661 -0.4543
 7952SOL     OW25296   7.226   6.693   3.310  0.2209  0.3628 -0.1301
 7952SOL    HW125297   7.265   6.761   3.255  0.0340 -1.0399 -2.0557
 7952SOL    HW225298   7.294   6.626   3.317  0.5948  0.8847  2.1773
 7953SOL     OW25299   4.913   2.565   8.996  0.0193 -0.0544  0.5559
 7953SOL    HW125300   4.879   2.496   9.053  1.4469 -0.0237  1.4892
 7953SOL    HW225301   4.845   2.577   8.930 -1.7916 -0.0127  2.3189
 7954SOL     OW25302   1.159   3.480   1.095 -0.3581  0.5512  0.5295
 7954SOL    HW125303   1.244   3.436   1.107 -0.8687 -0.5954  0.0659
 7954SOL    HW225304   1.168   3.562   1.144  1.9010  1.6526 -1.5104
 7955SOL     OW25305   4.216   5.445   1.278 -0.0700  0.3090 -0.3145
 7955SOL    HW125306   4.207   5.352   1.262  0.8612  0.5472 -2.6344
 7955SOL    HW225307   4.302   5.468   1.242 -0.7957  2.2638 -0.9553
 7956SOL     OW25308   7.775   5.557   3.718  0.2373  0.2908  0.2128
 7956SOL    HW125309   7.700   5.611   3.692  0.4983  0.3656 -0.3828
 7956SOL    HW225310   7.850   5.617   3.717  0.5387 -0.0890 -0.5034
 7957SOL     OW25311   3.125   0.028  11.560  0.1361  0.0287 -0.4855
 7957SOL    HW125312   3.099   0.119  11.553  1.4022  0.4364 -0.2637
 7957SOL    HW225313   3.202   0.020  11.503  0.9128 -0.5201  0.5895
 7958SOL     OW25314   7.198   5.726   4.981  0.4988 -0.4044  0.4723
 7958SOL    HW125315   7.182   5.654   5.042  1.0015 -1.0075 -0.0776
 7958SOL    HW225316   7.177   5.805   5.030  0.3430 -0.9068  1.2344
 7959SOL     OW25317   7.706   0.398  11.695  0.2833 -0.0571  0.2552
 7959SOL    HW125318   7.724   0.491  11.710 -0.4949  0.2005 -0.3934
 7959SOL    HW225319   7.662   0.395  11.611  2.1724 -1.2247 -0.7689
 7960SOL     OW25320   0.285   6.075   0.704 -0.6358 -0.2676  0.2192
 7960SOL    HW125321   0.239   6.042   0.627 -2.9559  0.0763  1.3808
 7960SOL    HW225322   0.333   6.152   0.672 -1.3249 -0.3022 -0.9389
 7961SOL     OW25323   3.775   1.953   8.370  0.3426  0.0087  0.6508
 7961SOL    HW125324   3.733   1.897   8.435  1.7347 -1.6402  0.1979
 7961SOL    HW225325   3.869   1.944   8.387  0.8912 -1.8043 -2.4929
 7962SOL     OW25326   3.953   0.752   5.352 -0.6535 -0.4306 -0.4604
 7962SOL    HW125327   3.889   0.703   5.403 -0.0234 -0.9035 -0.1165
 7962SOL    HW225328   3.921   0.843   5.354 -0.7002 -0.4627  0.6603
 7963SOL     OW25329   7.829   3.244   5.353 -0.4036 -0.5989  0.5788
 7963SOL    HW125330   7.875   3.293   5.421  2.5230  0.8279 -2.1274
 7963SOL    HW225331   7.798   3.312   5.292  0.8607 -1.9102 -1.6336
 7964SOL     OW25332   6.579   5.098   7.380  0.2761 -0.2476 -0.0965
 7964SOL    HW125333   6.645   5.034   7.356 -0.7748 -1.1937 -0.5673
 7964SOL    HW225334   6.499   5.047   7.393 -0.6645  0.9782 -0.7655
 7965SOL     OW25335   0.838   3.073   4.014  0.1682 -0.1719 -0.1214
 7965SOL    HW125336   0.824   3.013   4.087 -0.8298  0.2121  0.0162
 7965SOL    HW225337   0.796   3.031   3.939 -2.0618  1.0932  0.3444
 7966SOL     OW25338   5.765   2.371   1.279 -0.7401 -0.1071  0.0183
 7966SOL    HW125339   5.771   2.405   1.190 -0.0591  0.9325  0.4383
 7966SOL    HW225340   5.702   2.299   1.273  0.8910 -1.5046 -1.7280
 7967SOL     OW25341   3.038   2.398   7.344 -0.7015 -0.0150  0.2310
 7967SOL    HW125342   2.992   2.413   7.427 -1.3549  3.4199 -0.5845
 7967SOL    HW225343   3.125   2.435   7.358 -0.1776 -1.0750 -0.1116
 7968SOL     OW25344   5.618   6.872   3.307 -0.0447  0.0264 -0.0196
 7968SOL    HW125345   5.709   6.899   3.320 -0.0241  0.1156 -0.3597
 7968SOL    HW225346   5.599   6.815   3.382 -0.0957  0.9856  0.7144
 7969SOL     OW25347   0.185   4.402   4.252  0.4029  0.3057  0.0436
 7969SOL    HW125348   0.160   4.327   4.305  0.6490  1.2415  1.5298
 7969SOL    HW225349   0.274   4.381   4.221 -0.4254 -1.0595 -1.6064
 7970SOL     OW25350   0.229   6.000  12.331 -0.3910 -0.5799 -0.3025
 7970SOL    HW125351   0.254   5.976  12.242 -1.9369 -2.1303 -0.3727
 7970SOL    HW225352   0.161   6.066  12.319 -0.1058 -0.2777 -0.2538
 7971SOL     OW25353   3.941   4.115   1.199  0.0836  0.5754 -0.0680
 7971SOL    HW125354   3.935   4.184   1.133  0.6690  0.9081  0.2199
 7971SOL    HW225355   3.903   4.153   1.278 -1.9442 -0.3016 -0.5522
 7972SOL     OW25356   2.403   3.985   2.027  0.6012  0.2713  0.1229
 7972SOL    HW125357   2.459   3.912   2.055  0.1000 -0.5809 -1.0275
 7972SOL    HW225358   2.330   3.943   1.983  0.4215  1.4862 -0.7728
 7973SOL     OW25359   2.236   0.508   2.848  0.5706 -0.3667 -0.2722
 7973SOL    HW125360   2.144   0.492   2.830  0.5495  1.5805 -2.3216
 7973SOL    HW225361   2.282   0.433   2.811 -0.0452 -0.1335 -1.5423
 7974SOL     OW25362   4.934   7.532   4.803 -0.5791  0.4817  0.2629
 7974SOL    HW125363   4.913   7.486   4.722 -0.0218 -0.4941  0.6603
 7974SOL    HW225364   5.016   7.578   4.784 -0.3762  0.1438  0.3008
 7975SOL     OW25365   6.624   4.502   8.829  0.5380  0.0424 -0.6607
 7975SOL    HW125366   6.661   4.573   8.776  0.2613  0.3919 -0.3870
 7975SOL    HW225367   6.681   4.427   8.811  1.9570  0.8149  0.4704
 7976SOL     OW25368   2.958   7.194   4.422  0.0277  0.5038 -0.2804
 7976SOL    HW125369   2.886   7.199   4.358  0.5420 -0.9432 -1.0176
 7976SOL    HW225370   2.920   7.229   4.502 -1.5624 -0.3084 -0.6275
 7977SOL     OW25371   0.477   5.585  11.558 -0.3313 -0.8086  0.1441
 7977SOL    HW125372   0.386   5.570  11.532 -0.2318 -0.3914 -0.4722
 7977SOL    HW225373   0.471   5.639  11.638 -0.6411 -2.1751  1.0741
 7978SOL     OW25374   2.275   0.683   6.157 -0.1416  0.0601  0.2994
 7978SOL    HW125375   2.329   0.755   6.124 -0.1492  0.0926  0.3584
 7978SOL    HW225376   2.291   0.681   6.251  0.6473 -0.6678  0.1614
 7979SOL     OW25377   3.781   6.732   6.655 -0.1449  0.2301  0.7403
 7979SOL    HW125378   3.695   6.743   6.696  0.3747 -0.7399  2.1932
 7979SOL    HW225379   3.822   6.819   6.660 -0.8465  0.5788  0.4864
 7980SOL     OW25380   5.461   3.637   3.711 -0.7475 -0.1028  0.7134
 7980SOL    HW125381   5.417   3.688   3.642  1.8385  1.5096  0.1321
 7980SOL    HW225382   5.462   3.696   3.786 -1.1103 -0.8094  1.2785
 7981SOL     OW25383   3.103   3.981   4.150 -0.6194 -1.2795  0.1263
 7981SOL    HW125384   3.076   3.922   4.079  0.0183  0.3126 -1.5254
 7981SOL    HW225385   3.198   3.972   4.153 -0.5726 -0.7381  0.2307
 7982SOL     OW25386   3.886   6.002   5.536 -0.4071  0.3354 -0.8805
 7982SOL    HW125387   3.883   5.915   5.575 -2.1527  0.3824 -0.8395
 7982SOL    HW225388   3.824   5.998   5.463  0.0473  1.3328 -1.3472
 7983SOL     OW25389   3.321   3.151   3.466  0.5999 -0.0680 -0.0780
 7983SOL    HW125390   3.381   3.187   3.532  0.3048 -2.0081  1.3515
 7983SOL    HW225391   3.275   3.081   3.512 -1.8295  0.4742 -1.5237
 7984SOL     OW25392   3.794   3.297   0.875  0.2758  0.2201  0.7344
 7984SOL    HW125393   3.819   3.213   0.836 -0.2903  0.2876  0.2214
 7984SOL    HW225394   3.877   3.334   0.907  0.5878 -0.3371  0.5797
 7985SOL     OW25395   3.676   2.407   3.634 -0.4241 -0.5199 -0.2792
 7985SOL    HW125396   3.631   2.485   3.665 -0.7756 -0.4467 -0.9708
 7985SOL    HW225397   3.738   2.386   3.704 -1.0807 -0.2568  0.3953
 7986SOL     OW25398   5.016   4.294   0.280  0.4584 -0.0085  0.3988
 7986SOL    HW125399   5.091   4.242   0.250  1.8184  1.3378  1.2983
 7986SOL    HW225400   4.945   4.269   0.222  2.2809  0.6242 -2.2970
 7987SOL     OW25401   7.657   1.793   4.214  0.5500 -0.4064 -0.2691
 7987SOL    HW125402   7.732   1.798   4.155  0.4546 -0.5667 -0.4068
 7987SOL    HW225403   7.627   1.703   4.205  0.8378 -0.5794  0.3966
 7988SOL     OW25404   1.988   1.017   4.153  0.0556  0.6179 -0.1014
 7988SOL    HW125405   2.006   1.035   4.061  0.7711  0.8067  0.0697
 7988SOL    HW225406   2.071   1.034   4.198 -0.5637  1.5931  0.7363
 7989SOL     OW25407   2.803   3.120  10.305 -0.2531  0.7487  0.1119
 7989SOL    HW125408   2.870   3.133  10.238 -0.9493 -2.9034 -1.5458
 7989SOL    HW225409   2.729   3.175  10.276 -0.2933 -0.2454 -1.8054
 7990SOL     OW25410   3.962   5.387   3.614 -0.2392 -0.3209 -0.2205
 7990SOL    HW125411   3.956   5.373   3.709 -1.1318  0.6531 -0.1107
 7990SOL    HW225412   3.985   5.301   3.578  0.8808 -0.5321  0.9377
 7991SOL     OW25413   7.909   4.456   6.400  0.6645  0.7417  0.4418
 7991SOL    HW125414   7.992   4.495   6.425  0.9632 -0.7369  1.9260
 7991SOL    HW225415   7.933   4.379   6.348  0.2693  0.1034  1.1754
 7992SOL     OW25416   5.406   2.248   7.060 -0.1778 -0.2321  0.2481
 7992SOL    HW125417   5.390   2.155   7.075 -1.4101 -0.2105 -0.7333
 7992SOL    HW225418   5.329   2.278   7.013  0.4159  1.1890  0.1299
 7993SOL     OW25419   6.597   0.078   4.213 -0.3242  0.0477 -0.7516
 7993SOL    HW125420   6.516   0.033   4.239  0.6621 -0.0880  2.4285
 7993SOL    HW225421   6.662   0.008   4.205 -0.2464  0.2618 -2.3852
 7994SOL     OW25422   7.023   1.703   9.809  0.3404  0.0448  0.3321
 7994SOL    HW125423   7.002   1.794   9.793  2.1388  0.3747 -0.4401
 7994SOL    HW225424   7.051   1.700   9.901  2.1050  0.6857 -0.1502
 7995SOL     OW25425   3.134   3.166  10.585  0.1283  0.1033  0.1167
 7995SOL    HW125426   3.103   3.257  10.593 -0.5303 -0.1385  0.3872
 7995SOL    HW225427   3.116   3.127  10.671 -0.0857 -0.4293 -0.1662
 7996SOL     OW25428   0.184   2.045   6.864  0.6249  0.0710  0.6120
 7996SOL    HW125429   0.259   1.991   6.889 -0.4597 -2.2728 -0.8890
 7996SOL    HW225430   0.200   2.068   6.772 -0.4639 -0.4182  0.2911
 7997SOL     OW25431   6.080   4.842   0.212  0.1419 -0.5251 -0.4235
 7997SOL    HW125432   6.059   4.908   0.146 -0.5943 -0.7817 -0.4485
 7997SOL    HW225433   5.997   4.799   0.231  0.4720 -0.9091  0.1806
 7998SOL     OW25434   2.302   7.653   8.226  0.2640  0.5103 -0.5159
 7998SOL    HW125435   2.370   7.656   8.293  0.0618  1.8495 -0.3321
 7998SOL    HW225436   2.227   7.612   8.270  0.5408  0.2179 -0.3186
 7999SOL     OW25437   1.142   5.503  11.541  0.5077 -0.0420  0.4341
 7999SOL    HW125438   1.089   5.579  11.518  1.6515  0.4013 -0.9118
 7999SOL    HW225439   1.230   5.525  11.511  1.8831 -0.1192  3.9068
 8000SOL     OW25440   7.248   7.177   9.081 -0.0148  0.1004  0.2269
 8000SOL    HW125441   7.293   7.203   9.162  0.4753  0.1133 -0.0442
 8000SOL    HW225442   7.317   7.141   9.026 -0.7016 -2.0086  0.6696
 8001SOL     OW25443   5.192   0.538   3.570  0.3201  0.0907  0.8108
 8001SOL    HW125444   5.206   0.565   3.479 -1.4451  0.1798  0.5375
 8001SOL    HW225445   5.277   0.505   3.598  0.4101 -2.0619 -1.5822
 8002SOL     OW25446   0.527   2.578   7.519 -0.4141  0.0171 -0.1229
 8002SOL    HW125447   0.597   2.609   7.461  0.1362 -1.2752 -0.1636
 8002SOL    HW225448   0.555   2.491   7.547 -0.5152  0.7060  2.3249
 8003SOL     OW25449   7.383   0.575   7.953 -0.3104 -0.3674 -0.6337
 8003SOL    HW125450   7.347   0.662   7.965  2.0273  0.7092 -0.8491
 8003SOL    HW225451   7.382   0.561   7.858  1.0729  0.2699 -0.7613
 8004SOL     OW25452   3.271   2.026   4.180  0.3076 -0.1471 -0.0971
 8004SOL    HW125453   3.238   1.961   4.118 -0.1705 -0.8433  0.8659
 8004SOL    HW225454   3.214   2.018   4.257  1.2116  0.3199  0.6504
 8005SOL     OW25455   1.336   5.205   5.341  0.5550  0.0956 -0.1796
 8005SOL    HW125456   1.249   5.177   5.314  0.3802 -0.4028  0.8590
 8005SOL    HW225457   1.381   5.123   5.365  1.9722  0.0994 -2.4594
 8006SOL     OW25458   6.651   6.757  10.882  0.4054 -1.0141  0.3795
 8006SOL    HW125459   6.667   6.730  10.792  1.1081 -1.2771  0.5748
 8006SOL    HW225460   6.590   6.830  10.875  0.9561 -0.6098 -0.3546
 8007SOL     OW25461   2.250   7.749  11.707 -0.1644  0.0964 -0.2021
 8007SOL    HW125462   2.231   7.727  11.798 -1.8357  2.2461  0.0659
 8007SOL    HW225463   2.339   7.784  11.708 -0.5793  1.2088  0.8844
 8008SOL     OW25464   3.908   7.841   1.738 -0.6933 -0.5512  0.5976
 8008SOL    HW125465   3.909   7.787   1.659 -1.4100 -0.8589  0.7876
 8008SOL    HW225466   3.853   7.792   1.799 -0.8184  0.0818  0.9982
 8009SOL     OW25467   0.172   4.295  10.388  0.6727  0.4483  0.3711
 8009SOL    HW125468   0.097   4.255  10.433  0.8458 -0.4354 -0.0945
 8009SOL    HW225469   0.208   4.357  10.451 -0.4495  0.8984  0.6071
 8010SOL     OW25470   4.652   6.530  11.600  0.0949  0.0187  0.3645
 8010SOL    HW125471   4.558   6.514  11.591  0.1452 -0.6215  0.8513
 8010SOL    HW225472   4.665   6.542  11.695  0.5639 -0.3411  0.3497
 8011SOL     OW25473   7.725   7.468  10.245  0.3708 -0.4588  0.2692
 8011SOL    HW125474   7.660   7.534  10.224  1.5317  0.2970 -1.1185
 8011SOL    HW225475   7.676   7.397  10.287 -1.2517  0.2591 -0.3685
 8012SOL     OW25476   1.811   2.925   0.452 -0.9966  0.1769  0.1640
 8012SOL    HW125477   1.776   2.918   0.541  0.3010  0.1852  0.7054
 8012SOL    HW225478   1.778   2.847   0.407  0.8435 -1.5230  1.5975
 8013SOL     OW25479   1.946   7.983  10.704  0.2988  0.4382 -0.3396
 8013SOL    HW125480   1.972   8.075  10.710  1.0001  0.1896  0.5580
 8013SOL    HW225481   1.916   7.973  10.614  1.5626  1.2074 -0.8756
 8014SOL     OW25482   0.234   7.232   9.619  0.0225  0.0967  0.0953
 8014SOL    HW125483   0.297   7.290   9.579 -0.4399  1.1181  0.8109
 8014SOL    HW225484   0.272   7.210   9.704  0.1445 -0.5809 -0.1239
 8015SOL     OW25485   1.746   6.395  10.652  0.5377  0.8665  0.3410
 8015SOL    HW125486   1.727   6.479  10.608 -1.4681  0.8548  1.0429
 8015SOL    HW225487   1.744   6.417  10.745 -4.5553 -0.5446  0.8634
 8016SOL     OW25488   2.176   7.454   6.174  0.4246 -0.0628  0.0344
 8016SOL    HW125489   2.197   7.436   6.266 -0.6479 -0.7683  0.1606
 8016SOL    HW225490   2.219   7.537   6.156  3.5290 -1.5009  0.1685
 8017SOL     OW25491   3.605   1.271   3.070  0.1232  0.2217  0.1213
 8017SOL    HW125492   3.555   1.193   3.094 -2.4655  1.7972  0.2834
 8017SOL    HW225493   3.560   1.343   3.114 -1.0109  2.4807 -4.1623
 8018SOL     OW25494   2.356   4.664   4.667 -0.1569 -0.0575 -0.6348
 8018SOL    HW125495   2.379   4.672   4.575  0.8000  1.3225 -0.3166
 8018SOL    HW225496   2.404   4.736   4.710 -0.9493 -0.3781  0.8618
 8019SOL     OW25497   2.276   7.767  11.080 -0.0915  0.1746 -0.0355
 8019SOL    HW125498   2.305   7.828  11.012  0.4669 -1.8060 -1.6748
 8019SOL    HW225499   2.193   7.732  11.047  0.8025 -1.7438 -0.3778
 8020SOL     OW25500   4.488   2.602   8.120 -0.2932  0.0111  0.2307
 8020SOL    HW125501   4.488   2.530   8.057 -1.1488  1.7620 -1.8703
 8020SOL    HW225502   4.568   2.651   8.101  0.9192 -0.9168  2.4433
 8021SOL     OW25503   5.998   2.578   9.088  0.0537  0.4990 -0.1171
 8021SOL    HW125504   5.971   2.488   9.073 -1.5421  0.8900  0.2235
 8021SOL    HW225505   6.054   2.599   9.013 -2.6247  0.3854 -2.3100
 8022SOL     OW25506   3.940   2.653   3.802  0.5668 -0.4853  0.3556
 8022SOL    HW125507   3.959   2.702   3.722 -0.1362 -1.1799 -0.2462
 8022SOL    HW225508   3.990   2.698   3.870  0.4623  0.6560 -0.3036
 8023SOL     OW25509   5.778   2.918   8.847 -0.0399 -0.3323  0.5167
 8023SOL    HW125510   5.751   2.979   8.915  1.0808  0.5818  0.1843
 8023SOL    HW225511   5.755   2.961   8.765 -0.6269 -1.0541  0.2917
 8024SOL     OW25512   2.693   2.642   9.850  0.1115  0.7670  0.0978
 8024SOL    HW125513   2.759   2.581   9.819 -1.0228 -1.6957  2.1516
 8024SOL    HW225514   2.661   2.685   9.771  3.0587  0.9653 -1.0931
 8025SOL     OW25515   2.110   3.746   1.278 -1.1937 -0.5918 -0.0379
 8025SOL    HW125516   2.031   3.797   1.259 -1.2595 -0.9547 -0.7886
 8025SOL    HW225517   2.172   3.772   1.209 -1.2550 -1.5604 -0.4746
 8026SOL     OW25518   1.668   3.669   3.151  0.2357 -0.1195  0.0132
 8026SOL    HW125519   1.754   3.635   3.178 -0.9288 -2.7638  0.6841
 8026SOL    HW225520   1.605   3.613   3.196 -1.9186  2.3708  0.3418
 8027SOL     OW25521   3.034   7.035   6.626  0.0151  0.4642  0.0404
 8027SOL    HW125522   2.944   7.035   6.594  0.2369  0.1271 -0.5957
 8027SOL    HW225523   3.025   7.044   6.721 -0.6724  0.7972 -0.0501
 8028SOL     OW25524   6.287   0.812   3.147 -0.2957  0.1125 -0.1178
 8028SOL    HW125525   6.201   0.847   3.171 -0.9247 -0.2074 -1.7438
 8028SOL    HW225526   6.313   0.759   3.222 -1.0383  1.0423  0.8289
 8029SOL     OW25527   4.667   5.505   1.695 -0.4767  0.0350  0.6174
 8029SOL    HW125528   4.710   5.571   1.640 -0.0776 -0.4807  0.2963
 8029SOL    HW225529   4.653   5.549   1.779  1.4833 -0.0296  1.0273
 8030SOL     OW25530   2.876   1.326   4.711 -0.3927  0.8510 -0.2458
 8030SOL    HW125531   2.927   1.246   4.699  1.0421  1.7189 -0.1865
 8030SOL    HW225532   2.803   1.299   4.767 -0.4870 -0.6115 -1.0126
 8031SOL     OW25533   2.058   0.598   9.939 -0.5102 -0.2039  0.1655
 8031SOL    HW125534   2.147   0.598   9.974  0.4671  2.5794 -1.9791
 8031SOL    HW225535   2.058   0.526   9.876 -0.0624 -0.6928  0.6975
 8032SOL     OW25536   1.780   6.836   7.773  0.2579 -0.3140 -0.3046
 8032SOL    HW125537   1.836   6.885   7.834 -0.3584 -0.0127  0.0340
 8032SOL    HW225538   1.766   6.752   7.816  1.8713 -1.0857 -1.1954
 8033SOL     OW25539   3.235   3.065   7.461  0.0061  0.0699 -0.1176
 8033SOL    HW125540   3.262   3.117   7.385 -1.4012  1.7485  0.4615
 8033SOL    HW225541   3.256   3.120   7.536 -0.0496 -0.8947  0.6196
 8034SOL     OW25542   7.551   5.928   0.446  0.4298 -0.1925 -0.2161
 8034SOL    HW125543   7.556   5.871   0.369  0.2655  0.2943 -0.5909
 8034SOL    HW225544   7.468   5.906   0.487  0.1801  0.0475 -0.5823
 8035SOL     OW25545   0.613   4.626   3.757 -0.7772  0.5650  0.1917
 8035SOL    HW125546   0.689   4.581   3.722 -1.4408 -0.8938  0.5548
 8035SOL    HW225547   0.561   4.650   3.681 -1.7847 -1.8143  0.0386
 8036SOL     OW25548   3.446   0.568  11.917 -0.4490 -0.3275  0.4101
 8036SOL    HW125549   3.431   0.516  11.837 -0.6079  1.2081 -0.5951
 8036SOL    HW225550   3.478   0.652  11.885  1.1174 -0.2348  2.0682
 8037SOL     OW25551   5.538   3.010   3.239 -0.0642 -0.2532  0.1232
 8037SOL    HW125552   5.589   3.046   3.166 -0.0889  0.4799  0.4659
 8037SOL    HW225553   5.592   3.026   3.316 -0.4322 -0.2430  0.3806
 8038SOL     OW25554   3.534   4.374   0.300  0.5100 -0.3710 -0.3863
 8038SOL    HW125555   3.509   4.283   0.282  1.2029 -0.7214  0.3764
 8038SOL    HW225556   3.474   4.426   0.246  0.6794 -1.3002 -1.5111
 8039SOL     OW25557   4.461   3.750   5.344 -0.7585  0.2778  0.0692
 8039SOL    HW125558   4.499   3.837   5.334  0.0335  0.0604  0.9751
 8039SOL    HW225559   4.527   3.701   5.394 -1.6947 -0.5037  0.5680
 8040SOL     OW25560   5.543   6.195   8.641 -0.1461  0.1885 -0.2735
 8040SOL    HW125561   5.515   6.193   8.549 -0.0795 -0.6988 -0.2862
 8040SOL    HW225562   5.637   6.176   8.637 -0.0288  0.7161 -0.0584
 8041SOL     OW25563   5.203   2.499   1.957 -0.5579  0.0459 -0.0971
 8041SOL    HW125564   5.266   2.535   1.895  0.7872 -0.3053  1.0234
 8041SOL    HW225565   5.158   2.575   1.994  0.4521  0.4371  0.3632
 8042SOL     OW25566   6.545   4.734   4.951  0.0181 -1.1797 -0.1835
 8042SOL    HW125567   6.481   4.670   4.980 -1.1649  0.0784  0.0864
 8042SOL    HW225568   6.568   4.706   4.862 -0.0880 -2.2543  0.1191
 8043SOL     OW25569   7.902   6.594  10.089 -0.2900  0.2310 -0.2341
 8043SOL    HW125570   7.990   6.560  10.100 -0.5474 -0.2997  0.2324
 8043SOL    HW225571   7.886   6.648  10.166 -0.6327 -0.2663  0.0539
 8044SOL     OW25572   1.026   5.792   1.413  0.1487 -0.5249 -0.3324
 8044SOL    HW125573   0.959   5.851   1.379  1.8431  2.5451  1.3041
 8044SOL    HW225574   1.093   5.790   1.344  0.8103  0.8434  0.2288
 8045SOL     OW25575   1.335   1.509   0.374  0.6790  0.1025 -0.2666
 8045SOL    HW125576   1.385   1.543   0.448 -0.4959  2.0172 -0.2738
 8045SOL    HW225577   1.250   1.485   0.410 -0.8173  3.3273 -1.2029
 8046SOL     OW25578   4.595   0.773   3.305 -0.0353  0.6255 -0.4549
 8046SOL    HW125579   4.638   0.710   3.363 -0.2232  0.0980 -0.8726
 8046SOL    HW225580   4.502   0.751   3.311 -0.3705  2.1992  0.9756
 8047SOL     OW25581   2.311   4.083   5.529  0.2619 -0.0377  0.5457
 8047SOL    HW125582   2.346   4.159   5.575 -0.3938  1.2425 -0.9873
 8047SOL    HW225583   2.238   4.054   5.583  0.5326  0.4041  1.1600
 8048SOL     OW25584   2.454   2.070   2.258 -0.0113  0.9090 -0.4987
 8048SOL    HW125585   2.430   2.000   2.198  0.7583 -0.1450  0.3928
 8048SOL    HW225586   2.410   2.048   2.340 -0.5293  1.9881 -0.4619
 8049SOL     OW25587   6.514   7.670   2.577 -0.4695 -0.2953 -0.2262
 8049SOL    HW125588   6.511   7.702   2.667 -0.9815  1.2228 -0.7501
 8049SOL    HW225589   6.422   7.655   2.554 -0.5271  1.2288 -1.1127
 8050SOL     OW25590   5.367   3.061   4.898  0.2139 -0.5268  0.1224
 8050SOL    HW125591   5.357   3.123   4.970  1.3935  1.3022 -1.1920
 8050SOL    HW225592   5.302   3.089   4.833 -0.3405 -1.6888  0.1656
 8051SOL     OW25593   5.154   3.332  11.338 -0.5565 -0.3709 -0.1126
 8051SOL    HW125594   5.101   3.369  11.268 -1.1661 -1.0343 -0.0096
 8051SOL    HW225595   5.133   3.386  11.415  1.8782  1.9248 -0.8771
 8052SOL     OW25596   2.997   1.080   4.633  0.1105 -0.0608  0.3591
 8052SOL    HW125597   2.966   1.038   4.713 -1.6447  0.0736 -0.2170
 8052SOL    HW225598   2.958   1.029   4.562  1.9150 -0.3943 -0.4694
 8053SOL     OW25599   7.974   1.230  11.704  0.2134 -0.1209  0.4454
 8053SOL    HW125600   7.940   1.210  11.617 -1.2251  1.4402  0.5992
 8053SOL    HW225601   7.918   1.301  11.736  0.5135 -0.8328  2.7616
 8054SOL     OW25602   0.616   6.973   0.065 -0.5403 -0.3704  0.0490
 8054SOL    HW125603   0.711   6.964   0.057 -0.6325 -1.6551  0.2933
 8054SOL    HW225604   0.602   7.068   0.070  0.9584 -0.1775  2.5824
 8055SOL     OW25605   7.389   5.282   6.018  0.2158 -0.6247 -0.0408
 8055SOL    HW125606   7.428   5.238   5.942 -1.6890 -0.1373 -1.3445
 8055SOL    HW225607   7.343   5.357   5.983  3.7644  2.9972  2.1504
 8056SOL     OW25608   6.605   3.797  10.577  0.1447 -0.0122 -0.3351
 8056SOL    HW125609   6.520   3.780  10.617  0.2010  0.3781 -0.0507
 8056SOL    HW225610   6.603   3.747  10.495  0.8685 -2.6488  1.1306
 8057SOL     OW25611   2.296   1.269   0.187  0.2471  0.3828 -0.3279
 8057SOL    HW125612   2.208   1.230   0.181  0.6040 -0.2156 -2.1017
 8057SOL    HW225613   2.300   1.304   0.276 -1.5185 -0.2301  0.0353
 8058SOL     OW25614   1.488   7.952  11.409  0.0009  0.2442 -0.5672
 8058SOL    HW125615   1.423   8.014  11.441  2.2902  1.6307  1.7946
 8058SOL    HW225616   1.516   7.904  11.487  0.2952 -1.8673 -1.8933
 8059SOL     OW25617   5.742   5.138  11.624 -0.4689  0.0492  0.1245
 8059SOL    HW125618   5.817   5.114  11.570  0.4921 -3.0947  2.5745
 8059SOL    HW225619   5.672   5.080  11.595 -0.3561 -0.6780  1.2306
 8060SOL     OW25620   7.411   1.992  11.770 -0.8543  0.0216  0.4853
 8060SOL    HW125621   7.505   1.981  11.753 -1.2877 -1.3872 -1.3322
 8060SOL    HW225622   7.386   1.914  11.820 -1.4580 -0.7976 -1.0374
 8061SOL     OW25623   7.809   3.829   8.890  0.2168  0.6795 -0.1076
 8061SOL    HW125624   7.840   3.855   8.977 -0.0179  1.9781 -0.4050
 8061SOL    HW225625   7.878   3.772   8.856 -0.5260 -1.4588  1.6672
 8062SOL     OW25626   2.669   5.512   3.272  0.1961 -0.3174  0.0401
 8062SOL    HW125627   2.601   5.446   3.283  1.2402 -1.1910  1.9067
 8062SOL    HW225628   2.664   5.565   3.352  0.9091  0.3435 -0.3449
 8063SOL     OW25629   3.839   3.050   0.734 -0.2832  0.0838  0.4065
 8063SOL    HW125630   3.931   3.041   0.710 -0.7250 -0.7275 -1.0671
 8063SOL    HW225631   3.819   2.968   0.778 -0.8002 -0.5872 -1.0391
 8064SOL     OW25632   1.984   5.920  10.750  0.2710  0.1230 -1.1362
 8064SOL    HW125633   1.938   5.849  10.705  0.9786 -0.5933 -0.7618
 8064SOL    HW225634   1.921   5.992  10.752 -1.5880 -1.4076  1.0121
 8065SOL     OW25635   1.298   2.912   4.273 -0.0077 -0.3466 -0.0757
 8065SOL    HW125636   1.328   2.995   4.311 -0.1167 -0.5518  0.4683
 8065SOL    HW225637   1.282   2.856   4.348  2.0281 -1.5553 -0.4544
 8066SOL     OW25638   5.745   3.964   1.164 -0.3297  0.0689 -0.0007
 8066SOL    HW125639   5.818   4.000   1.114  0.6981 -3.3437 -1.2621
 8066SOL    HW225640   5.685   4.038   1.175  1.9826  2.3288 -1.3867
 8067SOL     OW25641   0.398   2.438   4.579  0.1019  0.0430 -0.3082
 8067SOL    HW125642   0.329   2.389   4.533  0.2295  0.5597 -1.0677
 8067SOL    HW225643   0.479   2.399   4.548  0.1783  0.0133 -0.0741
 8068SOL     OW25644   0.399   7.731   6.730 -0.3280  0.5512 -0.5096
 8068SOL    HW125645   0.403   7.675   6.807  0.9063  0.9754 -0.2408
 8068SOL    HW225646   0.321   7.702   6.683 -1.4132  0.6115  1.1436
 8069SOL     OW25647   6.874   3.166   5.613 -0.5376 -0.1112  0.2109
 8069SOL    HW125648   6.951   3.112   5.594 -2.0969 -1.9782 -1.3565
 8069SOL    HW225649   6.813   3.146   5.541 -2.2165  1.8201  0.9975
 8070SOL     OW25650   0.749   5.038   4.023 -0.2044 -0.8330  0.3600
 8070SOL    HW125651   0.674   5.096   4.007  0.0238 -0.3680  0.9074
 8070SOL    HW225652   0.715   4.950   4.008 -0.5019 -0.5446 -0.6974
 8071SOL     OW25653   1.227   1.742   1.266 -0.2133  0.0545 -0.3482
 8071SOL    HW125654   1.207   1.787   1.348  0.4202  1.2719 -0.8339
 8071SOL    HW225655   1.266   1.658   1.293  1.2705  1.0064  0.6343
 8072SOL     OW25656   6.431   2.638   1.772 -0.8810  0.0139 -0.4277
 8072SOL    HW125657   6.431   2.680   1.686 -0.6148 -1.0631 -0.9797
 8072SOL    HW225658   6.432   2.710   1.835 -0.9625  0.8173 -1.3296
 8073SOL     OW25659   7.809   4.854   9.810  0.2357  0.3109  0.0886
 8073SOL    HW125660   7.898   4.826   9.789 -0.0917  0.2042 -1.2765
 8073SOL    HW225661   7.753   4.806   9.748 -0.6881  1.0803  0.2960
 8074SOL     OW25662   1.339   7.359   0.877 -0.3375 -0.5849  0.4611
 8074SOL    HW125663   1.427   7.355   0.840  0.1448  1.6612  1.1490
 8074SOL    HW225664   1.347   7.424   0.948 -2.5867 -0.1749  0.4019
 8075SOL     OW25665   6.191   0.994   9.225 -0.1614  0.2617  0.0854
 8075SOL    HW125666   6.216   1.027   9.139 -0.3948 -0.0347 -0.0976
 8075SOL    HW225667   6.243   1.046   9.287  0.5480 -0.0251 -0.2648
 8076SOL     OW25668   1.889   6.072   1.837  0.2959  0.3092  0.0794
 8076SOL    HW125669   1.818   6.027   1.790 -0.5791  0.9734  0.7148
 8076SOL    HW225670   1.968   6.023   1.814 -0.0214  0.8377 -2.3675
 8077SOL     OW25671   1.101   1.350   0.127 -0.5248  0.1201 -0.7031
 8077SOL    HW125672   1.185   1.385   0.097  0.1941 -0.4141  0.6202
 8077SOL    HW225673   1.125   1.276   0.183 -1.9306 -0.8677 -1.3520
 8078SOL     OW25674   6.471   6.181   6.861  0.0409 -0.2338  0.3014
 8078SOL    HW125675   6.434   6.191   6.773  0.7023 -0.2115  0.0246
 8078SOL    HW225676   6.415   6.115   6.903  1.1428 -2.0594 -0.9472
 8079SOL     OW25677   0.936   7.509  11.208  0.2846  0.6014 -0.5676
 8079SOL    HW125678   0.880   7.579  11.175  2.1925  1.6389 -1.7999
 8079SOL    HW225679   1.019   7.520  11.160  0.8225 -2.2116 -0.4625
 8080SOL     OW25680   3.266   5.131   5.866 -0.4866  0.2595  0.0441
 8080SOL    HW125681   3.280   5.047   5.910 -1.7661  0.0179  0.0493
 8080SOL    HW225682   3.271   5.110   5.772  0.0431  0.3432  0.0538
 8081SOL     OW25683   4.967   1.800   5.416  0.5165 -0.2134  0.0225
 8081SOL    HW125684   5.047   1.824   5.464 -0.8917  0.2804  2.3146
 8081SOL    HW225685   4.976   1.707   5.399  1.5267 -0.1861  0.3347
 8082SOL     OW25686   4.013   2.559   6.954  0.0072  0.0651  0.1038
 8082SOL    HW125687   4.076   2.488   6.967 -1.4291 -1.3358 -0.2641
 8082SOL    HW225688   4.028   2.619   7.027  1.5408 -0.3710  0.1836
 8083SOL     OW25689   7.956   1.924  10.054 -0.4858 -0.0998  0.7894
 8083SOL    HW125690   7.962   1.958   9.965  1.0278 -0.5336  0.7038
 8083SOL    HW225691   7.879   1.868  10.053 -1.3234  1.0132  0.1581
 8084SOL     OW25692   7.416   7.082   8.042  0.5082  0.2199 -0.0559
 8084SOL    HW125693   7.474   7.020   8.087 -0.3858 -1.4575 -1.1262
 8084SOL    HW225694   7.359   7.116   8.112 -1.4353 -2.9749  0.1305
 8085SOL     OW25695   5.306   1.807   8.319  0.2621  0.1093  0.6445
 8085SOL    HW125696   5.327   1.713   8.316 -0.9441 -0.1618 -0.2242
 8085SOL    HW225697   5.287   1.830   8.228 -1.2320  0.7506  1.0881
 8086SOL     OW25698   7.734   1.498   7.024  0.0451 -0.1855 -0.2622
 8086SOL    HW125699   7.669   1.565   7.000 -0.6747 -1.3489 -1.7905
 8086SOL    HW225700   7.789   1.491   6.946  0.4755 -0.9385  0.1127
 8087SOL     OW25701   3.039   3.485   4.589  0.2464 -0.5876 -0.4518
 8087SOL    HW125702   3.028   3.571   4.629  0.2599 -0.2863 -1.0770
 8087SOL    HW225703   3.132   3.481   4.567 -0.1901  0.3748 -2.8668
 8088SOL     OW25704   0.020   3.576   2.210  0.0933  0.3643  0.3928
 8088SOL    HW125705  -0.010   3.572   2.119 -0.9835 -2.7149  0.7412
 8088SOL    HW225706   0.113   3.552   2.206  0.1393  0.5962  0.0699
 8089SOL     OW25707   1.983   1.277  11.035 -0.0658 -0.1992 -0.6139
 8089SOL    HW125708   1.964   1.189  11.000  1.5340 -0.7043 -0.2820
 8089SOL    HW225709   1.979   1.266  11.130 -1.2572  0.4426 -0.5669
 8090SOL     OW25710   5.954   7.855   7.197  0.2642 -0.3381 -0.1609
 8090SOL    HW125711   5.927   7.890   7.112 -3.4611 -1.8731  0.2340
 8090SOL    HW225712   5.984   7.766   7.178  0.9021 -0.1600 -0.0212
 8091SOL     OW25713   1.842   1.332   7.031 -0.1413  0.8525 -0.2790
 8091SOL    HW125714   1.772   1.304   7.089  0.3377 -1.0007 -0.5514
 8091SOL    HW225715   1.805   1.325   6.943 -0.3983  2.3064 -0.3263
 8092SOL     OW25716   1.392   1.700   0.173  0.6381 -0.0977  0.4923
 8092SOL    HW125717   1.396   1.623   0.230  0.4647  0.0979  0.7721
 8092SOL    HW225718   1.300   1.729   0.179  0.6166 -0.0816  0.1069
 8093SOL     OW25719   4.452   7.274   4.325 -0.1644 -0.0475  0.1439
 8093SOL    HW125720   4.387   7.319   4.271 -0.2494  1.5499  1.5133
 8093SOL    HW225721   4.518   7.244   4.263 -1.5664 -0.6363 -1.1374
 8094SOL     OW25722   2.706   5.010  10.745 -0.2697 -0.0680 -0.2346
 8094SOL    HW125723   2.748   5.096  10.742 -1.1179  0.4142  0.6790
 8094SOL    HW225724   2.628   5.020  10.691 -0.5390 -0.1467  0.1312
 8095SOL     OW25725   1.384   6.176   7.335 -0.2534 -0.5804  0.2518
 8095SOL    HW125726   1.471   6.192   7.371 -1.1945 -0.0158  2.4376
 8095SOL    HW225727   1.396   6.102   7.276  1.8136 -0.0768 -0.0443
 8096SOL     OW25728   6.401   6.088  10.812  0.5304 -0.9049 -0.0630
 8096SOL    HW125729   6.375   6.134  10.732  0.9015 -0.9971 -0.2428
 8096SOL    HW225730   6.370   6.143  10.883  0.4254 -0.6899 -0.2740
 8097SOL     OW25731   2.685   7.076   4.481  0.0929 -0.2203  0.6561
 8097SOL    HW125732   2.604   7.120   4.505  0.6737  0.1612  2.0003
 8097SOL    HW225733   2.728   7.135   4.419 -1.3381 -1.1311 -1.3161
 8098SOL     OW25734   7.364   3.058   3.011  0.5862  0.1075 -0.7652
 8098SOL    HW125735   7.397   3.114   2.940 -0.5244  0.0110 -1.3839
 8098SOL    HW225736   7.286   3.017   2.974  0.6588 -0.8614  0.1252
 8099SOL     OW25737   5.536   0.312   9.076  0.2652  0.1327 -0.6779
 8099SOL    HW125738   5.531   0.278   8.987 -1.0866 -0.6887 -0.3259
 8099SOL    HW225739   5.457   0.365   9.086  0.0220 -0.3672  0.2375
 8100SOL     OW25740   1.829   1.433   3.879  0.3239 -0.3455 -0.0079
 8100SOL    HW125741   1.842   1.347   3.840  0.2273 -0.5191  0.3362
 8100SOL    HW225742   1.782   1.415   3.961 -0.1826  0.0760 -0.1946
 8101SOL     OW25743   7.570   0.591   1.291  0.3329 -0.2036  0.5354
 8101SOL    HW125744   7.552   0.677   1.328  0.4162 -0.8141  2.0567
 8101SOL    HW225745   7.500   0.535   1.323 -1.0722 -0.2740 -2.3193
 8102SOL     OW25746   3.447   7.919   3.207 -0.0211  0.6888  0.8860
 8102SOL    HW125747   3.430   8.001   3.252 -0.4527  0.8380  0.4658
 8102SOL    HW225748   3.378   7.913   3.141 -2.6115 -1.9704  3.4947
 8103SOL     OW25749   2.764   6.065  11.742  0.2423  0.2606 -0.3387
 8103SOL    HW125750   2.722   5.980  11.751  1.0005 -0.3328 -2.0334
 8103SOL    HW225751   2.832   6.065  11.810 -1.7850  0.8837  1.8415
 8104SOL     OW25752   2.852   2.464  11.600  0.2692 -0.0175  0.5529
 8104SOL    HW125753   2.921   2.467  11.534  1.1000  0.9319  1.4337
 8104SOL    HW225754   2.862   2.377  11.640  1.4533  0.3669  1.1571
 8105SOL     OW25755   2.813   7.443   8.893 -0.1261  0.2953  0.1163
 8105SOL    HW125756   2.809   7.372   8.829 -1.7209 -0.0229  0.5385
 8105SOL    HW225757   2.907   7.451   8.914  0.4401  0.3282 -2.1422
 8106SOL     OW25758   7.518   7.569   8.596 -0.2515 -0.1228 -0.4141
 8106SOL    HW125759   7.509   7.647   8.541  0.7027  0.6568  0.4976
 8106SOL    HW225760   7.445   7.574   8.657  0.3253  0.5577  0.2310
 8107SOL     OW25761   6.742   4.471  11.908  1.1671 -0.5503 -0.3043
 8107SOL    HW125762   6.699   4.411  11.848  2.1000 -1.1438 -0.3994
 8107SOL    HW225763   6.759   4.419  11.986  1.6578 -0.3147 -0.2497
 8108SOL     OW25764   7.423   7.390  12.100 -0.6379 -0.1915 -0.4743
 8108SOL    HW125765   7.502   7.370  12.050 -0.5379  2.2818 -1.4743
 8108SOL    HW225766   7.384   7.305  12.118  2.2411 -1.5159  0.0971
 8109SOL     OW25767   1.740   3.553   6.039 -0.3424 -0.2610  0.0485
 8109SOL    HW125768   1.688   3.633   6.045  0.7496  0.3961  1.4760
 8109SOL    HW225769   1.712   3.500   6.114  0.1682 -0.4287  0.1277
 8110SOL     OW25770   7.033   5.872   7.189 -0.1835  0.3605  0.2583
 8110SOL    HW125771   7.078   5.916   7.260 -2.3127  2.4892  0.4113
 8110SOL    HW225772   6.959   5.827   7.232  0.4887 -1.2855 -0.2273
 8111SOL     OW25773   3.180   1.469   1.143 -0.4129 -0.2446 -0.2732
 8111SOL    HW125774   3.216   1.557   1.131 -2.4035  0.6072 -0.3767
 8111SOL    HW225775   3.181   1.431   1.055 -2.6442  0.9930 -0.9073
 8112SOL     OW25776   5.189   6.768  12.228  0.2309  0.5813  0.3815
 8112SOL    HW125777   5.278   6.735  12.219 -0.0032  0.3114 -1.0430
 8112SOL    HW225778   5.177   6.828  12.154 -1.0604 -0.0440  0.0600
 8113SOL     OW25779   4.488   1.225   4.976  0.3924 -0.7194  0.0482
 8113SOL    HW125780   4.396   1.225   4.950  0.3916 -0.8976  0.0499
 8113SOL    HW225781   4.515   1.317   4.970  0.8247 -0.9196 -2.1058
 8114SOL     OW25782   2.916   7.333   7.547 -0.5952 -0.0390  0.2084
 8114SOL    HW125783   2.844   7.375   7.594  0.0336  0.8287  0.4010
 8114SOL    HW225784   2.933   7.390   7.472  0.0631 -0.0945  0.3072
 8115SOL     OW25785   3.372   4.804   6.519 -0.4604  0.0740  0.4151
 8115SOL    HW125786   3.403   4.729   6.570  2.0683  0.2719 -0.6798
 8115SOL    HW225787   3.351   4.767   6.433  0.1202  0.5043  0.0849
 8116SOL     OW25788   3.560   2.676   3.230  0.1092  0.0946  0.1764
 8116SOL    HW125789   3.522   2.662   3.143  1.8067 -0.1499 -0.5733
 8116SOL    HW225790   3.559   2.589   3.271 -0.8339  0.2402  0.4662
 8117SOL     OW25791   1.794   1.753   0.740  0.1461 -0.1096  0.1429
 8117SOL    HW125792   1.764   1.808   0.668  1.4282 -0.1469 -0.4549
 8117SOL    HW225793   1.868   1.800   0.777 -0.2553 -0.2855  1.1854
 8118SOL     OW25794   6.230   1.972   4.347 -0.1970 -0.8194  0.4254
 8118SOL    HW125795   6.324   1.979   4.366  0.0993 -1.1034 -0.8079
 8118SOL    HW225796   6.223   1.997   4.255 -1.7538  2.2825  1.2294
 8119SOL     OW25797   1.468   3.677   5.216 -0.3306 -0.4575  0.1294
 8119SOL    HW125798   1.395   3.697   5.274 -2.3683 -0.7808 -2.1511
 8119SOL    HW225799   1.528   3.751   5.226 -1.5556  0.4344  1.1630
 8120SOL     OW25800   0.538   4.429  10.099  0.2550 -0.3648  0.0824
 8120SOL    HW125801   0.567   4.513  10.136 -1.2029  0.8568 -1.4222
 8120SOL    HW225802   0.607   4.406  10.037  0.8907 -0.5535  0.8341
 8121SOL     OW25803   5.484   0.418   0.977 -0.1881 -0.0415 -0.1048
 8121SOL    HW125804   5.554   0.473   1.012 -0.3824  0.0321  0.1681
 8121SOL    HW225805   5.440   0.473   0.913 -0.2033  0.0236 -0.0382
 8122SOL     OW25806   5.868   6.409   3.148 -0.3614 -0.5787  0.1747
 8122SOL    HW125807   5.938   6.435   3.209 -0.2045 -2.0459  0.6746
 8122SOL    HW225808   5.856   6.485   3.091  1.0193  0.0321  0.6501
 8123SOL     OW25809   3.461   7.791  11.041  0.1825  0.0974 -0.3130
 8123SOL    HW125810   3.485   7.746  10.960  0.4799 -1.1668  0.4457
 8123SOL    HW225811   3.536   7.778  11.099  0.3920  1.8139 -0.1243
 8124SOL     OW25812   4.440   7.035   5.836 -0.1134  0.2972  0.1513
 8124SOL    HW125813   4.481   6.959   5.796  0.2376 -0.7304  2.2742
 8124SOL    HW225814   4.497   7.057   5.910  0.5654  3.5670 -1.1481
 8125SOL     OW25815   2.936   7.564   5.676 -0.3074 -0.2840 -0.1976
 8125SOL    HW125816   2.962   7.476   5.649  0.0058 -0.2958  0.1347
 8125SOL    HW225817   2.843   7.556   5.696  0.2334 -1.1529  2.2563
 8126SOL     OW25818   1.113   1.478   6.337 -0.1394 -0.3289 -0.1671
 8126SOL    HW125819   1.043   1.456   6.398 -0.6404  1.2212 -0.1255
 8126SOL    HW225820   1.192   1.478   6.390 -0.3336 -0.5511  0.1298
 8127SOL     OW25821   7.395   6.400   6.944 -0.4075  0.4214  0.3924
 8127SOL    HW125822   7.322   6.396   7.007 -0.9536  0.3351 -0.2357
 8127SOL    HW225823   7.417   6.493   6.940  0.8368  0.2526  2.0460
 8128SOL     OW25824   5.346   6.054  10.713 -0.0061  0.0121  0.3759
 8128SOL    HW125825   5.411   6.122  10.730  0.5632  0.9502 -4.2605
 8128SOL    HW225826   5.390   5.972  10.736  1.0248  0.8982  1.6882
 8129SOL     OW25827   2.155   5.312   4.321 -0.2391  0.5543 -0.1269
 8129SOL    HW125828   2.075   5.282   4.364 -0.3409  1.1783  0.1210
 8129SOL    HW225829   2.186   5.384   4.375  1.8555 -1.2244  1.2221
 8130SOL     OW25830   2.930   0.811   7.678 -0.2323 -0.5779 -0.4645
 8130SOL    HW125831   2.986   0.764   7.740  0.2676 -0.5649 -0.9030
 8130SOL    HW225832   2.982   0.817   7.598  0.0341  1.3904 -0.1854
 8131SOL     OW25833   4.002   3.976  11.682 -0.0682  0.3863  0.2073
 8131SOL    HW125834   3.963   4.004  11.599  0.7244  1.3607  0.1407
 8131SOL    HW225835   3.929   3.969  11.743 -0.6038  0.0619 -0.4625
 8132SOL     OW25836   6.684   2.179  11.312 -0.1376  0.3139 -0.1592
 8132SOL    HW125837   6.757   2.240  11.325  0.9265 -1.0392  0.5868
 8132SOL    HW225838   6.666   2.144  11.399 -0.3501 -0.8065 -0.6271
 8133SOL     OW25839   3.056   6.465   8.585 -0.2276 -0.5180  0.3948
 8133SOL    HW125840   3.102   6.422   8.513 -2.9784 -2.5479 -0.3189
 8133SOL    HW225841   3.041   6.395   8.648  0.3714  0.8076  2.0910
 8134SOL     OW25842   4.504   6.718   8.519  0.4913 -0.1021 -0.0976
 8134SOL    HW125843   4.473   6.653   8.581  1.7718 -1.1374 -0.5129
 8134SOL    HW225844   4.599   6.720   8.530  1.0755 -1.9461 -3.4790
 8135SOL     OW25845   1.093   5.983   2.320 -0.0287  0.2488  0.3555
 8135SOL    HW125846   1.024   6.044   2.292 -0.4160  0.1473  1.0735
 8135SOL    HW225847   1.089   5.911   2.257  0.4832  0.9894 -0.5524
 8136SOL     OW25848   3.239   6.455   9.309 -0.3961  0.1583 -0.4581
 8136SOL    HW125849   3.275   6.542   9.291  0.3258 -0.4142 -2.0182
 8136SOL    HW225850   3.155   6.454   9.263 -0.7034  0.2332  0.0925
 8137SOL     OW25851   5.316   1.337   1.190 -0.0106 -0.3119  0.6857
 8137SOL    HW125852   5.355   1.409   1.239 -0.7027  0.4970  0.0808
 8137SOL    HW225853   5.226   1.331   1.223 -1.0226  1.3285 -1.5392
 8138SOL     OW25854   0.859   0.036  11.824 -0.1204  0.0675 -0.4959
 8138SOL    HW125855   0.801  -0.025  11.778  0.8132 -0.1909 -1.3631
 8138SOL    HW225856   0.927  -0.020  11.861  0.3199  0.5023 -0.6455
 8139SOL     OW25857   6.078   4.266   3.749  0.4125 -0.0360  1.1266
 8139SOL    HW125858   5.999   4.223   3.781  0.2675 -0.7600 -0.1481
 8139SOL    HW225859   6.050   4.355   3.728 -0.0117 -0.2261  0.8788
 8140SOL     OW25860   7.558   2.404   9.349 -0.5497 -0.4817 -0.1654
 8140SOL    HW125861   7.486   2.342   9.339  0.1482 -1.2358 -0.5751
 8140SOL    HW225862   7.520   2.489   9.326 -0.7923 -1.1598 -2.5640
 8141SOL     OW25863   5.453   5.805  10.804  0.3060 -0.2695  0.4805
 8141SOL    HW125864   5.466   5.718  10.765  0.0541  0.3841 -1.1761
 8141SOL    HW225865   5.537   5.827  10.843  0.4144 -1.1854  0.7898
 8142SOL     OW25866   6.832   7.375  11.349  0.0166 -0.3740  0.6491
 8142SOL    HW125867   6.878   7.320  11.286  1.3467  1.8459 -0.4416
 8142SOL    HW225868   6.800   7.449  11.298 -1.6039 -0.0210  2.0776
 8143SOL     OW25869   7.920   2.610   3.398  0.4861  0.5912 -0.5810
 8143SOL    HW125870   7.853   2.605   3.330 -1.2441 -0.0554  1.0901
 8143SOL    HW225871   7.948   2.519   3.410 -2.1232 -0.0140  2.2107
 8144SOL     OW25872   7.501   0.041  10.728 -0.0953  0.0924  0.3752
 8144SOL    HW125873   7.552  -0.025  10.774  0.5241 -0.8308 -1.5596
 8144SOL    HW225874   7.503   0.117  10.787  2.4461 -0.3207  0.9450
 8145SOL     OW25875   6.493   0.011   6.709  0.0327  0.2506 -0.7685
 8145SOL    HW125876   6.501   0.064   6.630  0.3377 -0.1449 -1.0066
 8145SOL    HW225877   6.404   0.029   6.740  0.2165  1.1038 -0.6919
 8146SOL     OW25878   7.733   1.585  12.039 -0.3732 -0.4845  0.4547
 8146SOL    HW125879   7.790   1.531  11.984  0.4264  0.4302  0.3652
 8146SOL    HW225880   7.644   1.558  12.015 -0.0191 -0.6521 -0.7255
 8147SOL     OW25881   1.387   5.534  11.429 -0.3000  0.1428 -0.2423
 8147SOL    HW125882   1.436   5.459  11.395 -0.0649 -0.4396  1.3000
 8147SOL    HW225883   1.365   5.585  11.352  1.8276 -0.1270 -1.1060
 8148SOL     OW25884   4.024   5.859   4.480  0.1358 -0.2991  0.1553
 8148SOL    HW125885   3.962   5.789   4.458  0.4866 -0.7905  0.6859
 8148SOL    HW225886   4.063   5.883   4.396 -0.7812  0.0345 -0.1918
 8149SOL     OW25887   0.058   2.219   6.350  0.2778 -0.2388  0.0704
 8149SOL    HW125888   0.050   2.207   6.444 -0.5797  3.5960  0.6536
 8149SOL    HW225889  -0.028   2.250   6.322  1.2767  1.4087 -1.4018
 8150SOL     OW25890   2.097   7.554   7.608  0.1203  0.8375  0.1890
 8150SOL    HW125891   2.165   7.612   7.576 -1.1788  1.3414 -1.8085
 8150SOL    HW225892   2.083   7.491   7.537 -1.9592  1.1763  0.2372
 8151SOL     OW25893   1.224   3.281   2.161  0.2806 -0.5012 -0.0909
 8151SOL    HW125894   1.224   3.375   2.180  1.2178 -0.5116 -0.0144
 8151SOL    HW225895   1.131   3.257   2.161  0.0865  0.1050  1.5192
 8152SOL     OW25896   4.450   7.120   9.888  0.0922  0.1685  0.2932
 8152SOL    HW125897   4.528   7.087   9.844 -0.0052  1.8342 -1.2333
 8152SOL    HW225898   4.472   7.120   9.980  1.2114 -1.0973  0.0576
 8153SOL     OW25899   7.359   7.862   0.362  0.1066 -0.6635  0.3976
 8153SOL    HW125900   7.377   7.945   0.406 -0.1719 -1.4773  2.1131
 8153SOL    HW225901   7.268   7.842   0.383 -0.4432 -0.4994 -1.6092
 8154SOL     OW25902   5.173   3.834   9.567  0.7838  0.0255 -0.1903
 8154SOL    HW125903   5.130   3.805   9.487 -3.5632  1.9614  1.1448
 8154SOL    HW225904   5.172   3.757   9.624 -0.9161 -0.0722 -0.2885
 8155SOL     OW25905   3.345   3.743   0.351  0.2502  0.1992  0.1011
 8155SOL    HW125906   3.379   3.790   0.427  1.0764  2.1099 -1.3742
 8155SOL    HW225907   3.423   3.713   0.305 -0.2479 -1.1102  0.0729
 8156SOL     OW25908   1.639   6.992   1.754  0.1482 -0.7103  0.2162
 8156SOL    HW125909   1.639   7.077   1.711  0.9750 -0.6112  0.3953
 8156SOL    HW225910   1.687   7.006   1.835  1.8899 -1.7260 -0.5650
 8157SOL     OW25911   6.993   5.394   0.761 -0.0886 -0.8152  0.1238
 8157SOL    HW125912   7.018   5.352   0.679 -1.1774 -1.5150  0.1199
 8157SOL    HW225913   7.059   5.461   0.775  1.6268 -2.4110  0.0338
 8158SOL     OW25914   1.111   6.137   8.342 -0.2516  0.0011  0.3109
 8158SOL    HW125915   1.068   6.168   8.421  0.8129  2.0638  0.1382
 8158SOL    HW225916   1.204   6.156   8.356 -0.0345  0.4025 -1.4087
 8159SOL     OW25917   3.631   5.940  11.276  0.0880  0.3837  0.3816
 8159SOL    HW125918   3.635   6.036  11.274  0.3336  0.3790  0.5816
 8159SOL    HW225919   3.553   5.921  11.329  0.3244  0.4728  0.7647
 8160SOL     OW25920   5.248   4.181   4.618  0.0661  0.2358  0.5293
 8160SOL    HW125921   5.237   4.086   4.612  1.9963  0.0827 -2.8883
 8160SOL    HW225922   5.178   4.217   4.564 -0.3965  0.8119  1.4691
 8161SOL     OW25923   3.028   4.940   1.623  0.1024 -0.1198 -0.2934
 8161SOL    HW125924   2.949   4.932   1.571 -0.1353  0.4086 -0.0242
 8161SOL    HW225925   3.000   4.921   1.713 -0.2240  2.2414  0.1707
 8162SOL     OW25926   4.568   5.793   1.159  0.0985 -0.5718 -0.0714
 8162SOL    HW125927   4.605   5.872   1.120  0.9565 -0.2380  1.3593
 8162SOL    HW225928   4.512   5.825   1.229 -0.8113 -1.1882 -0.5016
 8163SOL     OW25929   0.462   5.921   8.926 -0.2536 -0.4496 -0.6332
 8163SOL    HW125930   0.475   5.844   8.981 -0.5858 -0.4012 -0.4892
 8163SOL    HW225931   0.392   5.970   8.968  1.3829  1.0422  0.4869
 8164SOL     OW25932   4.536   1.476   4.881 -0.3527  0.1872  0.1691
 8164SOL    HW125933   4.624   1.514   4.878 -1.2361  2.2967 -0.5954
 8164SOL    HW225934   4.478   1.547   4.854 -2.3455 -1.0591  0.9542
 8165SOL     OW25935   5.213   5.940   5.891  0.2388 -0.2988 -0.1643
 8165SOL    HW125936   5.243   5.876   5.955  1.3188  0.4620  0.1195
 8165SOL    HW225937   5.201   5.889   5.810 -0.0783 -1.0650  0.3551
 8166SOL     OW25938   6.294   0.280   5.815  0.4748  0.1780 -0.1247
 8166SOL    HW125939   6.358   0.349   5.802  0.1290  0.3822 -0.8396
 8166SOL    HW225940   6.223   0.302   5.754  0.0313 -0.4045  0.1698
 8167SOL     OW25941   5.627   5.694  10.121  0.1077  0.5170 -0.3117
 8167SOL    HW125942   5.568   5.625  10.089 -1.0839  2.0891 -1.7549
 8167SOL    HW225943   5.648   5.745  10.042  1.8685  1.1494  0.5218
 8168SOL     OW25944   1.717   6.255   2.634  0.7103  0.4808 -0.1955
 8168SOL    HW125945   1.728   6.330   2.575 -0.1795 -0.1176 -1.1596
 8168SOL    HW225946   1.778   6.189   2.600  1.6097  0.8020  0.7475
 8169SOL     OW25947   6.549   4.613  10.941 -0.3529  0.1601 -0.1064
 8169SOL    HW125948   6.562   4.579  10.853  1.5105  1.4171 -0.3716
 8169SOL    HW225949   6.622   4.673  10.955 -0.5566 -0.0548  2.3318
 8170SOL     OW25950   7.965   7.625   8.524 -0.6363  0.0498  0.2134
 8170SOL    HW125951   7.915   7.568   8.466  1.1180  0.1894 -1.5660
 8170SOL    HW225952   7.913   7.704   8.532 -0.8881  0.0744 -1.3265
 8171SOL     OW25953   2.747   5.756   7.498  0.4998 -0.0363 -0.3100
 8171SOL    HW125954   2.788   5.671   7.518  0.2643 -0.0218  0.2796
 8171SOL    HW225955   2.709   5.783   7.582 -2.4733 -1.0055 -1.2395
 8172SOL     OW25956   1.618   5.914   3.196 -0.2296  0.0738 -0.2773
 8172SOL    HW125957   1.640   5.911   3.289  0.1321 -0.1380 -0.3687
 8172SOL    HW225958   1.629   6.006   3.172  1.0821 -0.1033 -0.4391
 8173SOL     OW25959   6.192   7.312   7.191 -0.1508 -0.1791  0.1084
 8173SOL    HW125960   6.139   7.255   7.134  0.4401  0.7069 -1.3846
 8173SOL    HW225961   6.260   7.346   7.133  0.4367  0.8138  1.3562
 8174SOL     OW25962   5.419   2.855  11.565  0.4529  0.6283  0.3232
 8174SOL    HW125963   5.416   2.760  11.572 -3.4353  0.6595  1.2139
 8174SOL    HW225964   5.388   2.873  11.476  1.5990  1.1187  0.0004
 8175SOL     OW25965   6.674   0.746   4.595 -0.4704 -0.2420 -0.3675
 8175SOL    HW125966   6.768   0.762   4.592 -0.7311  1.3835 -1.1692
 8175SOL    HW225967   6.657   0.689   4.520 -0.4152  1.4424 -1.7192
 8176SOL     OW25968   3.965   5.349   6.883 -0.4889  0.0798 -0.1471
 8176SOL    HW125969   3.921   5.265   6.894  1.1701 -1.1781 -2.2373
 8176SOL    HW225970   4.041   5.344   6.940  0.3104 -0.4427 -1.2101
 8177SOL     OW25971   4.929   1.580  11.636 -0.3159 -0.6723 -0.0271
 8177SOL    HW125972   4.837   1.591  11.660 -0.3444 -0.0284 -0.3956
 8177SOL    HW225973   4.935   1.490  11.603 -0.8480 -0.6679 -0.1444
 8178SOL     OW25974   0.330   2.758   3.568  0.0561  0.6998  0.2728
 8178SOL    HW125975   0.330   2.837   3.621 -0.3618  0.8818  0.0045
 8178SOL    HW225976   0.263   2.774   3.500  0.4680  0.4065 -0.2090
 8179SOL     OW25977   7.544   4.844   3.153 -1.0603  0.1425 -0.4805
 8179SOL    HW125978   7.568   4.928   3.193 -2.2639  0.9591 -1.4082
 8179SOL    HW225979   7.530   4.864   3.061 -1.9982 -0.9497 -0.5990
 8180SOL     OW25980   5.510   4.916  11.116 -0.0234 -0.3208  0.5988
 8180SOL    HW125981   5.454   4.866  11.056 -0.6066  0.2591  0.6488
 8180SOL    HW225982   5.543   4.988  11.063 -2.1843  1.3912  1.4562
 8181SOL     OW25983   3.103   2.227   6.648  0.3320  0.5856 -0.1202
 8181SOL    HW125984   3.178   2.178   6.613  1.8885  2.1313  0.8744
 8181SOL    HW225985   3.026   2.179   6.616  1.7241 -1.6031 -0.4318
 8182SOL     OW25986   6.068   6.324   4.675  0.9865 -0.4296 -0.1221
 8182SOL    HW125987   6.019   6.273   4.740  1.1576  0.2763  0.5731
 8182SOL    HW225988   6.068   6.413   4.710  3.4819 -0.5511  0.3173
 8183SOL     OW25989   0.801   7.509   6.009 -0.5522  0.1013 -0.1645
 8183SOL    HW125990   0.859   7.461   5.949  0.9307 -0.0917  1.3548
 8183SOL    HW225991   0.834   7.598   6.007  1.2405 -0.3965  2.2385
 8184SOL     OW25992   6.068   6.803   5.264 -0.6290  0.1338 -0.6169
 8184SOL    HW125993   6.034   6.889   5.243 -1.1924 -0.2093 -1.1476
 8184SOL    HW225994   5.990   6.749   5.280 -0.2642 -0.0654  0.6008
 8185SOL     OW25995   6.651   1.884   7.739  0.3409  0.3009 -0.3005
 8185SOL    HW125996   6.644   1.815   7.805 -2.8506  0.8369  0.1006
 8185SOL    HW225997   6.638   1.839   7.655 -1.2032  0.2617 -0.0769
 8186SOL     OW25998   1.603   6.843   6.443  0.0567 -0.3155  0.7832
 8186SOL    HW125999   1.608   6.906   6.371 -1.4591  0.3128  1.1793
 8186SOL    HW226000   1.597   6.758   6.400  3.3138 -0.4240  0.2326
 8187SOL     OW26001   5.440   4.733  12.014 -0.6436 -0.9803  0.3493
 8187SOL    HW126002   5.531   4.706  12.028 -0.4077 -1.0020 -1.0846
 8187SOL    HW226003   5.419   4.703  11.926 -2.0506 -0.9585  0.6555
 8188SOL     OW26004   7.583   0.210   8.965 -0.2998 -0.1542 -0.1660
 8188SOL    HW126005   7.506   0.250   9.006  1.1518  2.8592 -0.1397
 8188SOL    HW226006   7.631   0.171   9.038 -1.2400 -1.1807 -0.0572
 8189SOL     OW26007   2.004   2.133  11.798  0.1840 -0.5611  0.0207
 8189SOL    HW126008   2.011   2.191  11.874 -0.9959 -1.0615  0.5359
 8189SOL    HW226009   2.087   2.085  11.797  0.9994  0.8116 -0.1678
 8190SOL     OW26010   2.275   4.710   9.089  0.1310  0.6127  0.4666
 8190SOL    HW126011   2.205   4.662   9.046  0.0979  0.9172  0.1746
 8190SOL    HW226012   2.332   4.739   9.017  0.9335 -0.2107  0.7448
 8191SOL     OW26013   6.382   6.157   3.217 -0.0511 -0.1012  0.3033
 8191SOL    HW126014   6.372   6.248   3.191  0.0506 -0.5711 -1.6103
 8191SOL    HW226015   6.316   6.143   3.285  0.1517  1.4610  0.8515
 8192SOL     OW26016   1.220   1.228   1.079 -0.0441  0.2617 -0.3147
 8192SOL    HW126017   1.163   1.269   1.014  0.0600 -1.5994 -1.6625
 8192SOL    HW226018   1.174   1.239   1.162 -0.6214  1.8942 -0.8094
 8193SOL     OW26019   6.781   2.626   4.184 -0.2605 -0.0999  0.0525
 8193SOL    HW126020   6.804   2.719   4.174 -0.8477  0.0667  0.2049
 8193SOL    HW226021   6.714   2.626   4.253 -0.1091 -0.6605  0.1999
 8194SOL     OW26022   3.641   5.331   6.337  0.1290 -0.3939  0.3260
 8194SOL    HW126023   3.598   5.290   6.261 -0.3944  0.7598 -0.0211
 8194SOL    HW226024   3.599   5.417   6.345  0.1684 -0.4959  1.9420
 8195SOL     OW26025   1.871   7.976  11.659 -0.5970  0.2973  0.1243
 8195SOL    HW126026   1.892   8.064  11.629 -1.1759  0.2294 -0.5095
 8195SOL    HW226027   1.929   7.918  11.608 -0.1634  0.3039  0.5939
 8196SOL     OW26028   4.070   6.219   4.268  0.7946  0.5400 -0.7888
 8196SOL    HW126029   4.052   6.265   4.350 -0.8031  1.2303 -1.4878
 8196SOL    HW226030   4.023   6.268   4.201  1.1874 -0.6191 -1.9757
 8197SOL     OW26031   6.096   2.659   1.217  0.1427 -0.2194 -0.4304
 8197SOL    HW126032   6.159   2.662   1.145  0.2356 -1.6303 -0.4407
 8197SOL    HW226033   6.150   2.653   1.295  0.0497  1.6481 -0.1662
 8198SOL     OW26034   7.410   0.313  11.299  0.2892  0.0191 -0.4914
 8198SOL    HW126035   7.396   0.365  11.220  0.7355  1.4534  0.3328
 8198SOL    HW226036   7.356   0.235  11.286  0.7406 -0.0366 -2.4174
 8199SOL     OW26037   6.040   7.955   7.438  0.3978 -0.7758  0.4315
 8199SOL    HW126038   5.999   7.921   7.358  1.2130  0.0722 -0.3802
 8199SOL    HW226039   6.127   7.915   7.439  0.7637 -0.0071  0.3317
 8200SOL     OW26040   7.666   0.764   0.009  0.3374  0.1445  0.3564
 8200SOL    HW126041   7.745   0.711   0.012 -1.8259 -3.4355 -0.3969
 8200SOL    HW226042   7.634   0.755  -0.081 -1.5248  0.5048  0.9334
 8201SOL     OW26043   0.440   1.927   5.465 -0.3689  0.3697 -0.4620
 8201SOL    HW126044   0.476   1.904   5.379 -1.0985  0.1390 -0.7140
 8201SOL    HW226045   0.483   1.866   5.525 -0.3866  0.0518 -0.7656
 8202SOL     OW26046   3.583   7.808   5.607  0.2217  0.9470 -0.0513
 8202SOL    HW126047   3.583   7.726   5.656  2.6004 -0.1013 -1.6168
 8202SOL    HW226048   3.539   7.871   5.665 -0.1105 -1.0017  1.9253
 8203SOL     OW26049   3.024   1.061   3.511 -0.0337 -0.1329  0.2523
 8203SOL    HW126050   3.100   1.119   3.508 -1.7067  2.2113 -0.0064
 8203SOL    HW226051   2.979   1.084   3.592 -0.5491 -1.3948  0.3499
 8204SOL     OW26052   1.971   0.566   9.458 -0.6110  0.1212  0.1404
 8204SOL    HW126053   2.042   0.558   9.521 -1.0866 -0.9984  0.5661
 8204SOL    HW226054   2.012   0.546   9.373 -0.7195 -2.2092  0.5828
 8205SOL     OW26055   4.552   2.051   2.601  0.0765 -0.5095  0.6059
 8205SOL    HW126056   4.498   1.985   2.559  1.5664 -0.5568 -1.3876
 8205SOL    HW226057   4.638   2.010   2.610  0.3228  0.2349  1.8686
 8206SOL     OW26058   4.347   0.436  11.108  0.5621 -0.0369 -0.3210
 8206SOL    HW126059   4.403   0.460  11.182 -0.3503 -0.8426  0.6536
 8206SOL    HW226060   4.401   0.455  11.031  1.8558  0.0061  0.5621
 8207SOL     OW26061   1.052   3.807  10.118  0.6242 -0.0665  0.0185
 8207SOL    HW126062   0.967   3.850  10.103  1.1922  1.9591  2.0810
 8207SOL    HW226063   1.051   3.785  10.211  1.8462 -1.2946 -0.2306
 8208SOL     OW26064   3.949   4.466   0.241 -0.8247 -0.7732  0.5316
 8208SOL    HW126065   3.879   4.520   0.277 -0.3551 -1.3989  2.4751
 8208SOL    HW226066   4.030   4.508   0.272 -0.3805 -1.1708 -0.0551
 8209SOL     OW26067   6.410   5.469   8.370 -0.0086  0.3294 -0.4891
 8209SOL    HW126068   6.347   5.506   8.308 -1.4847  0.2094  0.8588
 8209SOL    HW226069   6.393   5.516   8.452  1.6195  0.2155 -0.0476
 8210SOL     OW26070   5.358   6.900  10.575  0.4815 -0.5075  0.3985
 8210SOL    HW126071   5.299   6.838  10.533 -0.2610  0.3301  0.1960
 8210SOL    HW226072   5.316   6.921  10.658 -0.4191  1.4130 -0.4859
 8211SOL     OW26073   6.644   5.302   3.610 -0.3627 -0.0011 -0.5835
 8211SOL    HW126074   6.702   5.342   3.674 -0.3683 -0.1477 -0.4846
 8211SOL    HW226075   6.658   5.208   3.622  0.0492 -0.0239 -1.1754
 8212SOL     OW26076   0.179   6.962   0.940 -0.4790  0.4097 -0.1255
 8212SOL    HW126077   0.217   6.977   1.027  0.5034  0.1355 -0.4971
 8212SOL    HW226078   0.089   6.994   0.948 -0.6922 -0.4452  1.2521
 8213SOL     OW26079   7.031   1.242   6.300  0.2805 -0.3261 -0.6562
 8213SOL    HW126080   7.074   1.265   6.382  0.1325  1.8415 -1.1457
 8213SOL    HW226081   6.990   1.323   6.270 -1.7908 -1.6371 -1.6407
 8214SOL     OW26082   4.130   1.684   1.616  0.8765 -0.1789  0.2153
 8214SOL    HW126083   4.061   1.727   1.565  0.7818 -0.2257  0.3031
 8214SOL    HW226084   4.083   1.643   1.689  1.1738  1.1943  1.2156
 8215SOL     OW26085   5.305   5.163   5.418  0.4711  0.5328  0.7735
 8215SOL    HW126086   5.385   5.207   5.387  0.2754 -1.0210 -2.2273
 8215SOL    HW226087   5.234   5.221   5.391  0.4190  0.3271  0.4681
 8216SOL     OW26088   3.512   0.829   2.199 -0.6535 -0.0324  0.4233
 8216SOL    HW126089   3.458   0.788   2.267 -1.1089  0.1737  0.1880
 8216SOL    HW226090   3.452   0.884   2.150  0.1071  1.6031  1.2545
 8217SOL     OW26091   4.340   0.269   4.510  0.0393  0.5546 -0.1251
 8217SOL    HW126092   4.320   0.175   4.503  0.6442  0.2692  1.4399
 8217SOL    HW226093   4.257   0.313   4.490 -0.1742 -0.2829 -1.1926
 8218SOL     OW26094   1.265   5.251  10.517 -0.0456  0.3967 -0.3155
 8218SOL    HW126095   1.237   5.340  10.536  1.0318  0.5086  0.9609
 8218SOL    HW226096   1.266   5.245  10.421 -2.4863  0.9393 -0.4167
 8219SOL     OW26097   5.128   4.658   1.375  0.7318 -0.3485 -0.3360
 8219SOL    HW126098   5.094   4.638   1.462  0.2113 -0.3933 -0.5438
 8219SOL    HW226099   5.121   4.753   1.368  1.9479 -0.2108  0.1414
 8220SOL     OW26100   3.607   7.390   3.932 -0.4963  0.0344  0.2363
 8220SOL    HW126101   3.654   7.423   4.009  0.2880 -1.9458  0.6680
 8220SOL    HW226102   3.625   7.296   3.931  0.1205  0.0611 -2.7637
 8221SOL     OW26103   0.294   3.337   3.967 -0.1154  0.3782 -0.7830
 8221SOL    HW126104   0.222   3.390   3.932 -0.9197 -0.4061 -0.3620
 8221SOL    HW226105   0.275   3.248   3.938 -0.6040 -0.2396  1.2596
 8222SOL     OW26106   3.620   6.495   2.853 -0.1669 -0.6439 -0.2595
 8222SOL    HW126107   3.538   6.449   2.836  0.6180 -2.3124  0.2332
 8222SOL    HW226108   3.624   6.503   2.949  0.2908 -0.6846 -0.2716
 8223SOL     OW26109   7.492   6.821   3.409 -0.0630 -0.0090  0.4334
 8223SOL    HW126110   7.483   6.747   3.469 -0.1746 -0.4907 -0.1672
 8223SOL    HW226111   7.434   6.888   3.445 -2.4942 -1.3519 -0.7398
 8224SOL     OW26112   0.593   4.210   5.938  0.3055  0.3776 -0.2091
 8224SOL    HW126113   0.507   4.251   5.936 -0.8843 -1.9550 -0.3019
 8224SOL    HW226114   0.627   4.219   5.849 -0.8041 -0.5052 -0.7500
 8225SOL     OW26115   2.095   0.150   9.896 -0.9159 -0.3905  0.4573
 8225SOL    HW126116   2.173   0.131   9.844 -1.7512  0.1585 -1.0267
 8225SOL    HW226117   2.087   0.074   9.954 -0.1468 -1.1759 -0.4271
 8226SOL     OW26118   0.366   4.790  10.454  0.1681 -0.3292  0.1204
 8226SOL    HW126119   0.460   4.771  10.465 -0.0612 -0.7878  1.5856
 8226SOL    HW226120   0.324   4.704  10.458 -0.2855 -0.1893 -1.1972
 8227SOL     OW26121   3.635   6.406   6.295  0.9221  0.0231 -0.2349
 8227SOL    HW126122   3.626   6.330   6.352 -0.9263  0.2883 -0.1125
 8227SOL    HW226123   3.591   6.477   6.342  1.8815  0.9713 -0.7234
 8228SOL     OW26124   7.022   0.839   0.307  0.4224 -0.1469  0.1145
 8228SOL    HW126125   7.038   0.927   0.342  0.3918  0.1673 -0.6371
 8228SOL    HW226126   7.098   0.822   0.251  0.7414 -0.8654  0.7499
 8229SOL     OW26127   0.491   4.500   6.881 -0.2065 -0.2104 -0.5269
 8229SOL    HW126128   0.522   4.516   6.970 -1.1861  1.4183 -0.4459
 8229SOL    HW226129   0.494   4.586   6.839 -2.1301 -0.4855 -1.2921
 8230SOL     OW26130   5.693   2.197   1.051 -0.4182 -0.4382  1.2067
 8230SOL    HW126131   5.708   2.173   0.959 -1.2026 -0.5367  1.1029
 8230SOL    HW226132   5.771   2.164   1.097 -0.2804 -0.8804  0.6653
 8231SOL     OW26133   7.697   3.533   6.795 -0.5010  1.2102  0.0899
 8231SOL    HW126134   7.700   3.454   6.742 -1.9596  1.3658 -0.2756
 8231SOL    HW226135   7.669   3.504   6.882 -0.3103  1.2426  0.1643
 8232SOL     OW26136   2.203   4.350   4.078  0.1639 -0.4720  0.3553
 8232SOL    HW126137   2.297   4.365   4.077  0.0800  0.1506 -1.2431
 8232SOL    HW226138   2.168   4.408   4.010 -1.4948  0.0185  1.5571
 8233SOL     OW26139   3.886   3.574  11.597  0.5316 -0.0001 -0.0485
 8233SOL    HW126140   3.841   3.539  11.520 -2.1214  1.7249  0.5986
 8233SOL    HW226141   3.950   3.636  11.562  0.9589 -0.8994 -0.9094
 8234SOL     OW26142   7.502   7.367   0.690  0.2086  0.2466  0.1087
 8234SOL    HW126143   7.471   7.458   0.691  0.5094  0.4334 -2.4777
 8234SOL    HW226144   7.446   7.323   0.755 -2.8841  1.3960 -1.5663
 8235SOL     OW26145   3.015   6.520   5.280  0.2044 -0.1457  0.4112
 8235SOL    HW126146   3.100   6.528   5.236  0.4525  0.1812  0.9457
 8235SOL    HW226147   3.019   6.582   5.352 -1.3990  1.7170 -0.9759
 8236SOL     OW26148   1.134   4.591   7.424 -0.2398  0.0810 -0.4662
 8236SOL    HW126149   1.117   4.643   7.502  0.1427 -0.7707  0.2016
 8236SOL    HW226150   1.096   4.505   7.442  1.9470 -0.9167 -0.1577
 8237SOL     OW26151   3.829   1.344  11.705 -0.3067 -0.4413 -0.2516
 8237SOL    HW126152   3.845   1.275  11.640 -0.3253 -0.9891  0.3231
 8237SOL    HW226153   3.734   1.344  11.716 -0.2711 -0.6014  0.0505
 8238SOL     OW26154   0.699   5.627  12.249  0.2077 -0.0838  0.3414
 8238SOL    HW126155   0.793   5.628  12.229 -0.0493  0.8571 -0.9333
 8238SOL    HW226156   0.673   5.536  12.238  0.9229 -0.3087  0.4860
 8239SOL     OW26157   5.136   7.474   1.993 -0.7479 -0.3962  0.0707
 8239SOL    HW126158   5.123   7.568   1.997  1.7353  0.0561 -0.4825
 8239SOL    HW226159   5.048   7.437   1.997 -1.7933  1.9270  0.2219
 8240SOL     OW26160   2.608   3.725  11.197 -0.3744  0.4232  0.2477
 8240SOL    HW126161   2.595   3.636  11.164 -0.0351  0.5249 -0.1757
 8240SOL    HW226162   2.648   3.713  11.283  0.6794  0.1727 -0.2630
 8241SOL     OW26163   0.608   4.835   3.934 -0.2617  0.1894 -0.9322
 8241SOL    HW126164   0.649   4.755   3.901 -0.1372 -0.5222  0.8278
 8241SOL    HW226165   0.562   4.871   3.859 -1.3452 -2.2098 -1.5252
 8242SOL     OW26166   7.550   1.247   2.936  0.0677 -0.5636  0.1214
 8242SOL    HW126167   7.467   1.293   2.923  1.1509  1.0166 -1.7835
 8242SOL    HW226168   7.543   1.170   2.879  0.2921  0.1462 -0.8926
 8243SOL     OW26169   7.224   2.763   1.668  0.1990  0.4163 -0.2029
 8243SOL    HW126170   7.203   2.785   1.759  0.3629 -3.3931  0.9439
 8243SOL    HW226171   7.161   2.813   1.616 -2.9823 -0.5961  2.3052
 8244SOL     OW26172   0.458   2.109   3.198 -0.0379 -0.2615  0.5961
 8244SOL    HW126173   0.409   2.149   3.126 -0.6081  0.6838  1.4847
 8244SOL    HW226174   0.531   2.064   3.155 -0.9735 -0.6450 -0.6530
 8245SOL     OW26175   1.028   5.011  10.545  0.1557  0.5256 -0.0343
 8245SOL    HW126176   1.000   4.985  10.633  1.5614 -1.1431 -0.0141
 8245SOL    HW226177   1.068   5.096  10.556  0.2689  0.3528  0.9366
 8246SOL     OW26178   6.242   6.328  11.557 -0.5015  0.5556 -0.6826
 8246SOL    HW126179   6.229   6.380  11.636  2.8063  1.1196 -0.3410
 8246SOL    HW226180   6.222   6.388  11.485 -0.5434  1.0580 -0.2574
 8247SOL     OW26181   7.367   0.240   9.408  0.3345 -0.2161  0.6910
 8247SOL    HW126182   7.437   0.175   9.395  1.2864  0.7400  0.8695
 8247SOL    HW226183   7.303   0.219   9.340  1.9881  0.4065 -1.1836
 8248SOL     OW26184   5.357   7.116   8.682 -0.0005 -0.1032  0.5822
 8248SOL    HW126185   5.383   7.048   8.745  1.8661  1.4963  1.6405
 8248SOL    HW226186   5.287   7.164   8.726  0.6117  0.3790  1.0589
 8249SOL     OW26187   2.775   5.686   4.516  0.4005  0.2251 -0.0053
 8249SOL    HW126188   2.845   5.643   4.565  0.5027 -0.3154 -0.6046
 8249SOL    HW226189   2.774   5.641   4.431 -3.0090 -2.3729  1.1363
 8250SOL     OW26190   5.430   6.618   5.282 -0.0085  0.5244  0.0955
 8250SOL    HW126191   5.504   6.618   5.221  0.7204  0.1521  0.9577
 8250SOL    HW226192   5.352   6.622   5.226  0.6590  0.8815 -0.8280
 8251SOL     OW26193   5.689   5.312   3.846  0.2048  0.2163 -0.5586
 8251SOL    HW126194   5.758   5.248   3.866 -0.4593 -0.6207 -0.9081
 8251SOL    HW226195   5.689   5.318   3.751  1.4870  2.1342 -0.5162
 8252SOL     OW26196   0.604   3.392  10.964  0.2549 -0.1767  0.2609
 8252SOL    HW126197   0.651   3.448  10.902 -0.1482  0.7979  0.8108
 8252SOL    HW226198   0.522   3.369  10.919  0.1874  0.1095  0.2381
 8253SOL     OW26199   1.773   3.932   9.834  0.0340  0.5545  0.2474
 8253SOL    HW126200   1.786   3.923   9.740  0.1786  0.6947  0.2514
 8253SOL    HW226201   1.835   3.870   9.872 -0.1796  0.3423  0.2444
 8254SOL     OW26202   0.885   0.493   9.196  0.5346  0.1701 -0.1315
 8254SOL    HW126203   0.835   0.528   9.269 -0.9519 -0.4700 -0.8128
 8254SOL    HW226204   0.944   0.429   9.236 -1.5008 -1.4996  0.3761
 8255SOL     OW26205   3.723   3.300  11.969 -0.0115  0.0672  0.5307
 8255SOL    HW126206   3.772   3.251  12.035  0.8951  1.0344  0.5997
 8255SOL    HW226207   3.783   3.307  11.895 -0.7116 -0.2730 -0.0921
 8256SOL     OW26208   0.040   2.598  10.200 -0.5377  0.0544  0.6992
 8256SOL    HW126209   0.106   2.654  10.159 -0.4381 -1.4040 -1.2537
 8256SOL    HW226210   0.089   2.543  10.261  0.0737 -0.9684 -0.6796
 8257SOL     OW26211   1.041   3.758  11.443  0.1426  0.4195  0.7303
 8257SOL    HW126212   0.954   3.787  11.414  0.3127  1.8784  1.6002
 8257SOL    HW226213   1.102   3.809  11.391  0.4878 -0.2728  0.4453
 8258SOL     OW26214   0.894   3.113  11.211  0.0667  0.2361 -0.0266
 8258SOL    HW126215   0.836   3.098  11.137  0.6651 -1.6510 -0.1626
 8258SOL    HW226216   0.845   3.084  11.287  0.7724 -1.4027 -0.1459
 8259SOL     OW26217   4.907   2.021   5.252 -0.0254 -0.2768 -0.3002
 8259SOL    HW126218   4.915   1.948   5.313 -1.6795  0.0901  0.4097
 8259SOL    HW226219   4.978   2.008   5.190  1.8255 -0.5941  1.7612
 8260SOL     OW26220   0.541   0.693  10.348  0.0403 -0.3933  0.0489
 8260SOL    HW126221   0.636   0.688  10.340 -0.0356 -1.3166 -0.3983
 8260SOL    HW226222   0.513   0.755  10.281  0.1856 -1.4155 -0.9752
 8261SOL     OW26223   6.936   4.526   9.135 -0.3056  0.3727  0.2644
 8261SOL    HW126224   6.903   4.612   9.108  0.6442  0.4729 -0.6339
 8261SOL    HW226225   7.031   4.539   9.143 -0.1854 -0.5425  0.3427
 8262SOL     OW26226   2.432   6.438   8.029 -0.3707  0.2392  0.3808
 8262SOL    HW126227   2.348   6.397   8.052 -0.8657  1.2599  0.4461
 8262SOL    HW226228   2.495   6.401   8.092 -0.9342  0.1004  0.8735
 8263SOL     OW26229   4.206   5.699   1.822 -0.3885  0.2007  0.1196
 8263SOL    HW126230   4.268   5.672   1.891 -0.2693 -0.8333 -0.3685
 8263SOL    HW226231   4.261   5.739   1.755 -0.3493  0.0477  0.0600
 8264SOL     OW26232   3.253   0.007   8.663 -0.3314  0.3162  0.3617
 8264SOL    HW126233   3.308  -0.048   8.608 -2.3554 -1.5165  0.0160
 8264SOL    HW226234   3.225  -0.050   8.735 -2.8754  0.6318 -0.2601
 8265SOL     OW26235   2.569   1.671   0.386 -0.6677  0.2631  0.0100
 8265SOL    HW126236   2.542   1.740   0.448 -0.7423  0.1068  0.1516
 8265SOL    HW226237   2.546   1.589   0.430  0.5378  0.0977  0.3671
 8266SOL     OW26238   6.965   1.918   3.969 -0.7592 -0.7311 -0.1256
 8266SOL    HW126239   6.886   1.953   4.010 -0.4876  0.6743 -0.7518
 8266SOL    HW226240   6.933   1.861   3.899 -1.2378  0.3525 -0.8075
 8267SOL     OW26241   4.768   2.600   2.010 -0.2828 -0.1845  0.3869
 8267SOL    HW126242   4.851   2.616   1.966 -0.4875  1.1052  0.4178
 8267SOL    HW226243   4.703   2.644   1.955 -0.5958  1.0970  1.7104
 8268SOL     OW26244   0.286   3.937  10.094 -0.1081 -0.9950  0.1314
 8268SOL    HW126245   0.203   3.945  10.140 -0.0701 -0.5683  0.1273
 8268SOL    HW226246   0.353   3.937  10.162 -0.1836 -2.7874  0.2369
 8269SOL     OW26247   3.441   0.657   3.509  0.1284 -0.0197 -0.3943
 8269SOL    HW126248   3.446   0.599   3.585  0.0977  1.3521  0.7039
 8269SOL    HW226249   3.508   0.724   3.525 -2.0521  2.2022  0.1416
 8270SOL     OW26250   7.780   7.342   8.088  0.1368  0.4036 -0.1088
 8270SOL    HW126251   7.863   7.375   8.052  1.2773 -1.9412  0.1520
 8270SOL    HW226252   7.741   7.292   8.016 -1.0502  1.4112 -0.1968
 8271SOL     OW26253   6.973   2.712  10.150 -0.1068  0.2946 -0.0917
 8271SOL    HW126254   6.930   2.626  10.154  0.6722 -0.1601 -0.9976
 8271SOL    HW226255   6.902   2.775  10.160 -0.4298 -0.4077  3.1919
 8272SOL     OW26256   5.665   2.302   8.258 -0.4147 -0.0910 -0.0991
 8272SOL    HW126257   5.645   2.390   8.225 -0.0888 -0.5074 -1.4894
 8272SOL    HW226258   5.590   2.249   8.230  0.2434 -0.6191 -0.8818
 8273SOL     OW26259   2.112   2.894   9.625 -0.2475  0.3503  0.2566
 8273SOL    HW126260   2.135   2.911   9.716  1.7032  0.5940 -0.2456
 8273SOL    HW226261   2.093   2.800   9.623  2.1468 -0.1970  0.4792
 8274SOL     OW26262   2.549   4.374  10.788  0.3345 -0.4590 -0.0773
 8274SOL    HW126263   2.594   4.351  10.707 -0.7570  0.6885 -1.0625
 8274SOL    HW226264   2.606   4.438  10.830  0.3125 -0.0800 -0.6046
 8275SOL     OW26265   2.233   0.670   9.540  0.1981 -0.0591  0.1397
 8275SOL    HW126266   2.179   0.726   9.595 -0.5284  0.5948 -1.1843
 8275SOL    HW226267   2.274   0.730   9.478  0.6608 -0.8168 -0.2986
 8276SOL     OW26268   2.506   2.420   4.229  0.0966  0.1957  0.6106
 8276SOL    HW126269   2.473   2.496   4.276 -0.4968  0.3311 -0.0028
 8276SOL    HW226270   2.560   2.457   4.159  0.3352  0.0273  0.7044
 8277SOL     OW26271   2.423   4.554   3.278  0.5992  0.1451 -0.2785
 8277SOL    HW126272   2.484   4.616   3.317 -0.3509  0.9535 -0.0306
 8277SOL    HW226273   2.420   4.579   3.185  0.8068 -0.0422 -0.3375
 8278SOL     OW26274   7.945   7.509  11.067 -0.0054 -0.6043 -0.3010
 8278SOL    HW126275   8.032   7.515  11.106 -0.1274  1.3599 -0.1974
 8278SOL    HW226276   7.885   7.532  11.138 -0.4311  0.2553 -0.9166
 8279SOL     OW26277   3.335   6.349   6.269  0.4286 -0.1336 -0.5059
 8279SOL    HW126278   3.381   6.431   6.248  1.8126 -0.9748 -0.8773
 8279SOL    HW226279   3.342   6.341   6.364  2.2960 -0.9151 -0.6640
 8280SOL     OW26280   1.642   7.426   6.120 -0.5564 -0.4126  0.3399
 8280SOL    HW126281   1.718   7.370   6.136 -0.1361  0.2014  0.5199
 8280SOL    HW226282   1.648   7.493   6.188 -0.5189  0.4066 -0.4609
 8281SOL     OW26283   5.415   4.255  11.810  0.2533  0.0268 -0.7147
 8281SOL    HW126284   5.425   4.287  11.900 -0.2004 -0.2765 -0.5503
 8281SOL    HW226285   5.374   4.169  11.820  3.0788 -1.4807 -1.0331
 8282SOL     OW26286   5.447   6.004   4.933  0.1659  0.5059  0.3244
 8282SOL    HW126287   5.441   5.921   4.980 -0.6240  1.2573  1.5952
 8282SOL    HW226288   5.540   6.028   4.940  0.6468 -0.7775 -1.0289
 8283SOL     OW26289   6.416   7.905   4.962 -0.0601  0.4535  0.3771
 8283SOL    HW126290   6.392   7.948   4.880 -0.5862 -0.3475  0.0942
 8283SOL    HW226291   6.512   7.902   4.961 -0.0526 -1.7855 -1.4485
 8284SOL     OW26292   4.721   1.634   2.261  0.2367  0.6258  0.2695
 8284SOL    HW126293   4.802   1.638   2.211  0.2779 -0.1598  0.2623
 8284SOL    HW226294   4.678   1.555   2.231 -0.3029  0.7790  0.6264
 8285SOL     OW26295   5.464   5.191   7.250 -0.2009  0.1468 -0.2396
 8285SOL    HW126296   5.487   5.142   7.329  1.5279  2.4943  0.8251
 8285SOL    HW226297   5.531   5.167   7.186 -0.5493 -0.3576 -0.4321
 8286SOL     OW26298   2.629   2.933   5.493  0.3392 -0.3314 -0.1936
 8286SOL    HW126299   2.661   2.844   5.508 -1.9435 -1.1635  0.1242
 8286SOL    HW226300   2.539   2.932   5.526  0.7313  2.5521  1.2866
 8287SOL     OW26301   5.048   5.566   6.925  0.2766 -0.3411  0.3514
 8287SOL    HW126302   4.955   5.587   6.926  0.2951  0.0842 -1.7930
 8287SOL    HW226303   5.054   5.485   6.875  1.2236  1.1279 -2.1257
 8288SOL     OW26304   5.120   0.639  12.020  0.1402  0.6937 -0.2735
 8288SOL    HW126305   5.157   0.581  12.087  0.4149 -0.2181 -1.1878
 8288SOL    HW226306   5.184   0.710  12.012 -0.5598  1.5581  1.3897
 8289SOL     OW26307   7.171   5.800  11.363  0.1365  0.1128  0.2764
 8289SOL    HW126308   7.146   5.714  11.329 -1.8935  0.3911  0.8926
 8289SOL    HW226309   7.138   5.862  11.297 -0.5176  0.4867  0.9381
 8290SOL     OW26310   3.517   5.919   6.648  0.5150 -0.3506 -0.1526
 8290SOL    HW126311   3.560   5.959   6.724 -0.9941 -0.6287  0.9000
 8290SOL    HW226312   3.485   5.835   6.681  1.9431 -1.6164 -1.7881
 8291SOL     OW26313   7.639   6.666   5.859  0.3429 -0.3343 -0.0380
 8291SOL    HW126314   7.700   6.644   5.929  2.1491  0.2477 -1.3567
 8291SOL    HW226315   7.553   6.637   5.892  1.5200 -2.6846  1.1970
 8292SOL     OW26316   7.335   7.889   8.536 -0.3078  0.2968 -0.4430
 8292SOL    HW126317   7.277   7.813   8.547 -3.0870  2.2527 -0.5972
 8292SOL    HW226318   7.416   7.852   8.502 -1.2771 -2.6678  0.1444
 8293SOL     OW26319   7.082   2.337   6.263  0.1039  0.0625  0.5497
 8293SOL    HW126320   7.000   2.371   6.297  0.5842  0.8236  0.9682
 8293SOL    HW226321   7.065   2.321   6.170 -0.2355  1.1466  0.4135
 8294SOL     OW26322   0.743   6.743   3.976  0.1337  0.1412  0.0573
 8294SOL    HW126323   0.820   6.721   3.924 -0.7804 -0.3020 -1.1723
 8294SOL    HW226324   0.671   6.694   3.934 -0.6848 -0.0881  1.6294
 8295SOL     OW26325   4.902   6.846   0.401  0.6176 -0.1234  0.3117
 8295SOL    HW126326   4.873   6.925   0.356  0.7427 -0.2345  0.0344
 8295SOL    HW226327   4.822   6.808   0.437  0.4423 -0.3137 -0.2654
 8296SOL     OW26328   5.426   3.458   9.896  0.4027 -0.3872  0.6308
 8296SOL    HW126329   5.511   3.497   9.913 -0.5182  1.5513  1.0594
 8296SOL    HW226330   5.402   3.417   9.980  1.1122 -1.4133  0.3540
 8297SOL     OW26331   3.999   6.359   8.066 -0.2543 -0.0127 -0.0619
 8297SOL    HW126332   4.076   6.321   8.110  0.0551  0.8899  0.1904
 8297SOL    HW226333   3.980   6.298   7.994 -0.9606 -1.6884  1.4797
 8298SOL     OW26334   0.069   3.365   9.879  0.3527  0.3838  0.0995
 8298SOL    HW126335  -0.002   3.421   9.848 -1.2359 -2.7273 -2.4687
 8298SOL    HW226336   0.147   3.400   9.836 -0.7468  0.1607 -2.2577
 8299SOL     OW26337   1.972   1.185   2.015 -0.1403  0.0560  0.0328
 8299SOL    HW126338   1.909   1.118   2.043 -0.5307  0.5568  0.3634
 8299SOL    HW226339   1.962   1.188   1.919 -0.5925  0.1081  0.0806
 8300SOL     OW26340   3.473   1.004   0.720 -0.0097  0.1082  0.0401
 8300SOL    HW126341   3.532   0.983   0.648 -0.7751 -1.8421 -0.0842
 8300SOL    HW226342   3.494   0.940   0.788 -0.6151  0.6767  0.7800
 8301SOL     OW26343   0.183   0.980   7.509  0.5343  0.9298 -0.0998
 8301SOL    HW126344   0.099   1.016   7.540 -0.2159 -1.6530  1.1355
 8301SOL    HW226345   0.158   0.905   7.455  2.0541  0.0120  0.4366
 8302SOL     OW26346   7.010   5.196   2.063  0.5991  0.3402 -0.4821
 8302SOL    HW126347   7.023   5.121   2.005 -1.1753 -0.5142  0.1448
 8302SOL    HW226348   7.004   5.157   2.150  1.0907  1.3746  0.0223
 8303SOL     OW26349   0.079   2.570   6.987  0.0946  0.0611 -0.2541
 8303SOL    HW126350   0.071   2.475   6.983  0.9462 -0.1154  1.2411
 8303SOL    HW226351   0.169   2.585   7.015 -0.7782  1.1715  2.3022
 8304SOL     OW26352   3.990   5.143   0.778  0.3366  0.0953 -0.3665
 8304SOL    HW126353   3.942   5.224   0.761  2.1681  1.0660 -1.1424
 8304SOL    HW226354   3.924   5.083   0.813 -1.2148  1.6736 -0.4654
 8305SOL     OW26355   0.950   2.725   1.600  0.1793 -0.0206  0.2065
 8305SOL    HW126356   0.943   2.763   1.513 -0.9675  1.1566  0.7792
 8305SOL    HW226357   1.023   2.771   1.641  1.7137 -1.6242 -0.5965
 8306SOL     OW26358   7.341   4.289   9.093  0.0720 -0.8514 -0.1750
 8306SOL    HW126359   7.316   4.303   9.002 -0.1961  2.5613  0.3201
 8306SOL    HW226360   7.272   4.231   9.127 -0.3022 -1.4777 -1.8884
 8307SOL     OW26361   4.506   7.577   3.059 -0.5505  0.1830 -0.1985
 8307SOL    HW126362   4.503   7.665   3.097 -0.3054 -0.3425  1.0657
 8307SOL    HW226363   4.423   7.569   3.011 -1.8160  0.1259  1.9004
 8308SOL     OW26364   1.601   2.679  11.762  0.4845 -0.1399 -1.0932
 8308SOL    HW126365   1.530   2.647  11.707  0.7166  0.5648 -1.8341
 8308SOL    HW226366   1.639   2.601  11.801 -1.0848 -0.4883 -0.1612
 8309SOL     OW26367   4.215   7.116   4.233 -0.4322  0.5130  0.1386
 8309SOL    HW126368   4.299   7.074   4.210 -0.6399  0.2737 -0.2009
 8309SOL    HW226369   4.170   7.127   4.149 -0.0312  2.2211  0.1126
 8310SOL     OW26370   3.132   7.950   9.172  0.2830 -0.1505  0.0918
 8310SOL    HW126371   3.094   8.037   9.159  0.9863  0.5455  2.3068
 8310SOL    HW226372   3.065   7.903   9.221  0.4630 -0.4314  0.0667
 8311SOL     OW26373   1.799   0.271  12.298 -0.2695  0.4895  0.2248
 8311SOL    HW126374   1.770   0.274  12.207 -0.2726 -1.8445  0.0942
 8311SOL    HW226375   1.765   0.188  12.332  1.1327  0.5211  1.8590
 8312SOL     OW26376   3.908   1.730   8.129 -0.2969  0.1664  0.3908
 8312SOL    HW126377   3.845   1.681   8.076  0.0006 -0.8015  0.9257
 8312SOL    HW226378   3.945   1.794   8.068 -1.2782  0.2825 -0.1054
 8313SOL     OW26379   3.832   2.775   8.153 -0.2727 -0.5777  0.2228
 8313SOL    HW126380   3.766   2.824   8.105 -0.1415 -0.3626  0.2636
 8313SOL    HW226381   3.870   2.838   8.215 -1.0560 -1.0699  1.2286
 8314SOL     OW26382   6.530   3.976  12.376  0.0154 -0.0796 -0.8531
 8314SOL    HW126383   6.461   4.041  12.393  0.3484  0.9950 -3.1302
 8314SOL    HW226384   6.549   3.938  12.461 -2.9767 -0.0090 -0.0327
 8315SOL     OW26385   3.782   6.611   7.477  0.1485 -0.2632 -0.1605
 8315SOL    HW126386   3.852   6.546   7.480 -1.2470 -1.9029 -0.9912
 8315SOL    HW226387   3.754   6.612   7.386 -1.2677 -0.0727  0.2515
 8316SOL     OW26388   2.502   7.133   1.427  0.1668 -0.0568 -0.3192
 8316SOL    HW126389   2.593   7.153   1.449 -0.5687  1.0023  2.0815
 8316SOL    HW226390   2.460   7.219   1.420 -0.9566 -0.5494  0.0934
 8317SOL     OW26391   6.915   1.944   9.555 -0.2425  0.1403  0.7330
 8317SOL    HW126392   6.894   1.884   9.483  1.1458  0.9462 -0.3769
 8317SOL    HW226393   6.951   2.021   9.513 -0.6152  1.1884  2.2400
 8318SOL     OW26394   3.911   0.823   9.821  0.2050  0.4419 -0.0281
 8318SOL    HW126395   3.926   0.907   9.778  1.0921  0.0176 -0.5913
 8318SOL    HW226396   3.821   0.799   9.797  0.7051  0.1730 -1.7710
 8319SOL     OW26397   6.602   0.997   5.869  0.5861 -0.2606 -0.8866
 8319SOL    HW126398   6.587   0.902   5.868 -0.7604 -0.1217  0.7233
 8319SOL    HW226399   6.519   1.034   5.839  0.1848  0.4092  0.8851
 8320SOL     OW26400   1.368   7.422   4.073  0.6830  0.1087 -1.0334
 8320SOL    HW126401   1.279   7.445   4.045 -1.7239 -3.0720  2.7846
 8320SOL    HW226402   1.399   7.500   4.120 -2.0696 -0.0201  1.2848
 8321SOL     OW26403   2.206   5.594  10.452  0.2835  0.6614 -0.0264
 8321SOL    HW126404   2.164   5.553  10.376 -0.6244  1.4745  0.0071
 8321SOL    HW226405   2.155   5.673  10.466  2.2232  2.0425 -0.3481
 8322SOL     OW26406   6.675   1.260  11.534 -0.0018 -0.6052  0.2778
 8322SOL    HW126407   6.696   1.199  11.605 -0.4118 -2.5566 -1.1703
 8322SOL    HW226408   6.759   1.299  11.510  0.4235 -1.2179  0.7329
 8323SOL     OW26409   4.228   5.836  11.104  0.1301 -0.1036  0.5903
 8323SOL    HW126410   4.301   5.774  11.103  0.9507  0.8407  1.1059
 8323SOL    HW226411   4.153   5.783  11.132  0.7539 -0.9323  0.7318
 8324SOL     OW26412   7.267   0.619  10.254  0.3434 -0.0633  0.1241
 8324SOL    HW126413   7.236   0.694  10.305  2.1781  0.7331  0.1645
 8324SOL    HW226414   7.321   0.658  10.186  1.6629 -1.3671  0.3802
 8325SOL     OW26415   6.389   1.622   1.355 -0.5344 -0.0866 -0.4104
 8325SOL    HW126416   6.379   1.715   1.335  0.3303  0.0994 -0.0503
 8325SOL    HW226417   6.436   1.621   1.439 -1.6828 -0.8444  0.2520
 8326SOL     OW26418   6.688   4.484  10.432  0.4815 -0.0393 -0.5432
 8326SOL    HW126419   6.703   4.395  10.463  0.3768 -0.1146 -0.7048
 8326SOL    HW226420   6.607   4.479  10.382  0.3757  0.1843 -0.4009
 8327SOL     OW26421   0.905   2.400   6.032 -0.1747 -0.2721 -0.2525
 8327SOL    HW126422   0.845   2.448   5.975  1.0358  2.1435  0.3603
 8327SOL    HW226423   0.959   2.348   5.972  0.6141  1.6820 -1.3399
 8328SOL     OW26424   5.612   6.101   4.025  0.0329  0.2624  0.5407
 8328SOL    HW126425   5.677   6.031   4.026  0.7937  0.9320  2.3648
 8328SOL    HW226426   5.592   6.117   4.117 -0.1556  2.3806  0.1895
 8329SOL     OW26427   6.472   0.715   2.257  0.7871 -0.7345  0.0490
 8329SOL    HW126428   6.473   0.718   2.162  1.0866  0.1024  0.0706
 8329SOL    HW226429   6.381   0.698   2.280  0.6319 -0.4796 -0.3734
 8330SOL     OW26430   3.288   5.689   7.273  0.0243  0.1067 -0.3601
 8330SOL    HW126431   3.268   5.743   7.196 -2.2701 -0.1085  0.0211
 8330SOL    HW226432   3.316   5.751   7.340  0.8056  0.4225 -0.9599
 8331SOL     OW26433   0.417   2.678   5.877  0.4051 -0.2506 -0.5377
 8331SOL    HW126434   0.331   2.686   5.835 -0.9413 -1.0214  1.9011
 8331SOL    HW226435   0.479   2.691   5.805 -1.6643  2.3203 -2.0537
 8332SOL     OW26436   3.637   4.225   3.922 -0.1821  0.5117 -0.6771
 8332SOL    HW126437   3.733   4.224   3.922 -0.0682 -1.1992 -3.5768
 8332SOL    HW226438   3.614   4.312   3.890  0.4709  0.6225 -0.8628
 8333SOL     OW26439   0.884   7.091   4.122  0.3890  0.0184 -0.7413
 8333SOL    HW126440   0.831   7.062   4.047  2.2642 -3.1641 -1.0007
 8333SOL    HW226441   0.829   7.072   4.198 -0.0851 -0.2075 -1.1320
 8334SOL     OW26442   2.962   3.159   3.753 -0.3827 -0.0390  0.5600
 8334SOL    HW126443   2.999   3.186   3.838 -1.0103  0.2281  0.7518
 8334SOL    HW226444   2.950   3.241   3.705 -0.2321 -0.1717  0.2986
 8335SOL     OW26445   2.369   5.779   1.424 -0.2527 -0.0046  0.0684
 8335SOL    HW126446   2.385   5.830   1.504 -1.2728  0.5236 -0.0521
 8335SOL    HW226447   2.281   5.804   1.397 -0.7494 -1.7711 -0.0464
 8336SOL     OW26448   5.947   5.929   5.242 -0.1236  0.1773 -0.3082
 8336SOL    HW126449   5.958   5.850   5.189 -0.4113  1.3359 -2.1826
 8336SOL    HW226450   5.929   5.896   5.331  1.2805 -1.8240 -0.7019
 8337SOL     OW26451   4.304   0.064  12.364  0.0674  0.4707 -0.1688
 8337SOL    HW126452   4.394   0.083  12.391 -0.4559  2.5258  0.2999
 8337SOL    HW226453   4.299   0.096  12.274  0.0344 -0.4504 -0.4982
 8338SOL     OW26454   6.924   4.098   3.733  0.0278  0.0744 -0.0972
 8338SOL    HW126455   6.936   4.186   3.768 -0.4610 -0.0035  0.2735
 8338SOL    HW226456   6.924   4.110   3.638 -2.2109  0.8106 -0.0696
 8339SOL     OW26457   2.853   1.918   2.690  0.4760  0.8757  0.0370
 8339SOL    HW126458   2.822   1.852   2.628 -1.0818  0.4679  1.2081
 8339SOL    HW226459   2.941   1.941   2.658  0.0506  0.0885 -1.8265
 8340SOL     OW26460   7.847   4.896   1.757 -0.0570  0.4055  0.0199
 8340SOL    HW126461   7.932   4.860   1.785 -0.0426  0.3025 -0.1510
 8340SOL    HW226462   7.858   4.991   1.764 -0.5028  0.3638  1.6617
 8341SOL     OW26463   0.902   0.793  11.205  0.3392 -0.3822 -0.0611
 8341SOL    HW126464   0.958   0.805  11.281  0.8495  0.2530 -0.5279
 8341SOL    HW226465   0.910   0.874  11.155 -0.1109 -0.7217 -0.7119
 8342SOL     OW26466   1.016   5.967   2.575 -0.4826  0.5965 -0.5493
 8342SOL    HW126467   1.099   5.952   2.620 -0.7967  1.3128  0.2899
 8342SOL    HW226468   1.040   5.986   2.484  0.4031  2.5347  0.0597
 8343SOL     OW26469   6.752   6.017   3.142  0.3602  0.1301 -0.0144
 8343SOL    HW126470   6.787   6.087   3.197  1.6835  0.6090 -1.3897
 8343SOL    HW226471   6.696   6.062   3.078 -0.5581 -0.3336  0.4412
 8344SOL     OW26472   5.366   5.465   4.035 -0.1312 -0.0890  0.0295
 8344SOL    HW126473   5.309   5.516   4.093  0.6221  1.4418 -0.5267
 8344SOL    HW226474   5.327   5.473   3.949 -0.2767 -0.8882  0.0135
 8345SOL     OW26475   5.776   0.727  12.292  0.5849 -0.1156  0.0973
 8345SOL    HW126476   5.852   0.781  12.269  1.3204 -0.7932  0.8728
 8345SOL    HW226477   5.813   0.650  12.333 -0.4772 -0.9979 -0.5454
 8346SOL     OW26478   3.852   6.634  12.125 -0.2035  0.3947  0.3857
 8346SOL    HW126479   3.799   6.594  12.193 -0.7634  1.8006  0.8146
 8346SOL    HW226480   3.855   6.569  12.055 -0.4189 -0.6829  1.3552
 8347SOL     OW26481   5.257   6.129   9.318 -0.3897 -0.4150  0.0907
 8347SOL    HW126482   5.200   6.118   9.394 -0.7636 -0.9535 -0.2620
 8347SOL    HW226483   5.318   6.198   9.344 -0.7974 -0.2786  0.7109
 8348SOL     OW26484   1.651   1.187   5.084  0.6717  0.3728 -0.6633
 8348SOL    HW126485   1.695   1.130   5.021  0.0235  0.3192 -1.0793
 8348SOL    HW226486   1.557   1.171   5.069  0.5008  0.9320 -0.2154
 8349SOL     OW26487   2.388   2.530   0.399  0.5623  0.8499  0.8427
 8349SOL    HW126488   2.463   2.564   0.350  0.3973  0.9596  0.6612
 8349SOL    HW226489   2.323   2.601   0.395 -1.0533 -0.6006 -2.3161
 8350SOL     OW26490   6.097   5.431  10.112 -0.1481 -0.7533  0.5443
 8350SOL    HW126491   6.116   5.495  10.180  0.0843 -0.0334 -0.1759
 8350SOL    HW226492   6.072   5.483  10.036 -1.7024 -1.5796  0.4480
 8351SOL     OW26493   1.560   7.589  12.217 -0.2123 -0.3394 -0.6101
 8351SOL    HW126494   1.598   7.652  12.155  2.9125 -1.0831  0.3853
 8351SOL    HW226495   1.632   7.531  12.240 -0.5635  0.8096  4.9286
 8352SOL     OW26496   6.550   3.003  11.813 -0.6362  0.2726 -0.4072
 8352SOL    HW126497   6.610   3.021  11.885 -0.5120 -1.4620 -0.0467
 8352SOL    HW226498   6.606   2.993  11.736 -0.7799  2.2858 -0.8374
 8353SOL     OW26499   1.279   4.907   4.501 -0.0322  0.0561  0.7995
 8353SOL    HW126500   1.304   4.821   4.534 -0.6194  0.0568  1.2622
 8353SOL    HW226501   1.362   4.950   4.479  0.2693 -0.5784  0.6756
 8354SOL     OW26502   7.040   1.950   6.117  0.0648  0.1839  0.1325
 8354SOL    HW126503   7.132   1.976   6.110  0.0366  0.1820 -0.2795
 8354SOL    HW226504   6.995   2.007   6.055 -0.6037  2.0519  2.1947
 8355SOL     OW26505   5.910   3.643   8.209  0.0579  0.0532 -0.4494
 8355SOL    HW126506   5.830   3.694   8.222 -0.3500  0.0587 -2.6687
 8355SOL    HW226507   5.928   3.606   8.296 -0.0973  3.2088  1.0682
 8356SOL     OW26508   3.264   2.842   9.365  0.4863 -0.4029 -0.2226
 8356SOL    HW126509   3.189   2.887   9.327  0.8746 -0.1972 -0.7527
 8356SOL    HW226510   3.280   2.768   9.307  1.3500  0.1546 -0.7116
 8357SOL     OW26511   6.608   2.667   1.061  0.5867  0.6851  0.0611
 8357SOL    HW126512   6.679   2.702   1.007 -0.7645  2.1338 -0.8941
 8357SOL    HW226513   6.557   2.612   1.001  0.2118  0.6570  0.3994
 8358SOL     OW26514   3.950   6.538   5.732 -0.1564  0.4448  0.1402
 8358SOL    HW126515   3.929   6.469   5.670  1.6102 -0.9301  0.9867
 8358SOL    HW226516   3.867   6.583   5.747 -1.0661 -0.6016 -1.4798
 8359SOL     OW26517   6.451   6.762   7.357  0.2489 -0.0124  0.1390
 8359SOL    HW126518   6.476   6.726   7.272  0.4424  0.0472  0.1722
 8359SOL    HW226519   6.533   6.771   7.406  0.0000 -1.3491  0.8427
 8360SOL     OW26520   0.822   2.781   0.861  0.1860  0.4391  0.3379
 8360SOL    HW126521   0.745   2.760   0.913  0.6184 -1.0774  0.3893
 8360SOL    HW226522   0.860   2.857   0.904  0.5483 -0.7875  2.2685
 8361SOL     OW26523   3.607   1.638   3.591 -0.1862 -0.3213 -0.4664
 8361SOL    HW126524   3.699   1.649   3.570 -0.1935 -0.4049 -0.5439
 8361SOL    HW226525   3.569   1.726   3.579  0.0950 -0.0351  0.6763
 8362SOL     OW26526   3.604   6.508   5.060 -0.7040 -0.3780  0.0909
 8362SOL    HW126527   3.656   6.432   5.086 -0.4188 -0.1212  0.2821
 8362SOL    HW226528   3.544   6.474   4.994 -1.9519 -1.1987  1.5894
 8363SOL     OW26529   2.853   3.533   8.233 -0.0717  0.1905  0.1836
 8363SOL    HW126530   2.854   3.536   8.329  1.6521  0.4875  0.1884
 8363SOL    HW226531   2.885   3.446   8.212 -1.2200 -0.1690 -0.1448
 8364SOL     OW26532   2.255   6.384   2.048 -0.4625  0.0412  0.5191
 8364SOL    HW126533   2.306   6.315   2.004 -0.2916  0.3552  0.2185
 8364SOL    HW226534   2.255   6.359   2.140  0.7572  0.3538  0.6262
 8365SOL     OW26535   7.160   7.715   2.440  0.0340 -0.5753  0.1491
 8365SOL    HW126536   7.156   7.768   2.360 -0.1262  0.3959  0.7725
 8365SOL    HW226537   7.251   7.689   2.448 -0.1652 -1.6942 -0.9720
 8366SOL     OW26538   3.662   4.049   0.592  0.4613 -0.3214 -0.0713
 8366SOL    HW126539   3.700   3.964   0.612  1.3761 -0.0496 -0.6288
 8366SOL    HW226540   3.638   4.086   0.678 -0.5001 -1.3720  0.1388
 8367SOL     OW26541   1.230   1.433   4.619  0.1147 -0.1783  0.1214
 8367SOL    HW126542   1.310   1.395   4.654  0.3153 -1.1494 -1.2926
 8367SOL    HW226543   1.256   1.520   4.590  0.3460 -0.0091  0.8264
 8368SOL     OW26544   6.078   0.003   4.469 -0.2123 -0.1270 -0.5410
 8368SOL    HW126545   6.009   0.055   4.427  0.6667  1.6251  0.0822
 8368SOL    HW226546   6.043  -0.018   4.556 -0.2652  0.1203 -0.5015
 8369SOL     OW26547   5.820   5.966   0.545 -0.9295  0.2614  0.2396
 8369SOL    HW126548   5.874   5.909   0.599 -0.2362  0.5608 -0.1219
 8369SOL    HW226549   5.829   5.931   0.456 -2.0010 -0.1846  0.2982
 8370SOL     OW26550   6.312   3.538  10.882 -0.7869  0.0944  0.2780
 8370SOL    HW126551   6.361   3.583  10.951 -0.1135  0.2544 -0.2914
 8370SOL    HW226552   6.360   3.558  10.801 -2.2657  0.9536 -0.4189
 8371SOL     OW26553   2.224   0.783   7.854  0.1791 -0.2041  0.3790
 8371SOL    HW126554   2.226   0.873   7.820 -0.6913  0.8014  2.7682
 8371SOL    HW226555   2.309   0.772   7.897 -0.4010  0.1730  1.6602
 8372SOL     OW26556   4.021   1.965   3.908 -0.2599  0.0390  0.3346
 8372SOL    HW126557   4.020   2.030   3.978 -0.8146  1.1493 -0.6667
 8372SOL    HW226558   3.975   2.007   3.835 -0.3155 -1.3416 -0.4730
 8373SOL     OW26559   5.934   0.886  10.768  0.3413  0.2258  0.0048
 8373SOL    HW126560   5.848   0.919  10.793 -0.0347  1.2609 -2.3970
 8373SOL    HW226561   5.994   0.922  10.833 -0.8015  1.1260  0.5856
 8374SOL     OW26562   5.446   3.516  10.758 -0.1334 -0.5142  0.2022
 8374SOL    HW126563   5.423   3.526  10.666  1.4214 -1.3584 -0.3226
 8374SOL    HW226564   5.475   3.604  10.785 -1.6021 -0.0152  0.2166
 8375SOL     OW26565   0.281   1.155  12.305  0.6047 -0.4853  0.0864
 8375SOL    HW126566   0.375   1.141  12.317  0.4366 -0.4525  1.7223
 8375SOL    HW226567   0.242   1.067  12.309  0.5722 -0.5318 -0.9074
 8376SOL     OW26568   0.944   2.670   4.711 -0.2484  0.5294  0.1815
 8376SOL    HW126569   0.981   2.758   4.720 -0.0757  0.6196 -1.2264
 8376SOL    HW226570   0.958   2.630   4.797  2.1253  0.9502  0.0588
 8377SOL     OW26571   1.910   2.513   3.123 -0.1818  0.8810  0.4960
 8377SOL    HW126572   1.904   2.606   3.101  0.7554  0.5154 -1.5388
 8377SOL    HW226573   1.939   2.471   3.042 -0.8148 -1.2291  1.3009
 8378SOL     OW26574   3.043   1.393   5.761 -0.7018  0.3209 -1.1099
 8378SOL    HW126575   2.955   1.401   5.723 -1.8171 -1.3868  0.9027
 8378SOL    HW226576   3.062   1.300   5.758 -0.5514  0.1824  1.6991
 8379SOL     OW26577   3.034   6.789   6.995 -0.8461 -0.1123 -0.0983
 8379SOL    HW126578   2.958   6.746   6.958 -1.5685 -0.6246  1.8386
 8379SOL    HW226579   3.070   6.725   7.057  2.0391 -0.4514 -1.9381
 8380SOL     OW26580   6.461   2.296  12.146  0.4242  0.1203  0.2297
 8380SOL    HW126581   6.544   2.294  12.194  0.2887  1.2746  0.5299
 8380SOL    HW226582   6.485   2.268  12.057  1.3959  1.6322 -0.0288
 8381SOL     OW26583   6.781   5.205   4.419 -0.1262 -0.5229  0.8962
 8381SOL    HW126584   6.835   5.130   4.444  0.5583 -0.1109  0.6976
 8381SOL    HW226585   6.813   5.229   4.332 -1.0845 -0.6776  0.4885
 8382SOL     OW26586   2.378   6.012   1.584  0.2443  0.0588  0.2536
 8382SOL    HW126587   2.325   6.090   1.600  1.3021  1.0014 -0.6186
 8382SOL    HW226588   2.466   6.037   1.612  0.3183 -1.3989  1.4879
 8383SOL     OW26589   5.491   3.153   1.325  0.2328 -0.2912  0.2656
 8383SOL    HW126590   5.469   3.092   1.255 -1.0057 -0.2799  0.6161
 8383SOL    HW226591   5.451   3.114   1.403  1.0552  0.0143  0.8413
 8384SOL     OW26592   1.371   6.551   2.392 -0.2606 -0.5499 -0.4931
 8384SOL    HW126593   1.399   6.641   2.374 -1.4166 -0.2619 -0.9380
 8384SOL    HW226594   1.304   6.560   2.460  0.8567 -1.2445  0.7502
 8385SOL     OW26595   2.722   0.010   4.091 -0.1215 -0.2275  0.6825
 8385SOL    HW126596   2.646  -0.003   4.035 -1.0371  1.3114  1.4996
 8385SOL    HW226597   2.745  -0.078   4.121 -0.9862 -0.8175 -0.3088
 8386SOL     OW26598   6.286   1.794   2.223  0.1091 -0.1659  0.0242
 8386SOL    HW126599   6.216   1.817   2.284  0.8089  0.2634  0.6823
 8386SOL    HW226600   6.362   1.841   2.255  0.9815 -1.4835 -0.0363
 8387SOL     OW26601   3.205   5.474   3.764 -0.5120  0.3586 -0.4630
 8387SOL    HW126602   3.176   5.414   3.833  0.3677 -1.5725 -1.7050
 8387SOL    HW226603   3.300   5.479   3.776  0.1373 -2.3910 -3.2092
 8388SOL     OW26604   3.442   1.517   1.976 -0.8011 -0.0628 -0.0046
 8388SOL    HW126605   3.360   1.551   2.010 -0.7783  1.3426 -1.2247
 8388SOL    HW226606   3.508   1.580   2.006 -0.5499  0.2398 -1.1331
 8389SOL     OW26607   6.998   3.279   3.195  0.1450 -0.1160 -0.0004
 8389SOL    HW126608   6.921   3.235   3.158 -0.0524 -0.8945  1.2500
 8389SOL    HW226609   6.963   3.334   3.265  0.7423 -0.7707  0.8336
 8390SOL     OW26610   0.283   5.708  10.052 -0.0247 -0.4062  0.2581
 8390SOL    HW126611   0.347   5.696   9.982  2.7925  1.1745  2.3387
 8390SOL    HW226612   0.262   5.802  10.049  0.3648 -0.2560  1.6363
 8391SOL     OW26613   5.677   6.062   3.731  0.6145 -0.3851 -0.4460
 8391SOL    HW126614   5.657   6.063   3.825  1.2664 -1.0384 -0.2911
 8391SOL    HW226615   5.709   5.973   3.714  0.9097 -0.1428 -1.2050
 8392SOL     OW26616   5.188   6.005   4.840 -0.4978 -0.3534  0.3250
 8392SOL    HW126617   5.275   6.032   4.870 -0.7523 -0.3322  1.0433
 8392SOL    HW226618   5.185   5.911   4.857 -0.4385 -0.4422 -0.1434
 8393SOL     OW26619   7.891   6.058   3.106  0.1960  0.1768  0.2390
 8393SOL    HW126620   7.967   6.005   3.128 -0.9939 -1.3872  0.8103
 8393SOL    HW226621   7.853   6.081   3.190 -0.8995 -0.5364 -0.0321
 8394SOL     OW26622   3.726   7.830  12.440 -0.4476  0.0945  0.2255
 8394SOL    HW126623   3.637   7.838  12.405 -0.7232  0.8447  1.0519
 8394SOL    HW226624   3.755   7.921  12.451  0.7517 -0.1409 -0.8095
 8395SOL     OW26625   3.555   6.629   1.769 -0.2904 -0.1654  0.7841
 8395SOL    HW126626   3.643   6.607   1.801 -0.1505 -0.2013  0.3821
 8395SOL    HW226627   3.543   6.574   1.692 -0.4766  0.1801  0.5639
 8396SOL     OW26628   2.861   7.942  11.323  0.2929  0.5004 -0.6128
 8396SOL    HW126629   2.780   7.916  11.279  0.6897 -2.2279  0.1173
 8396SOL    HW226630   2.831   7.999  11.394 -0.6878  1.7479 -1.9548
 8397SOL     OW26631   0.639   0.322   3.842 -0.1156  0.1107 -0.1530
 8397SOL    HW126632   0.710   0.291   3.785  0.6785  2.2255 -0.4188
 8397SOL    HW226633   0.671   0.305   3.930  1.6630  2.6604 -0.1908
 8398SOL     OW26634   6.986   0.275  10.932 -0.0937  0.2058 -0.0621
 8398SOL    HW126635   7.012   0.367  10.925  0.7151  0.0504  0.7908
 8398SOL    HW226636   6.912   0.267  10.871 -0.0265  1.3578 -0.3240
 8399SOL     OW26637   1.743   4.451   6.319 -0.2378 -0.4358 -0.2431
 8399SOL    HW126638   1.750   4.385   6.388  1.4857 -0.3078 -0.2360
 8399SOL    HW226639   1.790   4.413   6.245 -1.4110 -0.2467 -1.1077
 8400SOL     OW26640   1.498   3.607   7.708 -0.2042  0.0616  0.3882
 8400SOL    HW126641   1.467   3.648   7.789  0.0124 -1.3042  1.1881
 8400SOL    HW226642   1.588   3.580   7.727 -0.0875 -0.1156 -0.3768
 8401SOL     OW26643   5.441   3.797   0.387 -0.8391 -0.1595  0.0166
 8401SOL    HW126644   5.449   3.702   0.392  0.8589 -0.0057  0.8316
 8401SOL    HW226645   5.529   3.830   0.403 -1.0363  1.5248 -1.9709
 8402SOL     OW26646   2.838   7.806   4.389 -0.5308  0.2815  0.1010
 8402SOL    HW126647   2.755   7.853   4.377 -0.0220  1.1010 -0.2730
 8402SOL    HW226648   2.870   7.837   4.474 -0.6732 -0.1537  0.3182
 8403SOL     OW26649   0.097   0.601   4.474 -0.3919  0.2973 -0.1035
 8403SOL    HW126650   0.096   0.578   4.381 -2.9487  0.5775 -0.2240
 8403SOL    HW226651   0.069   0.692   4.477  0.8620  0.6815  0.9117
 8404SOL     OW26652   4.289   4.582   6.436 -0.4559 -0.2250  0.5105
 8404SOL    HW126653   4.365   4.533   6.403 -0.1274 -1.1869  2.5414
 8404SOL    HW226654   4.226   4.580   6.363  1.2334  0.1453 -1.0350
 8405SOL     OW26655   6.319   6.409   4.632 -0.0417 -0.0054  0.5652
 8405SOL    HW126656   6.382   6.347   4.596  0.1121  0.0250  0.7828
 8405SOL    HW226657   6.235   6.362   4.628  0.1315 -0.3681  1.0709
 8406SOL     OW26658   2.833   3.323   4.075  0.4806 -0.0902 -0.0288
 8406SOL    HW126659   2.922   3.349   4.049  0.9037 -0.1072  1.3213
 8406SOL    HW226660   2.835   3.227   4.072 -0.3459 -0.0814 -2.6463
 8407SOL     OW26661   2.845   3.243  10.757  0.1353  0.6330  0.1910
 8407SOL    HW126662   2.875   3.286  10.677 -2.0556  0.2124 -0.9332
 8407SOL    HW226663   2.913   3.179  10.777  0.7127  0.7457 -1.3322
 8408SOL     OW26664   2.364   3.011   5.049 -0.3599 -0.2433 -0.3470
 8408SOL    HW126665   2.401   3.097   5.028 -0.5175 -0.1066 -0.0680
 8408SOL    HW226666   2.439   2.958   5.073 -0.0971 -0.5624 -1.7486
 8409SOL     OW26667   1.438   7.518   1.562 -0.6228  0.5278  0.8843
 8409SOL    HW126668   1.353   7.516   1.519  0.1428  0.7036 -0.7448
 8409SOL    HW226669   1.444   7.606   1.601 -0.8016  0.8760  0.1461
 8410SOL     OW26670   5.299   4.605  10.821 -0.7355 -0.1470  0.1996
 8410SOL    HW126671   5.215   4.562  10.809 -0.5874  0.0367 -1.6859
 8410SOL    HW226672   5.278   4.685  10.869 -2.0079  1.0682 -2.2562
 8411SOL     OW26673   5.296   1.877   6.374  0.1403 -0.0471  0.3569
 8411SOL    HW126674   5.388   1.851   6.385  2.3456  3.9787 -4.7794
 8411SOL    HW226675   5.259   1.811   6.315  1.6725  1.2000 -2.1412
 8412SOL     OW26676   7.946   1.929   4.391  0.2541 -0.0187 -0.1428
 8412SOL    HW126677   7.895   1.975   4.458  0.4250 -1.5660  1.1091
 8412SOL    HW226678   7.886   1.918   4.318 -0.6933 -0.3535  0.6672
 8413SOL     OW26679   3.428   2.817   5.578  0.5770  0.6449 -0.3264
 8413SOL    HW126680   3.430   2.874   5.655 -1.1429  2.4429 -1.5166
 8413SOL    HW226681   3.377   2.741   5.605 -1.7674  2.1758 -0.1981
 8414SOL     OW26682   2.471   6.066   6.225 -0.1667  0.0025 -0.1990
 8414SOL    HW126683   2.421   6.003   6.276 -1.7360  1.5593  0.2617
 8414SOL    HW226684   2.561   6.055   6.256 -0.9952  0.6314  2.7137
 8415SOL     OW26685   1.566   7.715   0.433  0.2513 -0.1404 -0.0218
 8415SOL    HW126686   1.532   7.669   0.510  1.9863  1.8396  2.0596
 8415SOL    HW226687   1.611   7.647   0.382  0.6673 -1.2012  1.6875
 8416SOL     OW26688   0.717   4.411   0.803  0.5464 -0.3353 -0.0817
 8416SOL    HW126689   0.807   4.393   0.774 -0.2251 -0.9481 -2.3042
 8416SOL    HW226690   0.726   4.480   0.868  2.6847 -0.8741  0.2739
 8417SOL     OW26691   5.199   4.856   9.842  0.1943 -1.0586  0.6712
 8417SOL    HW126692   5.264   4.865   9.772  0.8500 -1.5331  1.2080
 8417SOL    HW226693   5.227   4.779   9.891  0.3375 -0.1412  2.0688
 8418SOL     OW26694   3.702   4.433   0.974 -0.5698 -0.2522 -0.4997
 8418SOL    HW126695   3.672   4.465   1.059  0.6293 -2.1306  0.7099
 8418SOL    HW226696   3.743   4.510   0.933  0.3232  0.3363  1.3607
 8419SOL     OW26697   1.102   0.132   3.791  0.2323  0.4717 -0.1359
 8419SOL    HW126698   1.157   0.205   3.820  0.3145 -0.3960  2.1188
 8419SOL    HW226699   1.154   0.054   3.812 -1.8991 -0.4010  2.4033
 8420SOL     OW26700   7.020   1.343   1.555 -0.2880  0.4531  0.0936
 8420SOL    HW126701   7.048   1.427   1.590  0.7082  0.7282 -1.2718
 8420SOL    HW226702   6.932   1.360   1.519  0.3363  1.2225 -1.1396
 8421SOL     OW26703   2.046   0.407   3.391 -0.2092 -0.3545  0.5487
 8421SOL    HW126704   2.099   0.351   3.334  0.5612  0.3521  0.5431
 8421SOL    HW226705   2.101   0.421   3.468  0.3566  1.7526 -0.1639
 8422SOL     OW26706   2.932   1.528   7.732  0.7653  0.5223 -0.2866
 8422SOL    HW126707   2.921   1.435   7.751  1.1955  0.5308  0.0236
 8422SOL    HW226708   3.019   1.550   7.767  1.4446  0.6279 -1.9197
 8423SOL     OW26709   6.935   7.840   5.526  0.6247 -0.1276  0.8339
 8423SOL    HW126710   6.926   7.935   5.527 -1.6152 -0.2950  1.0892
 8423SOL    HW226711   6.984   7.821   5.447 -1.4239  1.1063 -0.8374
 8424SOL     OW26712   2.701   2.681   5.479 -0.2753 -0.6240 -0.4656
 8424SOL    HW126713   2.683   2.590   5.503 -1.1880 -0.6092 -1.0398
 8424SOL    HW226714   2.742   2.718   5.557 -1.5450 -1.0560  0.4514
 8425SOL     OW26715   2.451   1.489   5.553  0.9735  0.2980 -0.1198
 8425SOL    HW126716   2.499   1.520   5.630  0.6725  0.1852  0.1176
 8425SOL    HW226717   2.479   1.547   5.482 -0.9496  2.3689  0.6800
 8426SOL     OW26718   2.048   5.207   7.520  0.1993  0.7056 -0.0136
 8426SOL    HW126719   2.116   5.156   7.477  0.6840 -2.0398  3.5412
 8426SOL    HW226720   1.966   5.167   7.491  0.0358  2.5718 -2.5324
 8427SOL     OW26721   2.377   6.698   7.931 -0.2051  0.2193  0.0839
 8427SOL    HW126722   2.384   6.606   7.956  0.2215 -0.0835 -1.0876
 8427SOL    HW226723   2.457   6.716   7.883 -0.9183  0.7906 -0.9329
 8428SOL     OW26724   7.966   6.386   6.721  0.3553 -0.2366 -0.1517
 8428SOL    HW126725   7.940   6.320   6.785  0.5848  0.5715  0.7979
 8428SOL    HW226726   8.059   6.371   6.707  0.1534 -0.8801 -0.8702
 8429SOL     OW26727   1.965   2.801   7.505  0.0977 -0.2517  0.2027
 8429SOL    HW126728   1.925   2.868   7.450 -1.6009 -0.3662  1.2423
 8429SOL    HW226729   1.966   2.723   7.450 -0.6409 -0.1193 -0.0084
 8430SOL     OW26730   6.927   4.623  11.161 -0.2264 -0.2185  0.1419
 8430SOL    HW126731   6.887   4.618  11.248 -0.4125 -0.0322  0.0684
 8430SOL    HW226732   6.875   4.689  11.115  0.7011  0.6799  0.3319
 8431SOL     OW26733   3.010   7.755   7.227 -0.1464  0.2408 -0.1267
 8431SOL    HW126734   2.942   7.798   7.279 -0.3777 -0.3688  0.0785
 8431SOL    HW226735   3.090   7.803   7.248 -0.4575  0.7923 -0.1652
 8432SOL     OW26736   7.040   5.866  10.562 -0.5644  0.0100 -0.0479
 8432SOL    HW126737   7.116   5.873  10.504  1.4888 -0.6004  2.3904
 8432SOL    HW226738   7.054   5.935  10.627 -1.3710 -0.9871  1.2224
 8433SOL     OW26739   4.486   4.524   8.564 -0.0076 -0.4016  0.5461
 8433SOL    HW126740   4.451   4.568   8.642  0.6634  1.2439 -0.0354
 8433SOL    HW226741   4.509   4.596   8.505  0.9848 -1.5711 -0.5283
 8434SOL     OW26742   1.635   1.358   1.820  0.1243  0.1714 -0.0824
 8434SOL    HW126743   1.725   1.389   1.832  0.8166 -1.7823  0.1736
 8434SOL    HW226744   1.643   1.286   1.757 -1.3700  0.3832 -0.5595
 8435SOL     OW26745   3.505   4.413  10.073  0.0640  0.4719 -0.7266
 8435SOL    HW126746   3.576   4.462  10.114  0.8346  0.5422 -2.0961
 8435SOL    HW226747   3.437   4.479  10.055 -0.6623  0.3003  1.1532
 8436SOL     OW26748   6.159   0.851   8.610  0.7251 -0.1837 -0.1196
 8436SOL    HW126749   6.073   0.845   8.568  0.0531  0.2552  1.1418
 8436SOL    HW226750   6.152   0.795   8.687  1.9537 -1.0173 -0.5721
 8437SOL     OW26751   5.637   3.242   9.863 -0.2353 -0.1579 -0.5523
 8437SOL    HW126752   5.678   3.207   9.783  1.8989 -0.8398  0.7661
 8437SOL    HW226753   5.640   3.337   9.852 -0.1583 -0.2482 -1.3672
 8438SOL     OW26754   2.305   2.241   8.917  0.0081 -0.9211  0.0312
 8438SOL    HW126755   2.284   2.152   8.891  0.3148 -0.6395 -1.2790
 8438SOL    HW226756   2.394   2.255   8.883  1.0793 -0.9973  2.5537
 8439SOL     OW26757   0.435   6.488   8.976  0.4661 -0.4001  0.2800
 8439SOL    HW126758   0.447   6.492   8.881 -2.8753  1.9861 -0.1830
 8439SOL    HW226759   0.472   6.570   9.009  0.5161 -0.6631  0.9078
 8440SOL     OW26760   5.920   0.497   8.423 -0.1904 -0.2397  0.3875
 8440SOL    HW126761   5.960   0.423   8.469  1.3439  0.8051  0.8027
 8440SOL    HW226762   5.837   0.510   8.467  0.3702 -0.5286  1.5618
 8441SOL     OW26763   3.747   6.017   1.067  0.0538 -0.0529  0.3001
 8441SOL    HW126764   3.698   5.940   1.098  0.5332 -1.3659 -1.9291
 8441SOL    HW226765   3.682   6.070   1.021 -0.1155  0.5160  1.1645
 8442SOL     OW26766   7.254   7.746   3.479 -0.7796  0.6335 -0.2907
 8442SOL    HW126767   7.172   7.786   3.506 -0.6138  1.5104 -1.0369
 8442SOL    HW226768   7.231   7.656   3.459 -1.1566  0.3097  1.4249
 8443SOL     OW26769   6.749   0.106   3.829 -0.3204 -0.4416  0.1218
 8443SOL    HW126770   6.750   0.016   3.862  0.0373 -0.4054  0.2112
 8443SOL    HW226771   6.780   0.158   3.903  1.5276 -0.4663 -0.6071
 8444SOL     OW26772   5.306   1.910   5.840 -0.3565 -0.0623  0.6208
 8444SOL    HW126773   5.252   1.950   5.908 -0.5593  2.3881 -0.8677
 8444SOL    HW226774   5.287   1.961   5.761  1.6786 -1.2540 -0.7242
 8445SOL     OW26775   2.319   5.247  12.290  0.1127  0.0128  0.6939
 8445SOL    HW126776   2.227   5.250  12.318  0.2247 -4.7098  2.4610
 8445SOL    HW226777   2.350   5.337  12.299 -4.0105  1.5952  1.0237
 8446SOL     OW26778   0.794   2.702   9.595 -0.3091  0.3909  0.5362
 8446SOL    HW126779   0.837   2.742   9.670  2.7013 -1.8596  0.2281
 8446SOL    HW226780   0.790   2.771   9.529  4.0042  0.6200  0.2530
 8447SOL     OW26781   5.111   0.689   4.465  0.7490 -0.5680  0.6749
 8447SOL    HW126782   5.096   0.737   4.546 -2.3201  0.3625 -0.2911
 8447SOL    HW226783   5.069   0.742   4.398  0.7091 -2.6748 -1.0757
 8448SOL     OW26784   4.675   2.828  10.565 -0.9460 -0.3458 -0.1790
 8448SOL    HW126785   4.716   2.758  10.616 -0.9451  0.6723  1.2701
 8448SOL    HW226786   4.689   2.802  10.474  2.0183 -0.5986  0.2320
 8449SOL     OW26787   6.172   6.568  12.021 -0.3587  0.4135 -0.2512
 8449SOL    HW126788   6.177   6.663  12.032 -1.9300  0.4403  0.5265
 8449SOL    HW226789   6.123   6.538  12.098  0.8791 -1.1523 -0.0182
 8450SOL     OW26790   7.450   3.966   6.505 -0.9011  0.3457 -0.3815
 8450SOL    HW126791   7.482   3.940   6.418  0.6013 -0.5343  0.3845
 8450SOL    HW226792   7.364   3.924   6.512  0.4674 -2.7432 -0.1071
 8451SOL     OW26793   0.985   0.563  11.045 -0.0367  0.2263 -0.0952
 8451SOL    HW126794   0.970   0.656  11.064  2.4111  0.9388 -1.2606
 8451SOL    HW226795   1.073   0.546  11.078  0.6167 -0.9574 -2.2720
 8452SOL     OW26796   4.153   5.212   9.169  0.3622  0.6002  0.2274
 8452SOL    HW126797   4.127   5.299   9.137  0.1259  0.6719  0.6152
 8452SOL    HW226798   4.193   5.229   9.254  2.3192  0.5777 -0.6290
 8453SOL     OW26799   5.243   3.696   7.064 -0.1858 -0.0502  0.2270
 8453SOL    HW126800   5.149   3.691   7.047  0.0822  0.4929 -1.7353
 8453SOL    HW226801   5.263   3.615   7.110 -1.8588  0.5818  2.2322
 8454SOL     OW26802   5.231   7.670   9.060 -0.0133  0.3858  0.1080
 8454SOL    HW126803   5.297   7.601   9.054  0.0723  0.0135  3.4426
 8454SOL    HW226804   5.279   7.751   9.045  1.0646  0.0406  1.4896
 8455SOL     OW26805   4.099   1.341   3.528 -0.0216 -0.2917 -0.2221
 8455SOL    HW126806   4.179   1.382   3.496  0.3384 -0.9330 -0.1455
 8455SOL    HW226807   4.029   1.381   3.475  0.2781  0.6559  0.0648
 8456SOL     OW26808   5.937   3.054   3.581  0.0200  0.0314 -0.3861
 8456SOL    HW126809   5.916   3.125   3.642  1.0140  0.3208 -0.3616
 8456SOL    HW226810   6.032   3.043   3.589  0.0688 -0.3849 -1.3891
 8457SOL     OW26811   3.739   3.634   1.401 -0.0333 -0.3243 -0.1273
 8457SOL    HW126812   3.710   3.694   1.470  0.7035  1.3920 -1.2340
 8457SOL    HW226813   3.827   3.665   1.377 -0.3862 -0.6621 -2.0419
 8458SOL     OW26814   7.613   6.425   1.777  0.0405 -0.7189  0.1738
 8458SOL    HW126815   7.654   6.493   1.723  1.6169 -1.4267  0.4332
 8458SOL    HW226816   7.571   6.474   1.848  0.5542  0.0371 -0.0259
 8459SOL     OW26817   7.882   2.380   3.668 -0.5441  0.0673  0.0894
 8459SOL    HW126818   7.950   2.428   3.620 -0.1425 -1.1971 -0.6712
 8459SOL    HW226819   7.852   2.441   3.735  0.0988  1.2862 -0.6873
 8460SOL     OW26820   7.225   2.919   9.526 -0.0553  0.2612 -0.2636
 8460SOL    HW126821   7.300   2.867   9.552 -0.5627  0.3045  1.3741
 8460SOL    HW226822   7.200   2.884   9.440  1.1486 -0.4751 -0.3314
 8461SOL     OW26823   0.161   7.387   5.615  0.1557 -0.5048  0.2571
 8461SOL    HW126824   0.116   7.412   5.696 -1.8796 -0.2766 -0.8529
 8461SOL    HW226825   0.224   7.321   5.642 -0.0616 -0.0202  2.1071
 8462SOL     OW26826   3.837   5.413   5.006 -0.5902 -0.5435 -0.1225
 8462SOL    HW126827   3.906   5.431   4.941 -2.2989 -0.1577 -1.9330
 8462SOL    HW226828   3.787   5.341   4.967 -2.7570  0.9150 -0.1446
 8463SOL     OW26829   7.410   6.350  12.401 -0.2924 -0.0810 -0.4522
 8463SOL    HW126830   7.395   6.265  12.359  0.0298 -0.8996  0.9981
 8463SOL    HW226831   7.323   6.378  12.430 -0.3727 -0.0162 -0.7574
 8464SOL     OW26832   1.318   3.888  11.941  0.3492 -0.1044 -0.3127
 8464SOL    HW126833   1.257   3.960  11.958 -0.8829 -1.0719 -0.4516
 8464SOL    HW226834   1.404   3.922  11.966 -0.0473  1.7192 -1.2389
 8465SOL     OW26835   2.724   5.316   7.219 -0.1447  0.1917  0.0658
 8465SOL    HW126836   2.729   5.220   7.212  0.2792  0.3051 -1.4297
 8465SOL    HW226837   2.784   5.338   7.290  0.6829 -0.5620 -0.3808
 8466SOL     OW26838   5.422   4.234   2.561  1.0744 -0.2214 -0.6492
 8466SOL    HW126839   5.419   4.328   2.581 -0.0894 -0.4410  0.3246
 8466SOL    HW226840   5.348   4.197   2.609  0.2921 -1.3392 -2.5998
 8467SOL     OW26841   1.489   4.176   0.714  0.0723 -0.6459  0.4173
 8467SOL    HW126842   1.463   4.165   0.622 -0.5419 -1.5475  0.6861
 8467SOL    HW226843   1.466   4.267   0.734  0.0595 -0.4885 -0.2687
 8468SOL     OW26844   4.398   1.958   9.422  0.1173  0.3706 -0.6468
 8468SOL    HW126845   4.461   2.022   9.456 -1.1251  1.6142 -0.5568
 8468SOL    HW226846   4.314   2.005   9.424 -0.7073 -1.0217 -1.3315
 8469SOL     OW26847   1.921   6.541   8.698  0.0194 -0.5503  0.0887
 8469SOL    HW126848   1.857   6.499   8.756  0.5439  1.1345  2.0319
 8469SOL    HW226849   1.868   6.580   8.629 -0.8894 -0.6642  0.6899
 8470SOL     OW26850   1.635   5.320   6.226 -0.0501 -0.0479  0.2073
 8470SOL    HW126851   1.724   5.348   6.208 -0.1702 -0.2431 -0.7285
 8470SOL    HW226852   1.599   5.296   6.141 -0.9269 -0.1786  0.5982
 8471SOL     OW26853   1.307   4.384   8.428  0.1104  0.0010  0.0361
 8471SOL    HW126854   1.385   4.338   8.398 -0.3957 -0.5127 -0.5036
 8471SOL    HW226855   1.280   4.337   8.506 -1.0311 -1.3356 -1.1107
 8472SOL     OW26856   6.837   5.809   6.755  0.2551 -0.1144 -0.1176
 8472SOL    HW126857   6.844   5.798   6.850  0.4113 -0.1990 -0.1380
 8472SOL    HW226858   6.899   5.878   6.734  0.2861 -0.1577 -0.1693
 8473SOL     OW26859   5.714   4.256   9.094  0.1186 -0.6323 -0.1242
 8473SOL    HW126860   5.739   4.266   9.002 -2.4419  0.7289 -0.7590
 8473SOL    HW226861   5.735   4.165   9.115 -0.4162 -1.3520 -2.4715
 8474SOL     OW26862   4.541   4.431   0.381 -0.5081 -0.3954 -0.0416
 8474SOL    HW126863   4.549   4.477   0.465 -0.5320  2.1737 -1.3524
 8474SOL    HW226864   4.495   4.350   0.403 -1.4875  0.6833  2.2825
 8475SOL     OW26865   6.987   4.208   8.327  0.3946 -0.2878 -0.1723
 8475SOL    HW126866   6.900   4.230   8.362  1.1975  3.7315 -0.1593
 8475SOL    HW226867   7.047   4.229   8.399  1.5196 -0.8426 -0.9290
 8476SOL     OW26868   3.780   5.735   9.666 -0.5625 -0.2283  0.0052
 8476SOL    HW126869   3.787   5.723   9.571 -2.0875 -2.3682  0.0893
 8476SOL    HW226870   3.851   5.796   9.688 -0.6423  0.9388 -2.5830
 8477SOL     OW26871   3.133   5.886   4.002 -0.4964  0.0700 -0.1426
 8477SOL    HW126872   3.216   5.904   3.958 -0.0061 -1.4574  0.1167
 8477SOL    HW226873   3.067   5.929   3.947  0.4172  0.9633 -0.5619
 8478SOL     OW26874   6.321   3.294   3.948  0.1180  0.0502  0.2581
 8478SOL    HW126875   6.256   3.360   3.973 -1.0059 -1.0694  0.4445
 8478SOL    HW226876   6.345   3.316   3.858 -0.6150  0.4295  0.1488
 8479SOL     OW26877   2.533   6.663  11.613 -0.4257  0.1804 -0.1125
 8479SOL    HW126878   2.507   6.664  11.521  1.8311  1.1868 -0.7987
 8479SOL    HW226879   2.534   6.570  11.636  2.7141 -0.4996 -2.3363
 8480SOL     OW26880   3.979   1.414   9.533 -0.5640 -0.1106  0.0488
 8480SOL    HW126881   3.992   1.396   9.440  0.3066  0.5843  0.0274
 8480SOL    HW226882   3.924   1.342   9.563 -0.0457 -0.8827 -0.7859
 8481SOL     OW26883   5.557   0.174   0.869 -0.0428  0.3448  0.0498
 8481SOL    HW126884   5.646   0.205   0.884 -0.3639  0.5748  1.6492
 8481SOL    HW226885   5.502   0.237   0.916 -0.9262 -0.7246  0.4788
 8482SOL     OW26886   2.407   2.171   7.046  0.4961  0.9100 -0.5488
 8482SOL    HW126887   2.321   2.213   7.049  0.4462  0.7379  0.9060
 8482SOL    HW226888   2.388   2.078   7.062  0.8040  0.5817 -1.8962
 8483SOL     OW26889   0.803   6.136   4.242  0.1466 -0.3986 -0.0114
 8483SOL    HW126890   0.828   6.045   4.227 -0.5922 -0.7700  0.9512
 8483SOL    HW226891   0.739   6.133   4.312  1.6508  1.0376  1.5302
 8484SOL     OW26892   2.398   5.190   3.611  0.3226  0.4395  0.2721
 8484SOL    HW126893   2.438   5.150   3.688  1.1733 -1.4881 -1.0889
 8484SOL    HW226894   2.305   5.171   3.619  0.5789 -0.9415  0.2084
 8485SOL     OW26895   3.338   2.868  11.735  0.6708  0.0822  0.1508
 8485SOL    HW126896   3.357   2.790  11.684  1.3715 -0.0281  0.5669
 8485SOL    HW226897   3.254   2.899  11.702 -0.3332 -1.6496  0.9432
 8486SOL     OW26898   5.392   4.012   7.674  0.5498  0.0238  0.0048
 8486SOL    HW126899   5.318   3.979   7.724  0.4124  0.9119  0.4026
 8486SOL    HW226900   5.450   3.936   7.663 -1.5221 -1.3544 -2.4174
 8487SOL     OW26901   1.434   6.307  10.508 -0.1121  0.1874  0.2048
 8487SOL    HW126902   1.442   6.402  10.515 -0.8701  0.1721  1.4381
 8487SOL    HW226903   1.449   6.289  10.415  0.8412  1.4193  0.0942
 8488SOL     OW26904   3.131   3.702  12.036  0.2252  0.4493 -0.3601
 8488SOL    HW126905   3.188   3.757  11.983  1.8730 -1.3307 -0.5796
 8488SOL    HW226906   3.182   3.683  12.114 -0.5288 -0.2614 -0.0236
 8489SOL     OW26907   6.282   5.472   7.862  0.3432 -0.0981  0.0442
 8489SOL    HW126908   6.277   5.543   7.798  2.2287 -0.2755 -0.3498
 8489SOL    HW226909   6.204   5.484   7.916 -0.9158  0.5214 -1.7857
 8490SOL     OW26910   4.812   1.150   4.351  0.1564 -0.3888  0.6891
 8490SOL    HW126911   4.783   1.064   4.322  0.6306 -0.3900  0.2095
 8490SOL    HW226912   4.903   1.138   4.378  0.7856  0.2950 -1.0008
 8491SOL     OW26913   1.068   2.222   5.868  0.3390 -0.0173 -0.1818
 8491SOL    HW126914   1.065   2.210   5.773  0.6221 -0.0860 -0.1806
 8491SOL    HW226915   1.147   2.273   5.884  1.1005 -1.2644  0.1514
 8492SOL     OW26916   6.580   6.455   3.758  0.7099 -0.1890 -0.2337
 8492SOL    HW126917   6.628   6.374   3.773  1.3822  0.4501  1.2817
 8492SOL    HW226918   6.631   6.522   3.803 -1.4105  0.5862  1.1512
 8493SOL     OW26919   4.740   4.106   5.659  0.1208 -0.1688  0.4895
 8493SOL    HW126920   4.793   4.170   5.706 -1.7047 -0.8018  3.7164
 8493SOL    HW226921   4.694   4.158   5.592  1.2220  1.2255  0.7761
 8494SOL     OW26922   7.508   4.134   9.902  0.0764  0.3719  0.7429
 8494SOL    HW126923   7.432   4.190   9.922 -0.2944  0.1388  0.0149
 8494SOL    HW226924   7.504   4.122   9.807  1.9781  1.7152  0.4414
 8495SOL     OW26925   2.810   7.416  10.593 -0.6336  0.2049  0.4123
 8495SOL    HW126926   2.887   7.394  10.647  0.1882 -1.2300 -1.2419
 8495SOL    HW226927   2.815   7.510  10.581 -0.7281  0.5463  2.6263
 8496SOL     OW26928   5.612   0.018   1.508 -0.4392 -0.0962 -0.0806
 8496SOL    HW126929   5.656  -0.062   1.479 -0.4946  0.5496 -2.0233
 8496SOL    HW226930   5.671   0.056   1.573  0.0721 -1.1718  0.1072
 8497SOL     OW26931   2.785   0.669   9.503  0.0411 -0.0753  0.2262
 8497SOL    HW126932   2.856   0.667   9.568  0.2869  0.1574 -0.0358
 8497SOL    HW226933   2.737   0.749   9.524 -0.1904 -0.2722  0.4520
 8498SOL     OW26934   0.168   4.963   0.962 -0.0038  0.1603 -0.4833
 8498SOL    HW126935   0.254   4.973   1.002  0.6401 -4.8503  0.0439
 8498SOL    HW226936   0.109   4.941   1.035 -0.6517 -0.9207 -1.2944
 8499SOL     OW26937   7.257   0.211   3.700 -0.2540  0.1684  0.3622
 8499SOL    HW126938   7.286   0.237   3.787 -1.2798 -0.4466  0.9063
 8499SOL    HW226939   7.274   0.117   3.696  0.7045  0.3518 -0.4913
 8500SOL     OW26940   5.605   2.626   4.074  0.6012  0.1473 -0.1630
 8500SOL    HW126941   5.614   2.677   3.993 -0.1555  1.3403  0.4747
 8500SOL    HW226942   5.523   2.656   4.112  0.1121 -1.5855  0.2513
 8501SOL     OW26943   7.645   2.673   0.967  0.3642 -0.1790 -0.2083
 8501SOL    HW126944   7.677   2.584   0.953  0.0943 -0.1968 -0.7693
 8501SOL    HW226945   7.723   2.728   0.957  0.0622 -0.1025 -2.9261
 8502SOL     OW26946   2.883   6.854   5.249 -0.1870 -0.2829  0.7569
 8502SOL    HW126947   2.943   6.795   5.204 -0.7568 -1.4820  1.5117
 8502SOL    HW226948   2.912   6.853   5.340  1.0738  2.2537  0.4885
 8503SOL     OW26949   5.626   5.259   9.607  0.4211  0.3364  0.4250
 8503SOL    HW126950   5.711   5.230   9.642  0.7277  0.2356 -0.3640
 8503SOL    HW226951   5.566   5.254   9.681  1.4907  2.2044  1.5066
 8504SOL     OW26952   2.994   2.944   1.880 -0.0886 -0.3943 -0.3116
 8504SOL    HW126953   3.003   2.892   1.960 -0.9916  1.5226  1.1106
 8504SOL    HW226954   2.985   3.034   1.910  1.0350  0.5974 -2.6698
 8505SOL     OW26955   5.440   3.471   0.251 -0.1543 -0.0588  0.1634
 8505SOL    HW126956   5.358   3.516   0.273 -0.2042  0.3057 -0.7198
 8505SOL    HW226957   5.414   3.379   0.240 -0.5603  0.1399 -0.6445
 8506SOL     OW26958   5.557   0.408  10.409  0.5302  0.3162  1.2563
 8506SOL    HW126959   5.544   0.466  10.334 -1.0257 -0.2472  1.0507
 8506SOL    HW226960   5.480   0.422  10.464  0.4536 -1.0458  1.5348
 8507SOL     OW26961   1.844   2.312   2.245  0.5721 -0.1892  0.6424
 8507SOL    HW126962   1.752   2.289   2.238  0.5169  0.0870  0.4368
 8507SOL    HW226963   1.846   2.387   2.305  0.7680 -0.8337  1.4546
 8508SOL     OW26964   5.000   7.071   3.503 -0.4056  0.0006 -0.2642
 8508SOL    HW126965   4.973   7.156   3.470  0.7509  0.3049 -0.4528
 8508SOL    HW226966   4.918   7.030   3.534 -1.0966  0.7923 -1.0054
 8509SOL     OW26967   3.924   4.250   0.943  0.5850 -0.2347 -0.0482
 8509SOL    HW126968   3.991   4.310   0.975  0.9630 -0.0466 -1.1568
 8509SOL    HW226969   3.842   4.297   0.957  0.5686 -0.8467  2.1760
 8510SOL     OW26970   1.634   6.210   7.429  0.3671 -0.5898 -0.1769
 8510SOL    HW126971   1.652   6.146   7.499  1.8493 -0.0309 -0.0143
 8510SOL    HW226972   1.708   6.201   7.369  0.5691  0.9279 -0.1811
 8511SOL     OW26973   5.646   0.142   3.276 -0.2616  0.1318 -0.8106
 8511SOL    HW126974   5.681   0.059   3.310 -1.6741 -0.7279 -1.3525
 8511SOL    HW226975   5.636   0.197   3.354 -1.2975 -0.9868 -0.1044
 8512SOL     OW26976   6.488   1.044   7.903  0.8423 -0.4112 -0.1902
 8512SOL    HW126977   6.552   1.031   7.832  1.0122 -0.8112  0.0320
 8512SOL    HW226978   6.408   1.002   7.871  1.1765 -1.3915  0.2183
 8513SOL     OW26979   6.656   4.675  11.389  0.2448  0.2543  0.1814
 8513SOL    HW126980   6.576   4.663  11.440 -0.4448  0.4675 -0.8236
 8513SOL    HW226981   6.685   4.586  11.368  0.0054  0.1845  0.1430
 8514SOL     OW26982   6.103   5.593   2.337  0.0475  0.4240  0.3153
 8514SOL    HW126983   6.184   5.543   2.324  1.5709  3.2327 -2.1825
 8514SOL    HW226984   6.124   5.655   2.406  0.8685  2.4529 -1.6209
 8515SOL     OW26985   5.673   3.785   4.309 -0.2793  0.4900 -0.0686
 8515SOL    HW126986   5.607   3.739   4.257 -1.4605 -0.4734  2.1407
 8515SOL    HW226987   5.638   3.873   4.318 -1.4916 -0.1016  1.3596
 8516SOL     OW26988   7.870   3.033  10.544 -0.0672 -0.3027 -0.1857
 8516SOL    HW126989   7.949   3.087  10.536 -0.1512 -0.2799 -0.9454
 8516SOL    HW226990   7.902   2.949  10.578 -0.1451  0.7007  2.5903
 8517SOL     OW26991   6.530   0.385  10.050 -0.5093 -0.0066  0.0497
 8517SOL    HW126992   6.511   0.340  10.132 -1.0664  1.2261  0.5986
 8517SOL    HW226993   6.471   0.344   9.986 -2.1867  1.0407  0.8891
 8518SOL     OW26994   3.099   6.342  11.914 -0.3500 -0.0127 -0.1259
 8518SOL    HW126995   3.158   6.417  11.916  0.8779 -0.8175 -2.3150
 8518SOL    HW226996   3.019   6.377  11.874 -0.5615  0.5789  0.7858
 8519SOL     OW26997   3.545   5.713   3.562  0.0188 -0.0691  0.4777
 8519SOL    HW126998   3.503   5.682   3.643 -2.2944  0.4825 -0.4120
 8519SOL    HW226999   3.522   5.806   3.558  0.9763  0.1517 -0.3170
 8520SOL     OW27000   1.820   4.813  11.118 -0.0490  0.0425  0.1543
 8520SOL    HW127001   1.741   4.832  11.169 -1.4286  1.3853 -2.2911
 8520SOL    HW227002   1.805   4.726  11.082 -0.5778  0.3941 -0.5073
 8521SOL     OW27003   1.550   7.839   8.943  0.6481  0.5708  0.0557
 8521SOL    HW127004   1.578   7.753   8.974  0.2299  0.2091 -0.5389
 8521SOL    HW227005   1.476   7.862   8.999  1.7239  1.2706  1.2514
 8522SOL     OW27006   1.569   7.830  12.056  0.0131 -0.0347  0.1539
 8522SOL    HW127007   1.587   7.891  11.984  0.5449  1.9757  1.8704
 8522SOL    HW227008   1.614   7.869  12.131 -2.0913 -0.9810  2.0115
 8523SOL     OW27009   1.719   0.079   1.824  0.0911 -0.4524 -0.0609
 8523SOL    HW127010   1.707   0.066   1.918  1.2831 -0.8886  0.0508
 8523SOL    HW227011   1.678   0.164   1.807  1.3658  0.4796  1.2099
 8524SOL     OW27012   1.000   7.193   9.638  0.3627  0.8201  0.1787
 8524SOL    HW127013   1.022   7.240   9.718  0.7348  1.6181 -0.3847
 8524SOL    HW227014   0.912   7.224   9.615 -0.5371 -0.7829  1.2621
 8525SOL     OW27015   3.340   0.722  10.709 -0.4831  0.6046  0.1776
 8525SOL    HW127016   3.433   0.700  10.703  0.1415  2.4401  2.0628
 8525SOL    HW227017   3.304   0.658  10.771 -0.6712 -0.5108 -1.0360
 8526SOL     OW27018   6.660   0.305   0.524 -0.8371  0.4876  0.1847
 8526SOL    HW127019   6.750   0.282   0.502 -0.9365  0.9710 -0.7521
 8526SOL    HW227020   6.607   0.251   0.464 -1.1445  0.8520  0.1289
 8527SOL     OW27021   2.052   6.068   3.802 -0.2333 -0.0629 -0.0986
 8527SOL    HW127022   2.014   6.102   3.883 -0.6919  0.1445 -0.4055
 8527SOL    HW227023   2.008   6.115   3.732  0.3063 -0.1029 -0.4682
 8528SOL     OW27024   5.482   2.069   4.960  0.4255  0.2452  0.0296
 8528SOL    HW127025   5.487   2.123   5.039 -1.4125  1.5545 -0.6750
 8528SOL    HW227026   5.559   2.013   4.965  0.0793 -0.1481  3.0345
 8529SOL     OW27027   4.953   0.823   8.123  0.3869 -0.3564  0.2980
 8529SOL    HW127028   4.885   0.869   8.173 -0.1102 -1.1301  0.3502
 8529SOL    HW227029   4.954   0.867   8.038  0.1330 -0.0551  0.4471
 8530SOL     OW27030   5.264   2.859   8.941  0.2043 -0.5958 -0.1565
 8530SOL    HW127031   5.219   2.775   8.937  0.4891 -0.8945  1.9724
 8530SOL    HW227032   5.199   2.922   8.909 -1.1912 -1.2253  1.3012
 8531SOL     OW27033   2.154   6.623  11.310 -0.5751 -0.1707 -0.8158
 8531SOL    HW127034   2.118   6.536  11.298 -0.7264 -0.0819 -1.0010
 8531SOL    HW227035   2.144   6.666  11.225 -2.8956  0.9161 -0.0979
 8532SOL     OW27036   5.161   3.201   9.588 -0.5821  0.0114 -0.0687
 8532SOL    HW127037   5.240   3.170   9.543 -0.2485  2.3266 -1.2304
 8532SOL    HW227038   5.143   3.133   9.654  1.1440 -1.6024 -1.1511
 8533SOL     OW27039   7.167   0.156   0.630  0.5514  0.4988 -0.1115
 8533SOL    HW127040   7.156   0.087   0.564  1.4698  0.4241 -0.2045
 8533SOL    HW227041   7.118   0.231   0.595 -0.1716  0.0111 -0.1747
 8534SOL     OW27042   3.683   3.794   4.721  0.0629  0.4614  0.7221
 8534SOL    HW127043   3.591   3.782   4.697  0.6281 -0.5195 -1.1312
 8534SOL    HW227044   3.683   3.873   4.775 -1.6659  1.4604 -0.6290
 8535SOL     OW27045   3.155   6.022   4.811  0.1053 -0.4547 -0.6668
 8535SOL    HW127046   3.082   5.964   4.788  0.5274 -1.5719  0.6532
 8535SOL    HW227047   3.205   6.032   4.730 -0.6298 -0.9782 -1.1974
 8536SOL     OW27048   4.998   7.914   9.687  0.1008  0.0082  0.2294
 8536SOL    HW127049   5.019   8.006   9.671  1.1842 -0.6089 -2.3757
 8536SOL    HW227050   5.066   7.883   9.746  2.4409 -0.1321 -2.3680
 8537SOL     OW27051   1.955   4.459   1.771  0.0752 -0.0310 -0.1983
 8537SOL    HW127052   1.873   4.506   1.765  0.4300  0.5387 -0.6271
 8537SOL    HW227053   2.021   4.521   1.741  0.4686 -1.0107 -1.4536
 8538SOL     OW27054   2.805   1.379   5.373  0.0218 -0.3352 -0.2025
 8538SOL    HW127055   2.818   1.396   5.466 -1.5170  0.8649 -0.1774
 8538SOL    HW227056   2.768   1.291   5.370 -0.5395 -0.1254  0.3756
 8539SOL     OW27057   0.468   2.386   9.378 -1.0570  0.5053 -0.3639
 8539SOL    HW127058   0.423   2.393   9.462 -0.6572  0.4819 -0.1424
 8539SOL    HW227059   0.558   2.415   9.397 -0.4863 -1.1715 -0.3707
 8540SOL     OW27060   5.953   4.460  11.378  0.0927  0.5642 -0.2009
 8540SOL    HW127061   6.026   4.410  11.341  0.4110  1.8488 -1.4027
 8540SOL    HW227062   5.995   4.530  11.428 -0.3057  1.0902 -0.5930
 8541SOL     OW27063   2.161   5.068   2.580  0.2757 -0.4804 -0.3265
 8541SOL    HW127064   2.103   5.028   2.514 -1.7000  0.8751  0.4941
 8541SOL    HW227065   2.178   5.156   2.546  1.4229 -0.6586 -0.2585
 8542SOL     OW27066   5.286   4.565  12.201  0.1628 -0.4385 -0.0993
 8542SOL    HW127067   5.305   4.655  12.174 -1.6464  0.0443  0.0825
 8542SOL    HW227068   5.328   4.510  12.135  0.0535  0.5804 -1.0386
 8543SOL     OW27069   5.040   3.421   0.753 -0.0949 -0.3697 -0.1868
 8543SOL    HW127070   5.106   3.428   0.684  0.0366 -0.9700 -0.1262
 8543SOL    HW227071   5.044   3.505   0.799  0.2988 -0.2263 -0.4771
 8544SOL     OW27072   3.072   5.705   3.667 -0.5796 -0.1083  0.2182
 8544SOL    HW127073   3.113   5.628   3.706 -0.0702  0.2401  0.3850
 8544SOL    HW227074   3.068   5.685   3.573  1.5128  0.5146 -0.0442
 8545SOL     OW27075   6.473   1.127   8.422  0.2217  0.2441  0.1658
 8545SOL    HW127076   6.539   1.123   8.491 -1.3868 -0.5957  1.7460
 8545SOL    HW227077   6.514   1.084   8.347  0.8793 -1.9376  1.6639
 8546SOL     OW27078   0.621   1.720   3.238 -0.4782  0.4075 -0.2180
 8546SOL    HW127079   0.546   1.751   3.188 -0.0648 -0.2981 -1.3116
 8546SOL    HW227080   0.589   1.645   3.287 -0.5764  0.3191 -0.4175
 8547SOL     OW27081   2.081   1.124   1.733 -0.3602  0.3490  0.5011
 8547SOL    HW127082   2.026   1.046   1.732  0.5171 -0.2845 -0.4438
 8547SOL    HW227083   2.134   1.115   1.812 -0.1140 -0.1224  0.2869
 8548SOL     OW27084   3.314   6.637   8.384  0.3763  0.3243 -0.2832
 8548SOL    HW127085   3.277   6.718   8.348  0.0686  0.9359  1.3396
 8548SOL    HW227086   3.305   6.647   8.478  0.8919 -1.3593 -0.0356
 8549SOL     OW27087   4.783   0.960  11.056 -0.1590  0.5082 -0.0326
 8549SOL    HW127088   4.705   0.938  11.108 -0.1451  0.9428  0.1724
 8549SOL    HW227089   4.827   0.876  11.043 -1.8540 -0.1708 -2.1117
 8550SOL     OW27090   0.906   5.347   0.158 -0.3649 -0.0686  0.3103
 8550SOL    HW127091   0.922   5.277   0.221  0.4409 -0.6652 -0.5227
 8550SOL    HW227092   0.810   5.351   0.150 -0.5012  0.2670  1.8062
 8551SOL     OW27093   0.609   5.378   1.025  0.1405  0.5335 -0.3400
 8551SOL    HW127094   0.587   5.409   0.937 -0.0985  0.3634 -0.3386
 8551SOL    HW227095   0.694   5.336   1.015  1.0529  2.2289 -0.1273
 8552SOL     OW27096   7.182   2.139  11.769 -0.1306  0.2894 -0.4455
 8552SOL    HW127097   7.268   2.097  11.776  0.2223  0.4743 -2.7459
 8552SOL    HW227098   7.192   2.223  11.813  0.7522  0.1249 -0.3247
 8553SOL     OW27099   5.816   2.538  10.801  0.2045  0.2516 -0.3518
 8553SOL    HW127100   5.734   2.545  10.752  0.7816 -0.2312 -1.4307
 8553SOL    HW227101   5.883   2.522  10.734  1.1114  0.1221  0.5505
 8554SOL     OW27102   2.191   1.331   5.561 -0.4685  0.2194  0.3538
 8554SOL    HW127103   2.238   1.409   5.592 -2.2121  1.7058 -0.5154
 8554SOL    HW227104   2.141   1.301   5.637  1.0851 -0.8119  1.0197
 8555SOL     OW27105   2.423   1.502   4.446 -0.3140  0.3058 -0.3171
 8555SOL    HW127106   2.341   1.464   4.413 -0.9469  0.6649  0.7890
 8555SOL    HW227107   2.429   1.471   4.536 -0.0372  1.5515  0.1101
 8556SOL     OW27108   7.225   1.299   0.857 -0.4150 -0.5300  0.5194
 8556SOL    HW127109   7.136   1.313   0.823 -1.2879 -4.9689  0.3106
 8556SOL    HW227110   7.262   1.232   0.800  2.6670  0.3145  1.3655
 8557SOL     OW27111   3.814   4.520   1.996  0.5563 -0.0080  0.5278
 8557SOL    HW127112   3.840   4.428   1.996 -1.4374 -0.6199  0.9574
 8557SOL    HW227113   3.764   4.532   1.916 -0.4978  0.2712  1.1992
 8558SOL     OW27114   5.275   3.508   6.743 -0.3466 -0.1942 -0.0238
 8558SOL    HW127115   5.295   3.486   6.834 -0.2378  0.6161  0.1535
 8558SOL    HW227116   5.247   3.599   6.746  0.1440 -0.0090 -0.8784
 8559SOL     OW27117   5.471   6.981   0.216  0.1625 -1.3209 -0.4050
 8559SOL    HW127118   5.437   6.915   0.157  1.1674 -1.2349 -1.1140
 8559SOL    HW227119   5.540   6.937   0.265  0.1291 -1.0780 -0.1351
 8560SOL     OW27120   3.518   2.883   3.389 -0.3837  0.0460 -0.1912
 8560SOL    HW127121   3.552   2.824   3.322 -2.7356  0.7668 -2.1851
 8560SOL    HW227122   3.427   2.855   3.402 -0.9126  1.8722  0.3614
 8561SOL     OW27123   2.923   0.699   8.561 -0.2599 -0.3879  0.9783
 8561SOL    HW127124   2.987   0.757   8.602  0.6384 -1.0105  0.5045
 8561SOL    HW227125   2.870   0.757   8.507 -1.7113  0.5122  3.2121
 8562SOL     OW27126   5.317   2.341   8.864  0.3126 -0.3699 -0.4141
 8562SOL    HW127127   5.373   2.325   8.939 -0.6283  0.7230  0.5539
 8562SOL    HW227128   5.230   2.316   8.893  0.0330 -0.5197 -1.3514
 8563SOL     OW27129   4.718   6.389   2.675 -0.5922  0.4369 -0.0552
 8563SOL    HW127130   4.702   6.310   2.727 -0.3776 -0.2701 -1.0587
 8563SOL    HW227131   4.792   6.432   2.718  0.1169 -0.5743 -0.2565
 8564SOL     OW27132   7.186   4.800  11.853  0.4134 -0.8167  0.0990
 8564SOL    HW127133   7.255   4.841  11.801 -0.0364  0.7548  0.7116
 8564SOL    HW227134   7.233   4.751  11.921  0.9471  1.0465  1.1225
 8565SOL     OW27135   0.615   5.193   7.367 -0.2306  0.3465 -0.5848
 8565SOL    HW127136   0.538   5.155   7.410  0.7028 -1.2783 -0.2323
 8565SOL    HW227137   0.583   5.272   7.325 -1.5196  1.1967  1.8097
 8566SOL     OW27138   3.783   7.616   8.343 -0.3956  0.3048 -0.0633
 8566SOL    HW127139   3.840   7.642   8.415 -0.2491 -0.1840  0.0033
 8566SOL    HW227140   3.715   7.683   8.340 -0.5963  0.1426  0.7498
 8567SOL     OW27141   7.113   1.716   4.085 -0.3982  0.0540 -0.3676
 8567SOL    HW127142   7.159   1.779   4.141 -2.3897  1.3478 -0.1016
 8567SOL    HW227143   7.076   1.769   4.014 -2.3003 -0.7377 -0.0194
 8568SOL     OW27144   5.786   1.150   1.589 -0.3832  0.0129 -0.7061
 8568SOL    HW127145   5.848   1.077   1.584  0.0404  0.1426  1.5017
 8568SOL    HW227146   5.841   1.228   1.588 -0.5565  0.1617  0.3228
 8569SOL     OW27147   3.876   2.045  10.396 -0.1905  0.5885  0.1645
 8569SOL    HW127148   3.963   2.086  10.400  0.1750 -0.2496  1.5277
 8569SOL    HW227149   3.863   2.027  10.303  1.0639  0.8327 -0.0862
 8570SOL     OW27150   2.341   6.352   8.339  0.1382 -0.5097  0.0080
 8570SOL    HW127151   2.348   6.418   8.408 -0.6501  1.8352 -1.9696
 8570SOL    HW227152   2.425   6.355   8.293  0.2610 -1.2422  0.1676
 8571SOL     OW27153   0.745   4.288   8.139  0.6600 -0.3268  0.1609
 8571SOL    HW127154   0.785   4.318   8.220  0.1564 -1.3177  0.7913
 8571SOL    HW227155   0.806   4.223   8.104  0.7633 -0.0725 -0.1407
 8572SOL     OW27156   7.644   6.291   2.388  0.3846  0.1147  0.6874
 8572SOL    HW127157   7.550   6.275   2.376  0.7435 -0.3609 -2.0367
 8572SOL    HW227158   7.668   6.237   2.463 -1.1430 -1.3201  0.1918
 8573SOL     OW27159   2.218   5.468   0.575 -0.2206  0.2140  0.1053
 8573SOL    HW127160   2.167   5.394   0.610  1.1659 -0.1196  1.5660
 8573SOL    HW227161   2.154   5.537   0.561 -1.4641 -1.0568 -0.7067
 8574SOL     OW27162   2.478   7.057   7.180 -0.5060 -0.2702 -0.0996
 8574SOL    HW127163   2.491   7.073   7.086  0.5060 -2.4063 -0.3903
 8574SOL    HW227164   2.474   7.144   7.219 -0.1528  0.6617 -2.0342
 8575SOL     OW27165   3.369   2.804   6.847  0.1647 -0.3105 -0.1678
 8575SOL    HW127166   3.371   2.708   6.850  1.2508 -0.3035 -0.3993
 8575SOL    HW227167   3.461   2.830   6.846  0.0137  0.8882  3.3186
 8576SOL     OW27168   2.328   3.852  11.245  0.1125  0.2261 -0.2242
 8576SOL    HW127169   2.405   3.797  11.227 -0.3473 -1.1011  1.5893
 8576SOL    HW227170   2.363   3.924  11.297  0.2816  0.0962 -0.1534
 8577SOL     OW27171   4.022   4.297   0.046 -0.6944 -0.7670  0.0238
 8577SOL    HW127172   4.114   4.281   0.067 -0.3766 -0.0469 -0.7770
 8577SOL    HW227173   3.990   4.348   0.120 -0.7415 -1.8892  0.8054
 8578SOL     OW27174   3.716   2.199   5.233  0.0272  0.2023  0.5959
 8578SOL    HW127175   3.714   2.292   5.256  0.3126  0.6433 -1.0639
 8578SOL    HW227176   3.627   2.179   5.204  0.6132  0.7503 -1.8186
 8579SOL     OW27177   2.529   5.075   3.073  0.0282 -0.3340  0.2923
 8579SOL    HW127178   2.590   5.043   3.007  1.3045 -0.6339  1.5891
 8579SOL    HW227179   2.584   5.115   3.140 -1.3736  4.6615 -1.0966
 8580SOL     OW27180   5.327   7.553   4.073 -0.1482 -0.0328  0.0500
 8580SOL    HW127181   5.322   7.510   4.158  1.8925  0.2972  0.3953
 8580SOL    HW227182   5.374   7.491   4.018 -2.0304 -0.5308 -1.0810
 8581SOL     OW27183   1.622   5.612   7.813 -0.5758  0.3401 -0.3135
 8581SOL    HW127184   1.692   5.583   7.871  0.5061  0.3399 -1.5597
 8581SOL    HW227185   1.572   5.675   7.865 -0.0658 -0.1646  0.8282
 8582SOL     OW27186   0.347   4.554   9.032  0.2399 -0.1570 -0.5835
 8582SOL    HW127187   0.440   4.531   9.036 -0.4705 -3.2731  2.5249
 8582SOL    HW227188   0.327   4.555   8.938  3.0786 -0.8456 -1.2982
 8583SOL     OW27189   3.625   2.071   5.908 -0.4926  0.3260  0.0381
 8583SOL    HW127190   3.557   2.131   5.878  0.2228  1.0120 -0.2363
 8583SOL    HW227191   3.693   2.128   5.944  0.4499 -0.2847 -0.7381
 8584SOL     OW27192   0.178   2.470   6.496  0.5534 -0.8594  0.4157
 8584SOL    HW127193   0.111   2.416   6.537  0.4177 -0.6637  0.4527
 8584SOL    HW227194   0.240   2.407   6.459 -0.6971 -1.1012 -1.4101
 8585SOL     OW27195   0.222   5.678  11.899  0.0017  0.3462  0.1844
 8585SOL    HW127196   0.309   5.644  11.878 -0.0213  0.7989 -0.6916
 8585SOL    HW227197   0.198   5.635  11.980  0.7055 -0.4036  0.0030
 8586SOL     OW27198   1.679   5.836   4.468 -0.4677  0.1538 -0.5129
 8586SOL    HW127199   1.645   5.910   4.519 -2.5730  0.0130 -1.5869
 8586SOL    HW227200   1.605   5.808   4.414  0.9876 -1.2107 -1.9151
 8587SOL     OW27201   1.442   4.280   3.741  0.2515  0.1913  0.3914
 8587SOL    HW127202   1.359   4.242   3.771 -0.2226  0.4428 -0.5544
 8587SOL    HW227203   1.503   4.206   3.741 -0.6867 -0.6579 -1.5062
 8588SOL     OW27204   0.346   4.816  11.776  0.2988 -0.4289  0.2689
 8588SOL    HW127205   0.405   4.751  11.738  0.7240  0.3604 -0.4496
 8588SOL    HW227206   0.391   4.847  11.854 -0.0657 -1.2413  0.8115
 8589SOL     OW27207   6.580   7.978  10.854 -0.2492  0.0672 -0.1482
 8589SOL    HW127208   6.637   7.917  10.900  0.0342  1.6308  1.7110
 8589SOL    HW227209   6.501   7.928  10.834  0.3174 -1.1269  0.5105
 8590SOL     OW27210   1.172   1.868   3.848 -0.2645 -0.2995 -0.6352
 8590SOL    HW127211   1.161   1.887   3.942  0.0498 -2.0107 -0.2099
 8590SOL    HW227212   1.091   1.824   3.823 -0.6828  0.8489 -1.4024
 8591SOL     OW27213   7.891   1.927   2.528  0.5001 -0.4030  0.0644
 8591SOL    HW127214   7.871   1.852   2.584  1.2633 -0.5299  0.1837
 8591SOL    HW227215   7.886   2.003   2.587 -0.6011 -0.3102 -0.1286
 8592SOL     OW27216   4.854   6.510   2.063 -0.4025 -0.6811  0.0566
 8592SOL    HW127217   4.763   6.482   2.067 -0.8364  0.6722  0.4959
 8592SOL    HW227218   4.895   6.472   2.141 -1.1586  0.4585  1.0492
 8593SOL     OW27219   4.808   5.108   6.575 -0.0331 -0.3209 -0.4485
 8593SOL    HW127220   4.820   5.115   6.670 -1.3650 -0.0516 -0.2730
 8593SOL    HW227221   4.881   5.054   6.545  1.3391  0.9511  0.4937
 8594SOL     OW27222   1.237   1.098   0.692  0.2894 -0.3945  0.1027
 8594SOL    HW127223   1.246   1.193   0.698 -0.4084 -0.3876  1.5906
 8594SOL    HW227224   1.258   1.067   0.780 -1.4534 -1.4221  0.2081
 8595SOL     OW27225   0.869   3.411   1.950  0.1076 -0.1564  0.0444
 8595SOL    HW127226   0.811   3.425   2.025  1.6577 -1.7354  1.6625
 8595SOL    HW227227   0.946   3.466   1.969 -0.4064  1.2128 -1.6035
 8596SOL     OW27228   1.550   4.249  10.568  0.1067  0.2134 -0.2050
 8596SOL    HW127229   1.595   4.228  10.486  0.3696  2.3929 -0.6833
 8596SOL    HW227230   1.547   4.166  10.616  1.0387 -0.8456 -1.8891
 8597SOL     OW27231   7.627   2.504   0.674 -0.7657  0.3494 -0.2295
 8597SOL    HW127232   7.619   2.484   0.581 -0.8004  0.9705 -0.3626
 8597SOL    HW227233   7.720   2.491   0.694 -0.7123  0.4647 -0.4051
 8598SOL     OW27234   7.298   6.867   9.571 -0.6337  0.0411 -0.0243
 8598SOL    HW127235   7.306   6.772   9.565  0.3508  0.1730 -1.1148
 8598SOL    HW227236   7.230   6.889   9.507 -1.1387  0.0513  0.5040
 8599SOL     OW27237   2.230   4.789  12.257  0.1884 -0.4167 -0.0163
 8599SOL    HW127238   2.262   4.842  12.331 -2.2410  0.4723  0.4950
 8599SOL    HW227239   2.309   4.757  12.215  1.8456  3.0466  0.0970
 8600SOL     OW27240   3.416   6.766   4.947  0.3175  0.0151  0.0953
 8600SOL    HW127241   3.464   6.730   5.021 -0.9904  0.3552  1.1455
 8600SOL    HW227242   3.328   6.783   4.981 -0.0656  1.0049 -1.2955
 8601SOL     OW27243   6.912   6.686  11.502 -0.2772  0.4419  0.2932
 8601SOL    HW127244   6.896   6.721  11.415  0.2352  0.3634  0.1618
 8601SOL    HW227245   6.897   6.759  11.561  1.3161  1.0573 -0.0139
 8602SOL     OW27246   1.003   7.778   4.760  0.2336  0.0321 -0.2849
 8602SOL    HW127247   1.029   7.699   4.806 -1.9088 -0.2722  0.5031
 8602SOL    HW227248   0.952   7.746   4.685 -0.5953  0.6462  0.0047
 8603SOL     OW27249   7.725   0.086   5.170 -0.2459  0.2024  0.3269
 8603SOL    HW127250   7.782   0.051   5.238  0.3644  0.7700  0.1266
 8603SOL    HW227251   7.646   0.114   5.216  0.0695  0.3767  0.7715
 8604SOL     OW27252   1.492   0.613   1.520  0.2735 -0.1449  0.0645
 8604SOL    HW127253   1.496   0.700   1.559 -0.9585 -0.0257 -0.0256
 8604SOL    HW227254   1.408   0.577   1.550  0.9741 -1.4966  0.4894
 8605SOL     OW27255   7.498   7.864   3.895  0.3601  0.3623  0.5670
 8605SOL    HW127256   7.435   7.792   3.899  0.4649  0.2073 -0.3334
 8605SOL    HW227257   7.555   7.842   3.821  0.7583  1.0708  0.6520
 8606SOL     OW27258   3.617   5.078   0.411  0.2824 -0.0021  0.2191
 8606SOL    HW127259   3.649   4.991   0.386 -1.6567 -0.7277  0.0532
 8606SOL    HW227260   3.590   5.067   0.503 -1.5997 -0.1387 -0.2977
 8607SOL     OW27261   5.280   0.768   3.391 -0.2548 -0.1640  0.2142
 8607SOL    HW127262   5.284   0.832   3.463 -0.3188 -2.0924  2.0220
 8607SOL    HW227263   5.216   0.804   3.330 -1.6303  0.6552  2.0566
 8608SOL     OW27264   0.028   7.455   9.614 -0.0909 -0.5382  0.3942
 8608SOL    HW127265   0.084   7.533   9.619 -1.5412  0.5639  0.1705
 8608SOL    HW227266   0.088   7.383   9.596  1.2360  0.6138  0.0838
 8609SOL     OW27267   3.206   4.494  10.010  0.5067 -0.0957 -0.0561
 8609SOL    HW127268   3.244   4.519   9.926 -0.4013  0.0625 -0.4236
 8609SOL    HW227269   3.183   4.402   9.999 -0.1468  0.0787 -0.1859
 8610SOL     OW27270   0.414   2.993   4.321  0.0389  0.0108  1.1263
 8610SOL    HW127271   0.408   2.912   4.371 -0.7268  0.2096  1.3667
 8610SOL    HW227272   0.347   3.050   4.359 -0.0482  0.4298  0.3691
 8611SOL     OW27273   5.252   2.363  10.697  0.6303 -0.3298 -0.1261
 8611SOL    HW127274   5.262   2.289  10.637  0.5145  0.2158 -0.8398
 8611SOL    HW227275   5.287   2.438  10.648  1.0853  0.0236  0.7236
 8612SOL     OW27276   1.370   4.511   3.214  0.5204 -0.5625 -0.0105
 8612SOL    HW127277   1.323   4.557   3.283 -0.8659  1.2675 -2.0578
 8612SOL    HW227278   1.456   4.552   3.211 -0.2601  1.0790 -0.9426
 8613SOL     OW27279   2.265   5.023   3.199  0.0183  0.7472 -0.3716
 8613SOL    HW127280   2.350   4.997   3.165 -0.2520 -0.4691 -0.1690
 8613SOL    HW227281   2.271   5.118   3.210  0.7146  0.9342 -2.1080
 8614SOL     OW27282   4.939   1.367   8.901  0.0888  0.1513 -0.1826
 8614SOL    HW127283   4.898   1.346   8.985  0.8141 -0.1416  0.1079
 8614SOL    HW227284   5.004   1.298   8.888  1.5542  1.4233  0.1233
 8615SOL     OW27285   5.865   6.599   5.312  0.1806 -0.2711  0.0048
 8615SOL    HW127286   5.790   6.540   5.301  1.1923 -1.4695 -0.5537
 8615SOL    HW227287   5.850   6.640   5.398 -0.1194 -1.9577  0.7960
 8616SOL     OW27288   6.774   5.139  11.530 -0.1635  0.0605 -0.4307
 8616SOL    HW127289   6.850   5.173  11.578 -0.1250  0.5941 -0.8596
 8616SOL    HW227290   6.727   5.086  11.595  0.7073 -0.4867 -0.2353
 8617SOL     OW27291   6.868   1.929   6.909  0.0007  0.5535  0.5057
 8617SOL    HW127292   6.844   1.955   6.820  0.1250  0.1220  0.3457
 8617SOL    HW227293   6.914   2.005   6.944 -1.5229  1.3852  0.7950
 8618SOL     OW27294   2.770   7.210   8.361 -0.3632  0.4234 -0.5368
 8618SOL    HW127295   2.794   7.294   8.401 -0.4369  1.1736 -1.9997
 8618SOL    HW227296   2.735   7.234   8.275  0.2723 -1.1526 -1.2689
 8619SOL     OW27297   3.052   5.923   0.017  0.3917 -0.2274 -0.9122
 8619SOL    HW127298   3.097   5.924   0.102  1.7227 -1.6850 -1.5359
 8619SOL    HW227299   3.108   5.977  -0.040 -0.3027  0.4459 -0.9771
 8620SOL     OW27300   0.675   6.270   7.269  0.0088 -0.0133 -0.2900
 8620SOL    HW127301   0.631   6.319   7.199  0.8337  0.3472 -0.5650
 8620SOL    HW227302   0.725   6.203   7.222  2.4356  1.6505 -0.2829
 8621SOL     OW27303   6.953   4.623   5.204 -0.1031  0.4652  0.2269
 8621SOL    HW127304   6.966   4.539   5.248 -0.5438  0.1981 -0.1397
 8621SOL    HW227305   6.859   4.627   5.188  0.0302  0.6112 -0.5756
 8622SOL     OW27306   7.299   5.662   0.305  0.4937  0.3501 -0.2630
 8622SOL    HW127307   7.300   5.736   0.244 -0.2579  0.0565 -0.6511
 8622SOL    HW227308   7.386   5.623   0.296  0.4136  0.3355 -1.1444
 8623SOL     OW27309   1.527   2.673   1.867  0.2261  0.1494  0.3499
 8623SOL    HW127310   1.436   2.670   1.896  0.9954  0.1053  3.0607
 8623SOL    HW227311   1.568   2.597   1.908  1.6143  0.4782 -0.3546
 8624SOL     OW27312   1.476   0.928   0.453  0.1496  0.2556  0.5818
 8624SOL    HW127313   1.463   0.835   0.474 -2.5652  0.4922  0.2019
 8624SOL    HW227314   1.441   0.974   0.529  0.3830  0.9886  0.2496
 8625SOL     OW27315   5.914   3.515   8.446 -0.3189  0.8662  0.4032
 8625SOL    HW127316   5.939   3.426   8.472 -0.2692  0.4204 -1.1150
 8625SOL    HW227317   5.989   3.569   8.471 -0.3621  0.5081  1.3724
 8626SOL     OW27318   1.664   3.889   2.595 -0.4982  0.0922 -0.7728
 8626SOL    HW127319   1.748   3.848   2.615 -1.8867 -2.1623  1.0658
 8626SOL    HW227320   1.666   3.972   2.642  0.2647 -0.4969  0.2822
 8627SOL     OW27321   2.044   2.589   8.971 -0.2453 -0.8637  0.1747
 8627SOL    HW127322   2.096   2.595   8.891  0.5451 -0.3277  0.7103
 8627SOL    HW227323   1.985   2.664   8.966 -0.7976 -1.3201 -0.3078
 8628SOL     OW27324   6.744   3.006   2.302 -0.6343 -0.2927  0.0403
 8628SOL    HW127325   6.746   2.969   2.214 -0.4075 -1.7609  0.6436
 8628SOL    HW227326   6.834   3.004   2.332 -0.8185 -0.4837  0.5882
 8629SOL     OW27327   5.140   7.153   8.825 -0.6803 -0.5626 -0.1383
 8629SOL    HW127328   5.056   7.113   8.805 -1.3295  0.1532  1.0112
 8629SOL    HW227329   5.152   7.138   8.919 -0.7958  1.5447  0.2801
 8630SOL     OW27330   2.961   6.417   9.310 -0.4375  0.0271  0.0126
 8630SOL    HW127331   2.952   6.349   9.243 -0.0241  1.2308 -1.3233
 8630SOL    HW227332   2.871   6.445   9.328 -0.5540 -0.2815 -0.0872
 8631SOL     OW27333   6.753   4.852   4.678 -0.0767 -0.5492 -0.4750
 8631SOL    HW127334   6.793   4.812   4.755 -0.3784  0.1989  0.0655
 8631SOL    HW227335   6.825   4.857   4.615  0.4017 -0.2812  0.0846
 8632SOL     OW27336   5.777   1.041   0.059  0.0994 -0.0159 -0.8272
 8632SOL    HW127337   5.849   1.077   0.008 -0.4188 -0.9227 -2.2787
 8632SOL    HW227338   5.698   1.070   0.013 -0.4492  0.3564  0.3162
 8633SOL     OW27339   5.686   4.186   0.133 -0.0854  0.3994  0.1318
 8633SOL    HW127340   5.599   4.147   0.139 -0.3080  0.9355  0.4613
 8633SOL    HW227341   5.727   4.141   0.060  0.0333 -1.1604  1.1050
 8634SOL     OW27342   1.923   0.026   0.250 -0.3598  0.0628  0.3209
 8634SOL    HW127343   1.914  -0.068   0.237  0.7166  0.2328 -2.0712
 8634SOL    HW227344   1.870   0.045   0.328 -1.1016 -2.3952  0.4759
 8635SOL     OW27345   4.824   3.649  11.218  0.0939 -0.0067  0.7401
 8635SOL    HW127346   4.870   3.683  11.140 -2.6519  0.4284 -0.8155
 8635SOL    HW227347   4.813   3.556  11.200 -0.0595 -0.0139  0.8774
 8636SOL     OW27348   6.429   3.701   7.529  0.6191  0.0705 -0.0254
 8636SOL    HW127349   6.419   3.786   7.571  1.5333  0.0274  0.2891
 8636SOL    HW227350   6.395   3.714   7.440 -1.2201  0.1947  0.6415
 8637SOL     OW27351   5.693   5.187   7.732 -0.8204 -0.5279 -0.0339
 8637SOL    HW127352   5.768   5.212   7.787  0.2542 -2.6647 -0.4129
 8637SOL    HW227353   5.687   5.256   7.666  0.0190  0.3129  0.7368
 8638SOL     OW27354   6.847   4.344   0.204 -0.1322 -0.4742  0.3678
 8638SOL    HW127355   6.799   4.282   0.259 -0.7083 -0.3063  0.0690
 8638SOL    HW227356   6.831   4.429   0.244  3.7879 -0.7533  3.0933
 8639SOL     OW27357   4.066   2.330  10.380  0.0266 -0.2817  0.4299
 8639SOL    HW127358   4.124   2.406  10.384 -1.4429  0.9554 -0.3926
 8639SOL    HW227359   4.121   2.259  10.345  0.1756  1.9679 -4.8810
 8640SOL     OW27360   3.799   6.864  10.682 -0.0371 -0.0508 -0.2338
 8640SOL    HW127361   3.714   6.893  10.714 -0.5658  0.1649 -1.7407
 8640SOL    HW227362   3.863   6.910  10.737 -0.8757  2.0020 -0.8913
 8641SOL     OW27363   6.303   0.734  11.452 -0.1644 -0.0814  0.4260
 8641SOL    HW127364   6.363   0.686  11.395  0.1830 -0.5607  1.1862
 8641SOL    HW227365   6.312   0.692  11.538 -0.2425  0.9955  0.9784
 8642SOL     OW27366   1.408   1.535   9.645  0.4367  0.1109 -0.2038
 8642SOL    HW127367   1.429   1.460   9.589  2.3167  1.3668 -1.2952
 8642SOL    HW227368   1.474   1.532   9.715  0.0629  0.3358  0.1613
 8643SOL     OW27369   3.465   0.402   0.134  0.4534 -0.8876  0.6331
 8643SOL    HW127370   3.447   0.317   0.095  1.1900 -1.6105  1.7768
 8643SOL    HW227371   3.534   0.439   0.079 -0.2909 -0.7567 -0.2232
 8644SOL     OW27372   5.819   4.497   8.466 -0.7536 -0.2387 -0.6519
 8644SOL    HW127373   5.770   4.414   8.467  1.5825 -1.7248 -1.2008
 8644SOL    HW227374   5.830   4.519   8.559  0.2669 -1.6409 -0.4053
 8645SOL     OW27375   7.638   4.213   8.329 -0.2736  0.1082  0.5428
 8645SOL    HW127376   7.633   4.121   8.303 -1.0620  0.6090 -1.2690
 8645SOL    HW227377   7.650   4.211   8.424  0.1915 -1.8551  0.4862
 8646SOL     OW27378   2.717   6.632   2.775 -0.6436  0.6723  0.5216
 8646SOL    HW127379   2.754   6.719   2.790  1.6112  0.0117 -0.7919
 8646SOL    HW227380   2.736   6.584   2.855  1.7919  0.2464 -0.2468
 8647SOL     OW27381   6.224   0.471  10.558  0.8785 -0.7651 -0.1177
 8647SOL    HW127382   6.300   0.513  10.599 -0.1547  0.1285  0.9614
 8647SOL    HW227383   6.149   0.514  10.598 -0.2078 -1.2593 -1.5550
 8648SOL     OW27384   6.896   5.610   4.382  0.3234  0.5793 -0.0575
 8648SOL    HW127385   6.872   5.531   4.432  2.7536  0.1156  0.5167
 8648SOL    HW227386   6.860   5.682   4.433  2.6505  0.1236  2.5085
 8649SOL     OW27387   5.278   4.094   8.388  0.0478  0.0486  0.6959
 8649SOL    HW127388   5.196   4.133   8.419 -1.1200 -1.8314  0.1245
 8649SOL    HW227389   5.257   4.060   8.301  1.4629 -0.4260  0.5143
 8650SOL     OW27390   0.325   5.221   3.204 -0.4463  0.4809 -0.1183
 8650SOL    HW127391   0.328   5.158   3.275  0.1272 -0.2934 -0.8163
 8650SOL    HW227392   0.232   5.244   3.196 -0.3186  2.1575  2.2197
 8651SOL     OW27393   2.703   0.853   2.341  0.3654 -0.4611  0.1649
 8651SOL    HW127394   2.794   0.873   2.321  0.2896 -0.1836  0.0872
 8651SOL    HW227395   2.665   0.937   2.367 -0.9323  0.3868 -3.7804
 8652SOL     OW27396   7.810   0.063   2.617 -0.5511 -0.2595 -0.0337
 8652SOL    HW127397   7.886   0.103   2.574 -1.3201  1.7595  0.3339
 8652SOL    HW227398   7.760   0.023   2.546 -1.2673  2.1115 -0.9967
 8653SOL     OW27399   0.066   1.536  11.377 -0.0478 -0.6250  0.6941
 8653SOL    HW127400   0.081   1.445  11.351 -0.4933 -1.1918  2.3022
 8653SOL    HW227401   0.128   1.586  11.324  1.3284 -2.0270  0.8957
 8654SOL     OW27402   5.562   3.966   1.940  0.2018 -0.1623 -0.1141
 8654SOL    HW127403   5.590   4.046   1.896 -1.7800  0.5646 -0.1666
 8654SOL    HW227404   5.484   3.992   1.989  0.1815 -1.8142  0.8018
 8655SOL     OW27405   2.778   2.537  10.609  0.0383  0.1216 -0.0614
 8655SOL    HW127406   2.786   2.601  10.538  1.8773 -0.9155 -0.8756
 8655SOL    HW227407   2.785   2.590  10.689  1.3667  0.9920 -0.7122
 8656SOL     OW27408   0.804   1.706  10.584 -0.1060 -0.0484 -0.4869
 8656SOL    HW127409   0.727   1.717  10.641 -1.4016 -0.9363 -1.9632
 8656SOL    HW227410   0.853   1.634  10.624  0.5066  1.1603  1.0080
 8657SOL     OW27411   6.384   6.428  12.044 -0.9057 -0.4832 -0.5183
 8657SOL    HW127412   6.450   6.496  12.056 -0.4839 -1.2195  1.7254
 8657SOL    HW227413   6.300   6.471  12.063 -0.8061 -0.2030 -0.7117
 8658SOL     OW27414   3.365   2.186  10.249 -0.2833 -0.1094  0.9553
 8658SOL    HW127415   3.461   2.183  10.251 -0.2578  0.6622  2.8836
 8658SOL    HW227416   3.339   2.150  10.334 -1.7048 -0.0104  0.5771
 8659SOL     OW27417   7.450   6.918   5.106  0.0954 -0.0735  0.4725
 8659SOL    HW127418   7.461   6.823   5.112 -0.5383 -0.2063 -0.2297
 8659SOL    HW227419   7.369   6.929   5.055 -0.0540  0.8407  0.8908
 8660SOL     OW27420   0.122   0.156   3.691 -0.1427 -0.2032 -0.1041
 8660SOL    HW127421   0.165   0.193   3.768 -1.6919  0.1627  0.6214
 8660SOL    HW227422   0.156   0.208   3.618  1.8410 -0.9730  0.1838
 8661SOL     OW27423   6.959   2.569   3.382 -0.2019  0.0056  0.2275
 8661SOL    HW127424   6.868   2.547   3.404 -0.2811 -0.5140 -0.5701
 8661SOL    HW227425   7.011   2.527   3.451 -0.6609  2.3143  2.0816
 8662SOL     OW27426   4.052   3.003   2.028  0.1311  1.0349 -0.2013
 8662SOL    HW127427   4.082   3.031   2.115  0.3326 -1.8148  0.7778
 8662SOL    HW227428   4.067   2.908   2.028  0.4367  0.9844 -3.5090
 8663SOL     OW27429   7.024   7.178   9.936 -0.1769  0.0711  0.6571
 8663SOL    HW127430   6.951   7.142   9.887 -1.1861  0.2670  1.9539
 8663SOL    HW227431   7.064   7.103   9.979 -1.3328  0.2597  2.1300
 8664SOL     OW27432   7.118   2.788   3.362  0.0419  0.1122  1.0180
 8664SOL    HW127433   7.060   2.713   3.376 -0.2299 -0.1752 -1.2916
 8664SOL    HW227434   7.206   2.750   3.360 -0.0376 -0.0540  0.5652
 8665SOL     OW27435   2.912   6.371   8.318  0.2472 -0.4208  0.1498
 8665SOL    HW127436   2.888   6.450   8.270 -0.8669 -0.7941  0.0597
 8665SOL    HW227437   2.953   6.314   8.252 -1.5181 -1.0393 -0.4660
 8666SOL     OW27438   2.766   0.886   1.693  0.2395 -0.2154 -0.4257
 8666SOL    HW127439   2.712   0.964   1.700  0.2253 -0.2670  0.1211
 8666SOL    HW227440   2.759   0.860   1.601  0.9755  0.9424 -0.8346
 8667SOL     OW27441   6.165   4.696   1.974 -0.0010  0.1483 -0.1776
 8667SOL    HW127442   6.202   4.784   1.975  0.4203  0.0117 -1.6177
 8667SOL    HW227443   6.164   4.671   1.881 -0.3465 -1.2624  0.1787
 8668SOL     OW27444   1.729   5.707   9.184  0.1881  0.1444 -0.1385
 8668SOL    HW127445   1.741   5.790   9.228 -0.1532 -0.3130  0.8400
 8668SOL    HW227446   1.769   5.719   9.098  3.2631  0.2312  1.1762
 8669SOL     OW27447   3.576   2.709   0.369 -0.3178 -0.1723  0.3430
 8669SOL    HW127448   3.664   2.717   0.333  0.6565  0.3432  2.6575
 8669SOL    HW227449   3.571   2.778   0.435 -1.8586 -1.2749  1.4401
 8670SOL     OW27450   2.214   3.086   8.820 -0.3696 -0.1608 -0.3804
 8670SOL    HW127451   2.167   3.009   8.853 -0.7373 -0.4209 -1.4602
 8670SOL    HW227452   2.286   3.050   8.769  3.0930  0.1576  3.6914
 8671SOL     OW27453   4.543   3.511  11.430  0.4241  0.3363 -0.3211
 8671SOL    HW127454   4.583   3.427  11.408 -0.0987 -0.2167  0.7359
 8671SOL    HW227455   4.468   3.518  11.370  0.1966 -0.1785 -0.1054
 8672SOL     OW27456   6.477   1.759   5.545 -0.0292  0.3645 -0.5827
 8672SOL    HW127457   6.422   1.681   5.549 -2.3402  1.8260 -1.4373
 8672SOL    HW227458   6.502   1.765   5.453  2.5146 -0.8115 -0.0429
 8673SOL     OW27459   0.622   7.312   3.981 -0.4138  0.9046  0.0135
 8673SOL    HW127460   0.653   7.222   3.972 -0.8120  0.7072  0.6071
 8673SOL    HW227461   0.690   7.356   4.031  0.3875  1.2647 -1.3335
 8674SOL     OW27462   4.505   2.494   0.531 -0.4738 -0.0212 -1.6011
 8674SOL    HW127463   4.585   2.533   0.565 -1.8075  0.6742  0.9991
 8674SOL    HW227464   4.474   2.557   0.466 -0.0359  0.8274 -1.0148
 8675SOL     OW27465   7.500   2.853   8.652 -0.2180 -0.1085  0.0612
 8675SOL    HW127466   7.534   2.931   8.607  1.2898  0.3031  1.7679
 8675SOL    HW227467   7.408   2.849   8.627 -0.4277  2.4290  0.1566
 8676SOL     OW27468   2.438   0.308   1.255 -0.2181 -0.1463 -0.1664
 8676SOL    HW127469   2.520   0.329   1.211 -0.2950  0.7838  0.1173
 8676SOL    HW227470   2.463   0.296   1.347 -0.1319 -1.6193 -0.3584
 8677SOL     OW27471   2.516   7.552   3.711  0.4878  0.1640 -0.2253
 8677SOL    HW127472   2.458   7.527   3.783  0.3019 -1.0825 -0.7817
 8677SOL    HW227473   2.504   7.483   3.646  4.1860 -1.4022  0.5124
 8678SOL     OW27474   3.840   1.878   5.851  0.3207  0.1542 -0.6756
 8678SOL    HW127475   3.762   1.931   5.866  1.0014  2.0599 -3.1326
 8678SOL    HW227476   3.818   1.792   5.886 -1.0288  1.8007  3.1623
 8679SOL     OW27477   3.118   1.617   7.099  0.0130  0.2091  0.0614
 8679SOL    HW127478   3.207   1.653   7.098 -0.1352  0.6359  0.8536
 8679SOL    HW227479   3.093   1.612   7.007  1.3716 -1.2380 -0.2745
 8680SOL     OW27480   6.704   2.610   0.442 -0.2676 -0.0614 -0.5226
 8680SOL    HW127481   6.788   2.624   0.485 -0.3420 -0.1050 -0.3618
 8680SOL    HW227482   6.726   2.579   0.355 -0.0214  2.6973 -1.5596
 8681SOL     OW27483   7.357   4.337  12.369  0.7247 -0.3865 -0.0148
 8681SOL    HW127484   7.354   4.394  12.446  1.0408  2.3886 -1.9342
 8681SOL    HW227485   7.265   4.320  12.348  0.5092  1.7274 -0.9676
 8682SOL     OW27486   1.088   0.016   6.643  0.7504 -0.3298 -0.8643
 8682SOL    HW127487   1.171  -0.000   6.598  0.7989  0.2422 -0.9894
 8682SOL    HW227488   1.036  -0.062   6.626  2.2666 -2.0185  1.5993
 8683SOL     OW27489   6.393   4.975   8.940  0.2573 -0.1378  0.0925
 8683SOL    HW127490   6.484   4.945   8.947  0.4240  0.2129 -0.5025
 8683SOL    HW227491   6.374   4.972   8.846  0.2530  1.5144  0.0140
 8684SOL     OW27492   7.660   1.290   6.482 -0.1027  0.1344  0.2315
 8684SOL    HW127493   7.600   1.227   6.443 -0.0591  1.5307 -2.3261
 8684SOL    HW227494   7.744   1.272   6.440 -0.0328  1.6460 -0.3468
 8685SOL     OW27495   5.984   7.361   3.361  0.1534 -0.6171 -0.3019
 8685SOL    HW127496   6.034   7.315   3.428 -1.0216  0.3239  1.2896
 8685SOL    HW227497   6.044   7.426   3.326  0.9673 -1.5113 -0.6036
 8686SOL     OW27498   4.833   7.874   8.370 -0.0600 -0.1760 -0.2000
 8686SOL    HW127499   4.902   7.810   8.355 -0.5746 -0.6394 -0.6814
 8686SOL    HW227500   4.850   7.943   8.305  1.4741  1.0475  1.4136
 8687SOL     OW27501   7.178   4.099  11.201 -0.4845  0.4907 -0.0525
 8687SOL    HW127502   7.125   4.028  11.166 -1.3829  1.3689 -0.5146
 8687SOL    HW227503   7.180   4.165  11.132  1.0818  0.5704  0.0169
 8688SOL     OW27504   5.468   5.098   0.577  0.0408 -0.2067  0.5398
 8688SOL    HW127505   5.465   5.093   0.672 -0.5681  0.8186  0.5912
 8688SOL    HW227506   5.429   5.016   0.547  1.1863 -0.9977  1.1504
 8689SOL     OW27507   1.172   3.370   8.383 -0.1422  0.6945  0.3290
 8689SOL    HW127508   1.230   3.436   8.346  2.6817 -1.9381 -0.2706
 8689SOL    HW227509   1.105   3.357   8.315  1.0030  0.8011 -0.8545
 8690SOL     OW27510   1.361   4.744   6.689 -0.5756 -0.2779 -0.2130
 8690SOL    HW127511   1.329   4.739   6.779  0.3946  0.8501  0.2301
 8690SOL    HW227512   1.297   4.798   6.644 -0.4681  0.1239  0.1059
 8691SOL     OW27513   5.633   3.963   3.105 -0.1303 -0.0738  0.5202
 8691SOL    HW127514   5.622   4.026   3.177 -1.1915 -0.8884  1.1083
 8691SOL    HW227515   5.605   3.879   3.142  1.9659 -1.0802 -0.0078
 8692SOL     OW27516   5.245   1.388  11.838  0.0222 -0.5762  0.0028
 8692SOL    HW127517   5.233   1.459  11.775  0.5554 -1.2454 -0.8568
 8692SOL    HW227518   5.339   1.376  11.844  0.0430 -4.3612 -3.5231
 8693SOL     OW27519   7.497   4.790   8.194  0.4197  0.0767 -0.1437
 8693SOL    HW127520   7.453   4.710   8.163  1.8708 -0.3362 -1.2548
 8693SOL    HW227521   7.464   4.859   8.137 -1.9885  0.6488  1.7659
 8694SOL     OW27522   0.032   1.624   5.982 -0.0330 -0.3525  0.3410
 8694SOL    HW127523   0.092   1.679   6.033  0.0893 -0.8412  0.7284
 8694SOL    HW227524   0.041   1.536   6.020  0.1433 -0.7489 -0.5854
 8695SOL     OW27525   4.532   5.699   0.042  0.6398  0.4791  0.2352
 8695SOL    HW127526   4.514   5.614   0.002  0.2764  0.0694  1.2322
 8695SOL    HW227527   4.625   5.713   0.026  0.6119  0.0915 -0.3020
 8696SOL     OW27528   7.064   1.815   7.863  0.0597 -0.1505  0.0463
 8696SOL    HW127529   7.150   1.785   7.834 -1.0666 -2.0910 -1.4957
 8696SOL    HW227530   7.040   1.883   7.800  0.1841 -0.0351  0.1211
 8697SOL     OW27531   7.936   1.758   8.216 -0.2280 -0.6076  0.3457
 8697SOL    HW127532   7.931   1.798   8.303  0.5013  0.2409  0.0055
 8697SOL    HW227533   7.991   1.680   8.229  1.3101  0.4354  0.3387
 8698SOL     OW27534   6.850   2.295   6.038  0.8456  0.4618 -0.4959
 8698SOL    HW127535   6.791   2.315   6.110  2.0711  0.4722  0.5329
 8698SOL    HW227536   6.815   2.214   6.001  1.9887 -1.3678  2.1721
 8699SOL     OW27537   4.159   2.380   2.415 -0.1326 -0.1317  0.2056
 8699SOL    HW127538   4.106   2.301   2.404 -0.0700 -0.1841  0.2785
 8699SOL    HW227539   4.223   2.377   2.345 -1.9481  1.3467 -1.6430
 8700SOL     OW27540   1.652   2.315  10.006 -0.4368 -0.1537  0.7284
 8700SOL    HW127541   1.588   2.315   9.934  0.0142 -0.9563  0.3061
 8700SOL    HW227542   1.626   2.388  10.062 -0.1106  1.2660 -0.8699
 8701SOL     OW27543   2.110   4.666   3.301  0.0513 -0.3170 -0.0725
 8701SOL    HW127544   2.137   4.713   3.222  0.9796 -0.8281 -0.0759
 8701SOL    HW227545   2.191   4.629   3.336 -0.5023 -0.9873  0.5413
 8702SOL     OW27546   3.213   6.575  11.180 -0.2896  0.3540  0.1902
 8702SOL    HW127547   3.236   6.545  11.092  0.7628 -1.2213  0.9569
 8702SOL    HW227548   3.241   6.666  11.182  0.4899  0.1578 -0.8239
 8703SOL     OW27549   2.814   0.012   5.751 -0.0922 -0.0085  0.6285
 8703SOL    HW127550   2.783  -0.069   5.792 -1.0754 -0.1927 -0.4280
 8703SOL    HW227551   2.909   0.005   5.752 -0.1386 -0.6895  1.5028
 8704SOL     OW27552   7.715   4.669   6.372  0.1809  0.1050  0.1509
 8704SOL    HW127553   7.781   4.602   6.386  0.0512  0.1716  1.1535
 8704SOL    HW227554   7.762   4.741   6.330  0.7524  0.1494  0.8503
 8705SOL     OW27555   0.416   2.013   7.481  0.2102 -0.7831  0.0646
 8705SOL    HW127556   0.467   1.951   7.533  0.4539  0.3829  1.2450
 8705SOL    HW227557   0.421   2.095   7.529 -2.9103 -0.6367  0.3521
 8706SOL     OW27558   5.025   0.551   8.172 -0.4078 -0.0920  0.1102
 8706SOL    HW127559   4.992   0.511   8.253 -0.6575  0.1222  0.1137
 8706SOL    HW227560   4.984   0.637   8.168 -0.4676 -0.1358 -0.2916
 8707SOL     OW27561   7.044   1.858   5.331  0.7886  0.2833  0.3450
 8707SOL    HW127562   7.051   1.947   5.295  2.0265  0.0416 -0.0670
 8707SOL    HW227563   7.080   1.866   5.419 -1.4250  0.6883  1.2730
 8708SOL     OW27564   0.157   7.631   8.005 -0.2561 -0.5890  0.1452
 8708SOL    HW127565   0.113   7.692   7.945  0.0853  0.4805  0.9460
 8708SOL    HW227566   0.179   7.685   8.081  2.2215 -1.1151 -0.1169
 8709SOL     OW27567   0.799   6.801   8.238  0.1346  0.1825 -0.4857
 8709SOL    HW127568   0.874   6.810   8.179  0.7520 -0.3685  0.1880
 8709SOL    HW227569   0.734   6.862   8.205  1.6032  2.1192  0.0483
 8710SOL     OW27570   7.817   1.122   5.004 -0.2899  0.6386  0.3889
 8710SOL    HW127571   7.758   1.194   5.028  1.7304  2.1383  1.0470
 8710SOL    HW227572   7.803   1.111   4.910 -3.3846 -0.7795  0.8728
 8711SOL     OW27573   4.605   6.591   7.858  0.1748 -0.3083 -0.5322
 8711SOL    HW127574   4.604   6.573   7.952  2.0712 -0.4111 -0.4906
 8711SOL    HW227575   4.668   6.528   7.823  1.1273  1.1588 -1.5367
 8712SOL     OW27576   6.524   5.842   8.418  0.2745 -0.5773 -0.6355
 8712SOL    HW127577   6.481   5.921   8.386 -0.1364 -0.2277  0.6983
 8712SOL    HW227578   6.520   5.781   8.344 -0.6765  0.1619 -1.2282
 8713SOL     OW27579   5.791   2.831   8.479  0.1390 -0.5309 -0.0202
 8713SOL    HW127580   5.747   2.914   8.496 -1.2720 -1.2731  0.0765
 8713SOL    HW227581   5.881   2.845   8.509 -0.0455  0.9798 -0.1021
 8714SOL     OW27582   5.666   2.723   2.865  0.6333  0.0607  0.0262
 8714SOL    HW127583   5.640   2.632   2.852  0.9773 -0.0819  0.2954
 8714SOL    HW227584   5.733   2.719   2.934  0.8524  0.4849 -0.1558
 8715SOL     OW27585   0.998   3.529   6.199  0.1937 -0.8015 -0.3790
 8715SOL    HW127586   0.947   3.453   6.226  1.6481 -0.9876  2.1575
 8715SOL    HW227587   0.940   3.604   6.216 -0.4521 -1.2052 -0.7789
 8716SOL     OW27588   0.954   7.011   5.712  0.2216  0.6910  0.0274
 8716SOL    HW127589   0.887   6.950   5.743  0.7779  0.7390  1.4230
 8716SOL    HW227590   0.923   7.040   5.626 -1.0332 -0.0437  0.2080
 8717SOL     OW27591   6.133   2.839   1.675 -0.0683 -0.1217 -0.3275
 8717SOL    HW127592   6.053   2.807   1.632 -0.4252  0.4254 -0.0825
 8717SOL    HW227593   6.108   2.850   1.766  0.5987 -0.9713 -0.0263
 8718SOL     OW27594   1.236   4.254  10.628  0.1253  0.2018 -0.4679
 8718SOL    HW127595   1.268   4.233  10.716  0.9014  0.1646 -0.7502
 8718SOL    HW227596   1.143   4.275  10.641  0.5161  1.4795  0.5540
 8719SOL     OW27597   6.330   5.809   2.949 -0.4672  0.3486 -0.4726
 8719SOL    HW127598   6.351   5.760   2.869  0.8982 -2.2182  1.3020
 8719SOL    HW227599   6.386   5.887   2.945 -1.0367  0.7227 -2.3457
 8720SOL     OW27600   7.982   2.090   3.096 -0.6121  0.5438  0.1598
 8720SOL    HW127601   7.909   2.112   3.037  0.5996 -0.1266 -1.7064
 8720SOL    HW227602   7.940   2.066   3.178 -2.5365 -0.0294 -0.9219
 8721SOL     OW27603   1.858   7.142   5.901  0.0322  0.4721  0.3581
 8721SOL    HW127604   1.823   7.075   5.960  1.2229 -0.1789  0.3594
 8721SOL    HW227605   1.782   7.173   5.852 -0.5577 -0.8580  0.3881
 8722SOL     OW27606   6.916   2.424   3.935  0.4133 -0.0344 -0.1513
 8722SOL    HW127607   6.908   2.515   3.906 -0.5511 -0.3528 -0.9555
 8722SOL    HW227608   6.844   2.412   3.997 -0.2249 -0.5622 -0.9619
 8723SOL     OW27609   2.885   3.562  10.793 -0.2576 -0.5738  0.4678
 8723SOL    HW127610   2.800   3.548  10.835 -0.2786  0.1683  0.6951
 8723SOL    HW227611   2.889   3.656  10.778  0.3852 -0.6441  0.1516
 8724SOL     OW27612   2.092   6.507   0.500 -0.2808  0.3616 -0.0759
 8724SOL    HW127613   2.047   6.424   0.518  1.0237 -0.0034  1.7613
 8724SOL    HW227614   2.032   6.554   0.441 -1.4433 -1.5042 -0.4744
 8725SOL     OW27615   6.139   5.988   3.355 -0.0930 -0.0743  0.4328
 8725SOL    HW127616   6.054   5.944   3.351  0.1293 -0.5447  0.7608
 8725SOL    HW227617   6.123   6.075   3.321 -0.9559  0.2010  1.4923
 8726SOL     OW27618   1.054   1.204   8.295 -0.3472 -0.3358 -0.2049
 8726SOL    HW127619   1.055   1.269   8.365 -0.9275  1.4350 -1.7526
 8726SOL    HW227620   1.009   1.129   8.333  0.7515 -0.0737  1.7985
 8727SOL     OW27621   7.132   2.109   6.965 -0.0399  0.8120  0.7281
 8727SOL    HW127622   7.116   2.107   7.060  0.7081  1.4013  0.8765
 8727SOL    HW227623   7.197   2.041   6.951 -0.9028  0.0206  0.4738
 8728SOL     OW27624   6.975   2.729   8.447 -0.3267  0.6993  0.8432
 8728SOL    HW127625   6.916   2.683   8.506 -1.2096 -2.4520 -2.1297
 8728SOL    HW227626   6.923   2.800   8.410 -1.7244 -0.7905 -0.2081
 8729SOL     OW27627   6.664   7.768  11.744 -0.6159  0.1568 -1.0019
 8729SOL    HW127628   6.650   7.722  11.661  0.7666 -2.3833  0.0521
 8729SOL    HW227629   6.598   7.730  11.803  0.0846  0.0323 -0.2887
 8730SOL     OW27630   0.671   0.112   4.437 -0.5792  0.4506  0.4194
 8730SOL    HW127631   0.763   0.103   4.460 -0.7710 -0.7183  0.8392
 8730SOL    HW227632   0.664   0.072   4.350 -0.3399  2.4334 -0.5674
 8731SOL     OW27633   0.735   7.377   2.376  0.7997 -0.0151 -0.2017
 8731SOL    HW127634   0.748   7.315   2.305  0.4348  0.2734 -0.5222
 8731SOL    HW227635   0.811   7.435   2.372  0.9865 -0.2510 -0.0941
 8732SOL     OW27636   4.838   7.307  11.019 -0.2387 -0.2163 -1.5205
 8732SOL    HW127637   4.757   7.333  10.974 -0.7494 -0.7680 -0.9558
 8732SOL    HW227638   4.808   7.248  11.089  0.4592  1.0129 -0.1227
 8733SOL     OW27639   1.306   0.707   8.000  0.2364 -0.3445 -0.3240
 8733SOL    HW127640   1.232   0.648   8.013  0.0038 -0.4210 -1.8024
 8733SOL    HW227641   1.365   0.659   7.941 -0.0665  0.9383 -1.7359
 8734SOL     OW27642   3.621   1.403   5.714 -0.1869  0.2116 -0.4781
 8734SOL    HW127643   3.670   1.359   5.784  0.5076  0.8474 -0.5417
 8734SOL    HW227644   3.544   1.439   5.758 -0.3059 -0.3184 -0.2544
 8735SOL     OW27645   4.637   5.062   3.374  0.3163  0.4430  0.3479
 8735SOL    HW127646   4.721   5.016   3.372  1.5326  2.4707  1.4452
 8735SOL    HW227647   4.574   4.995   3.399  1.6377 -1.0852 -0.2140
 8736SOL     OW27648   0.045   5.489   2.709  0.0663  0.7123 -0.1195
 8736SOL    HW127649  -0.000   5.454   2.786  2.3969 -0.4418  0.8452
 8736SOL    HW227650   0.013   5.578   2.700 -1.5913  0.2814  1.0839
 8737SOL     OW27651   1.136   3.184   0.097  0.0073  0.3068 -0.3743
 8737SOL    HW127652   1.120   3.264   0.047  0.5358  0.9614  0.4792
 8737SOL    HW227653   1.229   3.188   0.120  0.0884 -0.6529 -0.4944
 8738SOL     OW27654   7.648   3.723   1.668  0.4807 -0.4410 -0.1635
 8738SOL    HW127655   7.578   3.766   1.618  1.3643  0.2430 -0.8403
 8738SOL    HW227656   7.603   3.682   1.742 -0.7717 -0.9341 -1.1644
 8739SOL     OW27657   7.065   3.396   2.961  0.3304 -0.2539 -0.5320
 8739SOL    HW127658   7.041   3.346   3.038 -1.1164  1.9636  0.5301
 8739SOL    HW227659   7.070   3.331   2.891  1.2557 -2.2509  1.2762
 8740SOL     OW27660   7.024   7.933  12.473  0.7024  0.4338 -0.4233
 8740SOL    HW127661   6.985   7.910  12.557  0.8822  2.6898  0.3548
 8740SOL    HW227662   6.983   8.017  12.450  0.6941 -0.1106 -2.5744
 8741SOL     OW27663   3.545   3.538  11.761 -0.0126  0.1344 -0.1218
 8741SOL    HW127664   3.497   3.610  11.723 -0.4144 -0.1678 -0.1948
 8741SOL    HW227665   3.591   3.576  11.836  0.2303  0.5793 -0.4995
 8742SOL     OW27666   5.632   2.272  11.278  0.4516  0.3368 -0.4977
 8742SOL    HW127667   5.648   2.344  11.338  0.9278  0.2383 -0.5026
 8742SOL    HW227668   5.696   2.285  11.208 -2.1718  2.3671 -2.7486
 8743SOL     OW27669   7.228   0.616   9.540 -0.3025 -0.0837 -0.6106
 8743SOL    HW127670   7.208   0.580   9.454 -1.2386  0.4199 -0.6231
 8743SOL    HW227671   7.148   0.601   9.591 -0.2614  0.8334 -0.2487
 8744SOL     OW27672   6.676   7.633   6.254 -0.2474  0.4220  0.0320
 8744SOL    HW127673   6.705   7.707   6.308 -0.4641 -0.6303  1.6718
 8744SOL    HW227674   6.756   7.587   6.231 -0.2774 -0.2741  1.2343
 8745SOL     OW27675   6.653   4.831   0.781 -0.2354 -0.1667 -0.1152
 8745SOL    HW127676   6.688   4.742   0.790 -1.6767 -0.7869 -0.4186
 8745SOL    HW227677   6.700   4.867   0.705  1.2054 -0.2171  0.7112
 8746SOL     OW27678   0.570   6.422   2.899  0.1022  0.1618  0.2356
 8746SOL    HW127679   0.661   6.443   2.875  0.8356 -0.2670  2.4442
 8746SOL    HW227680   0.556   6.334   2.864  0.6708  0.0665  0.2366
 8747SOL     OW27681   1.867   4.914   2.739  0.8460 -0.0499 -0.1640
 8747SOL    HW127682   1.795   4.872   2.692  2.4149 -2.8491 -0.2956
 8747SOL    HW227683   1.842   4.907   2.832  1.0945 -1.4255 -0.1781
 8748SOL     OW27684   1.036   3.311   4.444  0.5049  0.2314  0.3999
 8748SOL    HW127685   1.081   3.226   4.449  1.7937  0.9580  3.1444
 8748SOL    HW227686   0.958   3.300   4.498 -1.5752 -0.3276 -2.5197
 8749SOL     OW27687   1.123   1.133   6.288  0.1068 -0.3846  0.2488
 8749SOL    HW127688   1.154   1.094   6.206 -0.7659  0.7345 -0.6562
 8749SOL    HW227689   1.201   1.170   6.328  0.5887 -1.1741  0.0636
 8750SOL     OW27690   6.286   0.930   4.951 -0.7655 -0.0508  0.3305
 8750SOL    HW127691   6.333   1.011   4.929 -1.9641  0.2315 -1.3871
 8750SOL    HW227692   6.354   0.873   4.988  0.7620  0.6947 -1.1398
 8751SOL     OW27693   3.640   0.836   4.879  0.4098 -0.4787  0.1623
 8751SOL    HW127694   3.671   0.871   4.796 -0.3248 -0.4442 -0.0973
 8751SOL    HW227695   3.560   0.789   4.858  1.2647 -2.2027  0.5357
 8752SOL     OW27696   0.549   5.731   3.313 -0.0283 -0.1790  0.3126
 8752SOL    HW127697   0.639   5.741   3.284 -0.6783 -1.5204 -2.5897
 8752SOL    HW227698   0.509   5.816   3.297  0.1199 -0.3400 -0.9940
 8753SOL     OW27699   6.144   4.794   7.920  0.7940  0.1146 -0.0096
 8753SOL    HW127700   6.170   4.726   7.858 -1.4562  2.0590 -3.4902
 8753SOL    HW227701   6.104   4.747   7.993  1.7093 -2.3014 -0.9710
 8754SOL     OW27702   6.678   6.938   0.110  0.2080 -0.0938  0.1757
 8754SOL    HW127703   6.598   6.977   0.146 -0.0693 -1.8491  1.6265
 8754SOL    HW227704   6.733   6.921   0.186  1.2324 -0.4841 -0.6299
 8755SOL     OW27705   0.490   6.069  10.475  0.2123 -0.3002 -0.1231
 8755SOL    HW127706   0.507   5.976  10.490  1.6060 -0.0922 -0.3035
 8755SOL    HW227707   0.396   6.079  10.489 -0.1144 -1.9055 -0.9852
 8756SOL     OW27708   5.655   3.455   9.241 -0.3994 -0.2383  0.4554
 8756SOL    HW127709   5.574   3.455   9.292 -1.2639 -1.2741 -0.8401
 8756SOL    HW227710   5.629   3.421   9.156  0.5440  3.2402 -1.4184
 8757SOL     OW27711   1.592   3.188   2.459  0.0479 -0.0779 -0.0531
 8757SOL    HW127712   1.609   3.137   2.380 -0.9621 -2.1851  0.9922
 8757SOL    HW227713   1.497   3.194   2.463  0.0166 -1.0276  1.5591
 8758SOL     OW27714   6.120   0.091   3.926  0.1319 -0.6481  0.0635
 8758SOL    HW127715   6.075   0.064   4.006 -1.0518  0.1661 -0.3070
 8758SOL    HW227716   6.081   0.038   3.857 -0.5771  0.3256 -0.3158
 8759SOL     OW27717   6.137   2.010  11.686 -0.8069  0.6614 -0.0701
 8759SOL    HW127718   6.143   2.022  11.781  1.0576 -2.5284  0.3693
 8759SOL    HW227719   6.044   1.998  11.669 -1.0253 -0.3946  1.6584
 8760SOL     OW27720   7.686   7.017   0.101 -0.1149  0.1775  0.0100
 8760SOL    HW127721   7.733   6.990   0.180  0.8830  0.7949 -0.3467
 8760SOL    HW227722   7.629   7.088   0.130  0.4461  0.5818  0.1306
 8761SOL     OW27723   2.413   5.142  11.769  0.2333 -0.0162 -0.1118
 8761SOL    HW127724   2.414   5.123  11.863 -0.5711 -1.8423 -0.4220
 8761SOL    HW227725   2.320   5.139  11.746  0.5136 -1.1763 -1.2217
 8762SOL     OW27726   5.715   4.948   0.909  0.1939  0.4149 -0.0546
 8762SOL    HW127727   5.675   4.907   0.985  2.5451 -1.6971  0.1756
 8762SOL    HW227728   5.723   4.878   0.844  0.5899  1.5281 -1.2595
 8763SOL     OW27729   7.089   5.730  12.406  0.0224  0.3243 -0.2914
 8763SOL    HW127730   7.037   5.656  12.439 -0.9656  0.3683 -1.6773
 8763SOL    HW227731   7.044   5.807  12.442  1.0056  0.2935  1.0875
 8764SOL     OW27732   6.653   7.497  12.336 -0.0277  0.2036 -0.3848
 8764SOL    HW127733   6.717   7.447  12.286  1.8200  1.3129  0.7228
 8764SOL    HW227734   6.590   7.432  12.367  0.7969 -1.0086 -1.1578
 8765SOL     OW27735   1.267   6.957  10.560  1.0006 -0.3346 -0.1145
 8765SOL    HW127736   1.262   6.862  10.572  0.0198 -0.2330  0.3362
 8765SOL    HW227737   1.350   6.982  10.600  0.2461 -0.7178  1.7825
 8766SOL     OW27738   5.561   2.531   5.855  0.6888 -0.2150  0.1716
 8766SOL    HW127739   5.641   2.486   5.829  0.3941 -0.2637 -0.6836
 8766SOL    HW227740   5.502   2.519   5.780  0.0063  0.1127  0.6515
 8767SOL     OW27741   5.461   4.896   2.281 -0.1099 -0.0378 -0.2398
 8767SOL    HW127742   5.378   4.850   2.290 -0.9764  1.4436 -0.3705
 8767SOL    HW227743   5.527   4.826   2.276 -1.5029 -1.3010 -1.9347
 8768SOL     OW27744   1.467   1.500   2.484 -0.1903  0.1631  0.1637
 8768SOL    HW127745   1.497   1.544   2.564  1.0958 -0.1060 -0.1380
 8768SOL    HW227746   1.373   1.516   2.481  0.0539  1.8487  0.6889
 8769SOL     OW27747   2.304   4.228   7.366 -0.4074  0.3191  0.2374
 8769SOL    HW127748   2.341   4.237   7.278  0.7431  0.5469  0.7283
 8769SOL    HW227749   2.354   4.158   7.407 -0.7127  0.4357  0.8297
 8770SOL     OW27750   3.099   4.257   0.991  0.0944  0.4008 -0.2767
 8770SOL    HW127751   3.046   4.272   1.069 -0.7507 -0.4113 -0.6610
 8770SOL    HW227752   3.173   4.317   0.999  0.4002 -0.1655  1.4883
 8771SOL     OW27753   3.983   3.473   1.127 -0.5032 -0.1832  0.3605
 8771SOL    HW127754   4.028   3.390   1.108  3.0617  1.6149  0.1733
 8771SOL    HW227755   3.983   3.520   1.044 -0.8555  0.7170  0.8626
 8772SOL     OW27756   3.465   2.808   0.788 -0.6319 -0.4006  0.4873
 8772SOL    HW127757   3.384   2.850   0.818 -1.3131 -2.6723  2.1305
 8772SOL    HW227758   3.454   2.716   0.813  1.6459 -1.1593 -1.0355
 8773SOL     OW27759   3.069   5.876   7.916  0.0166 -0.3001 -0.1217
 8773SOL    HW127760   3.143   5.926   7.950 -1.3087  1.5277  0.2277
 8773SOL    HW227761   3.071   5.794   7.965  1.3719 -0.0016  0.3716
 8774SOL     OW27762   3.865   7.847   9.917 -0.0014 -0.4180  0.0672
 8774SOL    HW127763   3.871   7.940   9.941 -0.0745  0.1372 -1.8701
 8774SOL    HW227764   3.782   7.841   9.869  0.3698 -1.3187 -0.4731
 8775SOL     OW27765   3.772   2.763   9.816  0.4198  0.1931  0.2062
 8775SOL    HW127766   3.827   2.716   9.753  0.3321  0.6358 -0.2067
 8775SOL    HW227767   3.780   2.713   9.897  0.6894 -0.2726 -0.1052
 8776SOL     OW27768   0.072   7.680  12.268 -0.4316  0.3849 -0.0811
 8776SOL    HW127769   0.117   7.762  12.289 -1.5067  1.0965 -0.4822
 8776SOL    HW227770   0.089   7.623  12.343  0.8668  0.7339 -0.0829
 8777SOL     OW27771   6.099   2.602   2.375  0.5113 -0.3065  0.0780
 8777SOL    HW127772   6.157   2.580   2.302  1.7314 -1.2742  1.2899
 8777SOL    HW227773   6.018   2.554   2.356  1.2368 -1.5283 -0.0729
 8778SOL     OW27774   4.566   1.749  12.407 -0.2892 -0.0351  0.0621
 8778SOL    HW127775   4.600   1.779  12.491 -0.4114  1.5331 -0.4107
 8778SOL    HW227776   4.506   1.818  12.379  0.1776 -0.2384 -1.5783
 8779SOL     OW27777   6.376   1.213   6.624 -0.1999  0.1453  0.2982
 8779SOL    HW127778   6.466   1.237   6.646 -0.1594  1.6648 -1.2541
 8779SOL    HW227779   6.333   1.297   6.608 -1.4757 -0.6278 -0.4975
 8780SOL     OW27780   7.676   0.249   2.218  0.2936  0.3441  0.2776
 8780SOL    HW127781   7.692   0.165   2.174  2.2196  0.2239  1.1263
 8780SOL    HW227782   7.672   0.313   2.147 -3.5274 -0.6312 -0.6415
 8781SOL     OW27783   3.202   1.213   8.570  0.1906 -0.0197  0.1742
 8781SOL    HW127784   3.119   1.226   8.616  0.3582  1.3849  0.0978
 8781SOL    HW227785   3.178   1.167   8.490 -0.6385  1.1633 -0.2739
 8782SOL     OW27786   3.029   0.268   1.013 -0.0634  0.3511 -0.0308
 8782SOL    HW127787   3.080   0.237   1.088 -0.1574 -0.7708 -0.4196
 8782SOL    HW227788   2.968   0.197   0.994 -0.1086  0.6645 -1.1155
 8783SOL     OW27789   3.213   7.788   9.749  0.2609 -0.2285  0.5533
 8783SOL    HW127790   3.278   7.856   9.763  1.3424 -1.0909 -0.0891
 8783SOL    HW227791   3.187   7.760   9.837  0.9248 -0.0270  0.8162
 8784SOL     OW27792   4.488   7.925   1.393 -0.3516 -0.0973 -0.1956
 8784SOL    HW127793   4.490   7.888   1.481  2.0204  0.0911 -0.1182
 8784SOL    HW227794   4.572   7.969   1.384 -0.9968  0.8236 -2.1789
 8785SOL     OW27795   4.492   7.628  12.034  0.4122  0.0665 -0.1843
 8785SOL    HW127796   4.423   7.577  12.077  0.2699 -0.4086 -0.9580
 8785SOL    HW227797   4.544   7.563  11.986  1.7525  0.3386  0.8316
 8786SOL     OW27798   4.056   0.113  11.561 -0.6384 -0.2127 -0.3962
 8786SOL    HW127799   3.994   0.047  11.532  2.5810 -3.3306 -0.7890
 8786SOL    HW227800   4.114   0.126  11.486  0.6354  0.7536  0.7172
 8787SOL     OW27801   3.550   6.965   4.806 -0.5303 -0.0788  0.1207
 8787SOL    HW127802   3.495   6.895   4.841  1.0021 -0.8680  1.0437
 8787SOL    HW227803   3.561   7.026   4.880 -0.0037 -0.0419  0.0181
 8788SOL     OW27804   3.652   0.310   3.588  0.9787 -0.6968 -0.0908
 8788SOL    HW127805   3.596   0.372   3.634  1.7257 -0.8171  1.0225
 8788SOL    HW227806   3.707   0.365   3.532  1.2193 -0.4010  0.4287
 8789SOL     OW27807   7.891   3.652  10.836  0.0924 -0.1753 -0.2905
 8789SOL    HW127808   7.951   3.589  10.797 -0.4750 -0.4139 -0.7880
 8789SOL    HW227809   7.938   3.685  10.913  0.0976 -1.7675  0.4183
 8790SOL     OW27810   7.217   4.240  10.594  0.2874 -0.5712  0.0753
 8790SOL    HW127811   7.126   4.216  10.612  0.0853 -1.1646 -1.5424
 8790SOL    HW227812   7.263   4.223  10.676 -0.6578 -2.4663  0.2691
 8791SOL     OW27813   4.550   0.017   2.424 -0.4697  0.0453 -0.1511
 8791SOL    HW127814   4.540   0.054   2.336  0.3634 -1.2210 -0.8006
 8791SOL    HW227815   4.556  -0.077   2.410  1.2917 -0.0701  1.1101
 8792SOL     OW27816   2.742   3.067   8.446  0.2961  0.4025 -0.1099
 8792SOL    HW127817   2.793   3.005   8.500 -0.8617 -0.6301 -0.1659
 8792SOL    HW227818   2.778   3.153   8.469  1.1252 -0.1797  0.8790
 8793SOL     OW27819   4.317   5.459   9.633 -0.3486 -0.3508 -0.4485
 8793SOL    HW127820   4.338   5.486   9.723  0.1834 -0.9164 -0.4002
 8793SOL    HW227821   4.396   5.480   9.583 -0.3498 -0.7789 -0.6291
 8794SOL     OW27822   7.030   3.165   4.916  0.5023 -0.3011  0.0041
 8794SOL    HW127823   6.995   3.080   4.887 -1.4288  0.9783 -1.7818
 8794SOL    HW227824   6.985   3.182   4.999  1.8063 -1.5072  0.9968
 8795SOL     OW27825   3.749   3.468   4.219  0.0412  0.5124 -0.1354
 8795SOL    HW127826   3.687   3.396   4.203  0.1867  0.4947 -0.6577
 8795SOL    HW227827   3.799   3.441   4.295 -0.4464  0.4234  0.1566
 8796SOL     OW27828   2.296   0.679   4.657 -0.1645  0.3721  0.1592
 8796SOL    HW127829   2.344   0.724   4.588  0.4419  0.8842  0.9021
 8796SOL    HW227830   2.350   0.689   4.736 -0.4082 -0.9585  0.5320
 8797SOL     OW27831   2.701   1.273   2.045 -0.2189 -0.3554  0.3187
 8797SOL    HW127832   2.757   1.350   2.034  1.3796 -1.3154  1.2943
 8797SOL    HW227833   2.635   1.300   2.108  1.5521 -0.3197  2.2777
 8798SOL     OW27834   6.696   2.953   2.907 -0.0603 -0.0633  0.4876
 8798SOL    HW127835   6.745   2.915   2.834  0.7514  1.9714 -0.1011
 8798SOL    HW227836   6.604   2.951   2.877 -0.1390 -1.9302  0.7030
 8799SOL     OW27837   6.972   4.686  10.136  0.3181 -0.0707  0.0342
 8799SOL    HW127838   6.891   4.732  10.116  0.5553  0.3803  0.0920
 8799SOL    HW227839   6.962   4.660  10.228  0.3135  0.1505  0.0985
 8800SOL     OW27840   1.439   4.578   4.833  0.1149  0.0481 -0.6514
 8800SOL    HW127841   1.483   4.626   4.763  2.6713  0.4401  1.0743
 8800SOL    HW227842   1.422   4.491   4.795  0.9811  0.3955 -1.9059
 8801SOL     OW27843   1.525   6.377   0.770 -0.0567  0.5310  0.9662
 8801SOL    HW127844   1.611   6.397   0.808  0.4201 -0.7657  0.6108
 8801SOL    HW227845   1.486   6.315   0.831 -0.4938  0.6432  0.8022
 8802SOL     OW27846   7.930   7.899   8.494 -0.4255  0.7591 -0.4076
 8802SOL    HW127847   7.848   7.912   8.446  0.0509  1.2777 -1.0800
 8802SOL    HW227848   7.902   7.896   8.586 -1.4229 -0.9060 -0.7083
 8803SOL     OW27849   4.328   5.780  10.259 -0.1509  0.1294  0.4109
 8803SOL    HW127850   4.294   5.719  10.193 -0.0874  0.5263  0.0061
 8803SOL    HW227851   4.397   5.827  10.213  0.0850  0.2102  0.8524
 8804SOL     OW27852   7.861   0.342   9.049 -0.0192 -0.2601 -0.2981
 8804SOL    HW127853   7.928   0.378   9.107  0.0843 -0.2489 -0.4258
 8804SOL    HW227854   7.778   0.360   9.094 -0.0343  0.8906 -0.7637
 8805SOL     OW27855   5.842   4.324   5.649  0.0544 -0.5487  0.0544
 8805SOL    HW127856   5.759   4.302   5.607  0.3123  0.6555 -1.1553
 8805SOL    HW227857   5.881   4.390   5.592  0.9675  0.3005  1.5787
 8806SOL     OW27858   5.220   3.853   3.699  0.3935  0.0307 -0.4308
 8806SOL    HW127859   5.294   3.896   3.657 -0.8944  1.0447 -1.7366
 8806SOL    HW227860   5.154   3.921   3.708 -1.6021 -1.5163 -2.2909
 8807SOL     OW27861   1.688   7.508   2.017 -0.4100  0.1467  0.4013
 8807SOL    HW127862   1.765   7.483   2.067  0.7259 -0.2314 -1.4136
 8807SOL    HW227863   1.710   7.593   1.979 -0.8567  0.0160 -0.1676
 8808SOL     OW27864   4.757   2.459   6.052 -0.0658 -0.2341  0.1349
 8808SOL    HW127865   4.729   2.410   6.130 -2.9579 -1.3214 -1.4373
 8808SOL    HW227866   4.842   2.420   6.029  0.1533 -0.8904  1.8700
 8809SOL     OW27867   3.883   3.810   0.242 -0.1722 -0.0937  0.0878
 8809SOL    HW127868   3.916   3.887   0.288 -0.7441 -0.5030  1.2044
 8809SOL    HW227869   3.962   3.765   0.211  0.3486 -0.9079  2.4524
 8810SOL     OW27870   7.219   0.419   8.771 -0.0468  0.0089 -0.0619
 8810SOL    HW127871   7.215   0.372   8.688  0.9338  0.7201 -0.5236
 8810SOL    HW227872   7.223   0.350   8.837  0.2471 -0.5641 -0.6675
 8811SOL     OW27873   7.345   0.709   2.857 -0.4698  0.4677  0.0676
 8811SOL    HW127874   7.255   0.682   2.842  0.3354 -2.1146 -0.5923
 8811SOL    HW227875   7.347   0.739   2.948 -1.6859 -0.9150  0.5768
 8812SOL     OW27876   6.455   4.661   2.764  0.0138  0.3946 -0.1721
 8812SOL    HW127877   6.396   4.588   2.782 -0.5791  1.1621  1.2247
 8812SOL    HW227878   6.475   4.654   2.671  0.0301 -1.5612 -0.0511
 8813SOL     OW27879   7.761   4.041   6.427 -0.1761 -0.4773  0.2568
 8813SOL    HW127880   7.671   4.069   6.418 -0.4368 -1.8608 -2.6101
 8813SOL    HW227881   7.756   3.946   6.437  0.9434 -0.5340  0.4962
 8814SOL     OW27882   3.639   2.084   4.512  0.4140  0.0794 -0.2282
 8814SOL    HW127883   3.662   2.135   4.590 -2.5055 -1.3608  1.7751
 8814SOL    HW227884   3.550   2.113   4.490  0.1620 -1.4486 -1.3805
 8815SOL     OW27885   6.675   1.144   9.591  0.2893 -0.3293 -0.4419
 8815SOL    HW127886   6.614   1.116   9.659  2.0696  0.9379  1.7982
 8815SOL    HW227887   6.753   1.091   9.607  1.6407  1.7653  0.2026
 8816SOL     OW27888   2.708   3.834   4.647  0.1512  0.3883 -0.1087
 8816SOL    HW127889   2.725   3.749   4.607  1.1264 -0.1490  1.3357
 8816SOL    HW227890   2.759   3.832   4.729  0.4516  2.4887 -0.1929
 8817SOL     OW27891   6.113   2.978   7.920  0.3381  0.5835 -0.5871
 8817SOL    HW127892   6.173   3.005   7.851 -0.3169  1.9114 -0.6849
 8817SOL    HW227893   6.151   3.015   8.000 -0.1522  1.1304 -0.6001
 8818SOL     OW27894   0.941   0.928   4.481 -0.2497  0.1771 -0.7662
 8818SOL    HW127895   0.976   0.873   4.552 -1.5096  0.1550 -0.1205
 8818SOL    HW227896   0.894   0.867   4.425  2.5295 -0.1759 -2.9260
 8819SOL     OW27897   2.608   6.609   0.107  0.1685  0.4634  0.1361
 8819SOL    HW127898   2.540   6.631   0.043  0.9369  1.0281 -0.5037
 8819SOL    HW227899   2.602   6.514   0.116 -0.3168  0.4424 -0.3523
 8820SOL     OW27900   1.423   5.908   1.110  0.5930 -0.2790  0.3585
 8820SOL    HW127901   1.453   5.984   1.159  2.2768 -1.8312  1.8761
 8820SOL    HW227902   1.503   5.869   1.074 -0.4020 -0.3329 -2.0057
 8821SOL     OW27903   4.592   6.651  11.265  0.3114 -0.0066  0.4197
 8821SOL    HW127904   4.497   6.654  11.272  0.3612  0.6213  0.9545
 8821SOL    HW227905   4.616   6.565  11.301 -0.0653 -0.2802  0.0280
 8822SOL     OW27906   1.299   5.419   9.447 -0.4047 -0.7967  0.0067
 8822SOL    HW127907   1.360   5.489   9.469 -0.6747  0.3485 -2.5630
 8822SOL    HW227908   1.214   5.462   9.441 -0.4421 -1.0652 -2.4781
 8823SOL     OW27909   7.854   5.513  12.372 -0.2325  0.0704  0.3212
 8823SOL    HW127910   7.842   5.527  12.466  0.9427 -0.8637  0.6392
 8823SOL    HW227911   7.834   5.598  12.333  1.7350  1.2571  1.6678
 8824SOL     OW27912   3.258   6.429   2.064 -0.2017  0.3874 -0.1497
 8824SOL    HW127913   3.198   6.431   2.138  2.4353 -0.0858  2.1943
 8824SOL    HW227914   3.247   6.342   2.026 -0.4521  0.0250  0.7364
 8825SOL     OW27915   6.536   7.490   6.738  0.3419 -0.0162  0.3901
 8825SOL    HW127916   6.515   7.580   6.713 -0.1937  0.2158  1.6434
 8825SOL    HW227917   6.590   7.499   6.816 -0.9399 -0.8113  1.4002
 8826SOL     OW27918   2.060   0.551   5.492 -0.0531  0.2934  0.1608
 8826SOL    HW127919   2.085   0.549   5.400  0.6228 -3.5096  0.2637
 8826SOL    HW227920   2.138   0.521   5.539 -0.9776  0.3207  1.7761
 8827SOL     OW27921   0.541   4.298   7.849  0.3650 -0.6240 -0.0346
 8827SOL    HW127922   0.597   4.328   7.777 -0.5788  1.3629 -0.0102
 8827SOL    HW227923   0.602   4.262   7.913  1.2632 -2.0576 -1.6263
 8828SOL     OW27924   0.221   3.512   5.920 -0.4247  0.1281 -0.3666
 8828SOL    HW127925   0.152   3.576   5.903 -2.3983 -1.2719  1.7058
 8828SOL    HW227926   0.193   3.434   5.873 -1.6013 -1.1656  2.2475
 8829SOL     OW27927   3.757   6.800   7.663 -0.3351  0.3478 -0.6119
 8829SOL    HW127928   3.803   6.759   7.736  1.1660  1.1311 -1.0873
 8829SOL    HW227929   3.781   6.747   7.587 -0.2593  0.7406 -0.8607
 8830SOL     OW27930   4.835   6.375   8.531 -0.0044 -0.1633  0.4190
 8830SOL    HW127931   4.925   6.403   8.514  0.0183 -1.3644 -1.7464
 8830SOL    HW227932   4.789   6.456   8.555  1.6208  0.4578  1.6836
 8831SOL     OW27933   7.729   7.308   5.714 -0.0659 -0.6020  0.0528
 8831SOL    HW127934   7.754   7.287   5.624  0.9944 -0.5450  0.3197
 8831SOL    HW227935   7.634   7.321   5.710 -0.1195 -1.1987 -0.9328
 8832SOL     OW27936   5.572   2.375   0.703 -0.4336 -0.0534 -0.0883
 8832SOL    HW127937   5.479   2.394   0.691  0.2146  2.4946 -1.8868
 8832SOL    HW227938   5.610   2.387   0.615  1.7169 -0.2034  0.7600
 8833SOL     OW27939   2.019   7.696   9.414  0.1034  0.3391 -0.2695
 8833SOL    HW127940   1.939   7.736   9.381  0.0061  0.3304 -0.0477
 8833SOL    HW227941   2.077   7.691   9.338  0.0520  0.7424 -0.3369
 8834SOL     OW27942   0.345   2.009   1.320  0.4420 -0.2536  0.3391
 8834SOL    HW127943   0.432   1.984   1.287  1.3333  0.6842  1.8584
 8834SOL    HW227944   0.297   1.926   1.324  0.2743 -0.4601 -3.0601
 8835SOL     OW27945   7.318   3.627   0.449  0.3160  0.5786  0.4039
 8835SOL    HW127946   7.288   3.698   0.506 -1.8126 -0.8150  1.1414
 8835SOL    HW227947   7.272   3.641   0.367 -1.0944 -0.5909  0.9601
 8836SOL     OW27948   7.105   4.084   5.880 -0.4385 -0.2875  0.1400
 8836SOL    HW127949   7.011   4.095   5.866 -0.0896  2.4733 -0.7175
 8836SOL    HW227950   7.122   4.131   5.962  0.3602  0.4399 -0.4260
 8837SOL     OW27951   6.113   4.528   1.748  0.0588 -0.5194  0.3158
 8837SOL    HW127952   6.148   4.448   1.788 -0.1859 -1.0119 -0.4226
 8837SOL    HW227953   6.029   4.501   1.711  0.9773 -0.5066 -1.9107
 8838SOL     OW27954   5.841   7.302   5.754  0.0151  0.0150  0.3652
 8838SOL    HW127955   5.856   7.349   5.836  0.4584 -1.3833  1.1097
 8838SOL    HW227956   5.899   7.346   5.691  1.1877 -0.1562  1.2847
 8839SOL     OW27957   2.149   7.280   1.916 -0.3605  0.0484 -0.0013
 8839SOL    HW127958   2.066   7.285   1.869 -0.4244 -1.0877 -0.0455
 8839SOL    HW227959   2.166   7.369   1.945 -1.9867  0.1587  0.6797
 8840SOL     OW27960   4.831   6.555   2.970 -0.0209 -0.0459  0.2525
 8840SOL    HW127961   4.818   6.472   3.015 -0.2821  0.3941  1.0229
 8840SOL    HW227962   4.896   6.537   2.903 -0.1585 -0.8914  0.3429
 8841SOL     OW27963   4.610   1.067  11.383 -0.1861  0.4541 -0.0261
 8841SOL    HW127964   4.665   0.993  11.357  0.2992  1.0496 -0.7131
 8841SOL    HW227965   4.539   1.027  11.433 -0.5695 -0.6090 -1.3738
 8842SOL     OW27966   0.495   0.812  12.204 -0.3450  0.2791  0.3374
 8842SOL    HW127967   0.495   0.721  12.176 -1.3331  0.0672  0.9687
 8842SOL    HW227968   0.417   0.821  12.258  1.2125  0.7824  2.6575
 8843SOL     OW27969   0.668   1.960   7.037 -0.3919  0.1856 -0.4115
 8843SOL    HW127970   0.580   1.924   7.045 -0.1324 -0.3395  0.1321
 8843SOL    HW227971   0.704   1.955   7.125  0.3812 -0.1093 -0.7356
 8844SOL     OW27972   2.140   4.035   4.135  0.8938  0.0635  0.2864
 8844SOL    HW127973   2.072   4.060   4.073  2.0420 -0.8156 -1.4004
 8844SOL    HW227974   2.189   4.115   4.151  0.2247  0.4247  0.5481
 8845SOL     OW27975   4.952   6.292   2.548 -0.3991  0.1244  0.6009
 8845SOL    HW127976   4.993   6.378   2.543 -0.3432  0.1410  1.2880
 8845SOL    HW227977   5.007   6.242   2.608 -0.2803 -0.4818  0.0020
 8846SOL     OW27978   5.989   4.751   2.787 -0.0045 -0.3016 -0.5369
 8846SOL    HW127979   5.998   4.766   2.693 -1.6083 -0.8314 -0.8032
 8846SOL    HW227980   6.041   4.820   2.828 -0.1865  0.6007 -1.7917
 8847SOL     OW27981   3.807   2.033   8.902 -0.1472  0.1330  0.3251
 8847SOL    HW127982   3.744   2.037   8.830 -1.4530  0.0240  1.4289
 8847SOL    HW227983   3.878   2.092   8.875 -1.4278  1.4420 -0.2868
 8848SOL     OW27984   7.162   5.921   1.359 -0.3595  0.1874 -0.0522
 8848SOL    HW127985   7.082   5.882   1.395  0.1858 -0.2867  0.6746
 8848SOL    HW227986   7.173   6.002   1.407  0.1190 -0.2211  0.5352
 8849SOL     OW27987   3.000   4.838   0.496  0.4500 -0.1791  0.3646
 8849SOL    HW127988   2.975   4.925   0.466  1.0659 -0.7510 -2.0465
 8849SOL    HW227989   2.934   4.779   0.458  2.8152 -1.2362 -2.5358
 8850SOL     OW27990   1.077   7.515   6.207 -0.0204  0.2727  0.3164
 8850SOL    HW127991   1.148   7.528   6.270 -0.0906  2.1095  0.0674
 8850SOL    HW227992   1.058   7.422   6.212  0.1039  0.3123  2.8631
 8851SOL     OW27993   4.437   6.497   9.046 -0.6178  0.0834 -0.0267
 8851SOL    HW127994   4.344   6.486   9.026 -0.3928 -0.5167 -0.7884
 8851SOL    HW227995   4.479   6.419   9.010  0.1455  0.2004  0.5841
 8852SOL     OW27996   1.021   0.303   1.552  0.3695 -0.3095 -0.5855
 8852SOL    HW127997   0.955   0.256   1.604 -0.4340  0.4902 -0.8573
 8852SOL    HW227998   1.018   0.393   1.586 -0.6987  0.4325 -2.4459
 8853SOL     OW27999   7.303   7.577   1.621  0.1238 -0.0406  0.0931
 8853SOL    HW128000   7.272   7.507   1.678  0.3353  0.7953  1.2633
 8853SOL    HW228001   7.223   7.615   1.584  0.0354 -1.3919 -1.2093
 8854SOL     OW28002   4.873   1.359   1.974 -0.5823 -0.1787  0.4360
 8854SOL    HW128003   4.926   1.429   1.936 -1.5705  0.6963  0.6567
 8854SOL    HW228004   4.892   1.363   2.068 -0.8073 -0.0795  0.4754
 8855SOL     OW28005   4.344   1.687   7.095  0.1756  0.2548  0.0380
 8855SOL    HW128006   4.278   1.640   7.045 -0.5005  0.1772  0.9863
 8855SOL    HW228007   4.294   1.741   7.156  0.9917  0.1665  0.7952
 8856SOL     OW28008   1.571   0.071   4.534 -0.0645 -0.1928  0.2779
 8856SOL    HW128009   1.501   0.041   4.476 -0.0529  0.1297  0.0985
 8856SOL    HW228010   1.553   0.027   4.618  0.2625 -1.1325 -0.1255
 8857SOL     OW28011   3.884   2.031   3.654 -0.6781  0.1343 -0.6148
 8857SOL    HW128012   3.874   2.065   3.565 -0.8922 -1.0733 -1.0765
 8857SOL    HW228013   3.945   1.957   3.644 -0.7146 -0.0176  0.2392
 8858SOL     OW28014   0.171   3.574   4.927 -0.3146 -0.3710 -0.0034
 8858SOL    HW128015   0.115   3.558   5.004  0.7844 -1.6295  0.5777
 8858SOL    HW228016   0.257   3.592   4.963  0.0191 -0.0548 -0.9345
 8859SOL     OW28017   2.495   4.275   3.274  0.5490  0.6696  0.0035
 8859SOL    HW128018   2.524   4.236   3.357 -0.6204 -0.8500 -0.2758
 8859SOL    HW228019   2.486   4.368   3.294  1.6995  0.5621  1.1742
 8860SOL     OW28020   1.273   2.699  11.049  0.5767 -0.0294 -0.4650
 8860SOL    HW128021   1.362   2.673  11.073  0.4687  0.9130  1.0895
 8860SOL    HW228022   1.220   2.672  11.124 -0.1836  0.7925 -0.6952
 8861SOL     OW28023   2.522   5.964   2.053 -0.3385  0.6255  0.1603
 8861SOL    HW128024   2.609   5.997   2.032 -0.1602  0.4670  0.6314
 8861SOL    HW228025   2.511   5.889   1.995  0.1572  0.1806  0.6207
 8862SOL     OW28026   3.732   4.077  11.832  0.5964 -0.1387  0.1434
 8862SOL    HW128027   3.720   3.999  11.778 -0.4126  1.4179 -2.0585
 8862SOL    HW228028   3.658   4.075  11.893  1.7594 -1.9366  1.5841
 8863SOL     OW28029   2.476   5.900   3.419  0.5812 -0.1026  0.0245
 8863SOL    HW128030   2.497   5.816   3.459 -0.7654 -0.5186 -0.0780
 8863SOL    HW228031   2.413   5.879   3.350  0.6652  0.9238 -0.3854
 8864SOL     OW28032   5.437   7.328   6.241 -0.5594  0.0009 -0.0333
 8864SOL    HW128033   5.366   7.366   6.292  0.0802  0.7537  0.3215
 8864SOL    HW228034   5.399   7.250   6.201 -1.5161  0.2741  0.3204
 8865SOL     OW28035   4.657   4.111  12.364 -0.1770  0.1582 -0.7289
 8865SOL    HW128036   4.674   4.018  12.349  0.6428  0.4290 -1.5812
 8865SOL    HW228037   4.732   4.156  12.325 -0.5150  1.1776 -0.2467
 8866SOL     OW28038   1.449   5.806  10.677  0.5165 -0.0038  0.0967
 8866SOL    HW128039   1.359   5.811  10.644  0.1158 -1.1125  0.9860
 8866SOL    HW228040   1.491   5.886  10.643 -0.3810 -0.1839 -1.5427
 8867SOL     OW28041   7.030   0.981  12.400 -0.2423  0.1479 -0.3601
 8867SOL    HW128042   7.044   1.048  12.333  0.9062 -0.0962 -0.3760
 8867SOL    HW228043   7.038   0.898  12.354 -1.6619 -0.0265 -0.3373
 8868SOL     OW28044   7.268   0.730   6.465 -0.2765  0.0468  0.1905
 8868SOL    HW128045   7.336   0.760   6.526  0.2777 -0.5303 -0.1374
 8868SOL    HW228046   7.210   0.677   6.519  0.2103 -0.4577  0.2250
 8869SOL     OW28047   4.206   3.377   1.656  0.4681 -0.4827  0.4453
 8869SOL    HW128048   4.248   3.414   1.578  0.4083  0.3897  0.8065
 8869SOL    HW228049   4.228   3.284   1.655  1.1721 -0.3109 -0.1586
 8870SOL     OW28050   1.128   3.185  11.061 -0.3026  0.1714  0.0713
 8870SOL    HW128051   1.195   3.119  11.077 -0.3902  0.0735  0.0342
 8870SOL    HW228052   1.056   3.160  11.118 -1.4695 -1.4090 -1.9331
 8871SOL     OW28053   4.054   6.766   7.767 -0.4531 -0.0720  0.6814
 8871SOL    HW128054   4.008   6.688   7.737 -0.8098  0.2428  0.3972
 8871SOL    HW228055   4.112   6.789   7.694 -0.5260  0.0703  0.6691
 8872SOL     OW28056   3.532   4.517   1.380 -0.1996 -0.2414  0.2739
 8872SOL    HW128057   3.532   4.440   1.323 -0.9834 -0.1077  0.0834
 8872SOL    HW228058   3.503   4.589   1.324  0.2285  0.1448  0.5300
 8873SOL     OW28059   6.712   2.850   5.103  0.4223  0.0256 -0.4155
 8873SOL    HW128060   6.630   2.853   5.153  1.6699  1.2768  1.7214
 8873SOL    HW228061   6.688   2.877   5.015 -1.4289  0.7123  0.2524
 8874SOL     OW28062   2.000   3.822  10.176 -0.1956  0.8196  0.3973
 8874SOL    HW128063   1.983   3.812  10.082 -3.3520 -0.8232  1.0028
 8874SOL    HW228064   2.064   3.754  10.196 -1.0252 -0.1594 -0.2265
 8875SOL     OW28065   2.733   4.542   4.170  0.4012 -0.3685  0.0380
 8875SOL    HW128066   2.705   4.601   4.239 -0.9058  0.3750 -1.0677
 8875SOL    HW228067   2.793   4.481   4.213  0.2125  0.5220  1.6384
 8876SOL     OW28068   2.072   0.778   2.777  0.5084  0.0452  0.5680
 8876SOL    HW128069   2.103   0.700   2.823 -0.5887  0.3007  1.7980
 8876SOL    HW228070   1.980   0.760   2.759  0.0511  1.3134  1.5037
 8877SOL     OW28071   6.792   1.916   7.280 -0.1293  0.0124 -0.2076
 8877SOL    HW128072   6.812   1.981   7.347 -0.8228 -0.9524  0.9729
 8877SOL    HW228073   6.729   1.959   7.222 -0.5063  0.4246  0.5021
 8878SOL     OW28074   5.154   5.401   0.904  0.4160  0.2409  0.4769
 8878SOL    HW128075   5.104   5.335   0.856 -1.5279  1.2103  1.0504
 8878SOL    HW228076   5.239   5.402   0.862 -0.0011 -1.5647 -0.5046
 8879SOL     OW28077   6.692   2.934   2.037  0.0922  0.1782  0.1021
 8879SOL    HW128078   6.725   2.921   1.948 -1.2331 -2.3955 -0.1165
 8879SOL    HW228079   6.664   3.026   2.039  1.7622  0.7835 -1.5326
 8880SOL     OW28080   1.222   2.500  10.071 -0.1898  0.0789  0.5160
 8880SOL    HW128081   1.163   2.440  10.116  2.0433 -1.9226  0.9921
 8880SOL    HW228082   1.198   2.494   9.979 -1.9996  0.8956  0.9032
 8881SOL     OW28083   5.379   6.817   9.502 -0.7518  0.4726  0.7581
 8881SOL    HW128084   5.432   6.853   9.431 -1.1630  2.2861  1.3278
 8881SOL    HW228085   5.383   6.882   9.571 -1.8901 -0.3939  1.6938
 8882SOL     OW28086   2.165   4.910   8.265  0.2258 -0.1197  0.4478
 8882SOL    HW128087   2.088   4.933   8.318  0.1287 -0.3085  0.3904
 8882SOL    HW228088   2.146   4.947   8.179 -0.5549 -1.5688 -0.0335
 8883SOL     OW28089   5.545   6.358   6.250 -0.5033 -0.1648 -0.3626
 8883SOL    HW128090   5.579   6.411   6.178  0.4625 -0.7662 -0.3725
 8883SOL    HW228091   5.455   6.388   6.262 -0.8055 -0.3123 -2.0577
 8884SOL     OW28092   0.389   1.665  12.358 -0.0181 -0.4611  0.5641
 8884SOL    HW128093   0.335   1.586  12.348  1.0308 -1.1081 -0.1611
 8884SOL    HW228094   0.478   1.633  12.365  0.3532  0.6367  1.1174
 8885SOL     OW28095   7.066   5.303   4.997  0.1326  0.0211  0.5333
 8885SOL    HW128096   7.135   5.244   4.965 -0.8242 -1.4131  1.0453
 8885SOL    HW228097   7.012   5.320   4.920 -0.0069 -0.3649  0.5446
 8886SOL     OW28098   2.896   7.873   9.585  0.0874 -0.1549  0.1290
 8886SOL    HW128099   2.809   7.844   9.612 -0.4033  1.5770  0.5096
 8886SOL    HW228100   2.897   7.859   9.490 -0.4660 -0.5188  0.1692
 8887SOL     OW28101   2.997   4.828   0.055 -0.0644  0.3270 -0.0380
 8887SOL    HW128102   2.929   4.848  -0.010 -1.4404 -1.8158  0.6157
 8887SOL    HW228103   3.035   4.912   0.077 -2.7194  1.7020 -0.2619
 8888SOL     OW28104   0.128   7.029   6.626  0.5578 -0.0842  0.4931
 8888SOL    HW128105   0.161   7.012   6.714 -0.0088 -1.1777  0.5101
 8888SOL    HW228106   0.121   6.942   6.586 -0.9004  0.2265 -0.0020
 8889SOL     OW28107   5.149   4.837   5.203 -0.0991  0.5805 -0.4080
 8889SOL    HW128108   5.081   4.890   5.245 -0.5291 -1.8073  2.1681
 8889SOL    HW228109   5.105   4.756   5.179  1.2973 -0.0099 -1.0435
 8890SOL     OW28110   1.640   7.058   4.487 -0.1575  1.0221 -0.1243
 8890SOL    HW128111   1.635   6.998   4.413 -0.3986  0.4678  0.3318
 8890SOL    HW228112   1.550   7.071   4.515  0.0748 -1.4577  2.1553
 8891SOL     OW28113   7.153   2.480   2.913  0.0800  0.7653  0.2933
 8891SOL    HW128114   7.085   2.505   2.975  0.6855 -0.4127  1.4636
 8891SOL    HW228115   7.207   2.558   2.903 -0.6950  1.3164  0.3227
 8892SOL     OW28116   7.399   0.110   7.505  0.5030  0.6836  0.6627
 8892SOL    HW128117   7.330   0.175   7.496  1.5975  1.9120  0.8860
 8892SOL    HW228118   7.434   0.125   7.593  0.5661 -0.4244  0.8377
 8893SOL     OW28119   3.280   4.141   2.691  0.6686  0.4812  0.3312
 8893SOL    HW128120   3.243   4.194   2.621  2.0179  2.7608  1.2274
 8893SOL    HW228121   3.204   4.110   2.740 -0.2053  0.6661 -0.8664
 8894SOL     OW28122   5.340   6.352   5.294 -1.3549 -0.5599  0.1825
 8894SOL    HW128123   5.307   6.295   5.363 -2.7244 -0.3315 -0.2553
 8894SOL    HW228124   5.323   6.441   5.327  0.2716 -0.3736  0.6253
 8895SOL     OW28125   1.867   6.233   7.312  0.0794 -0.0246  0.1030
 8895SOL    HW128126   1.922   6.278   7.376  1.7758  0.6607 -1.7418
 8895SOL    HW228127   1.927   6.208   7.242 -1.5541 -1.5303 -0.8405
 8896SOL     OW28128   2.973   4.073   8.921 -0.0792  0.6545  0.1071
 8896SOL    HW128129   3.042   4.089   8.984  0.6425 -0.7191 -0.2764
 8896SOL    HW228130   3.018   4.062   8.837 -0.7366 -0.2150 -0.1635
 8897SOL     OW28131   5.919   0.763   0.142 -0.2867  0.0633 -0.0889
 8897SOL    HW128132   5.887   0.834   0.087 -0.8328 -0.4198 -0.4149
 8897SOL    HW228133   5.862   0.689   0.121  1.3890 -1.0040 -1.1103
 8898SOL     OW28134   0.223   1.150   9.054  0.5188  0.0802 -0.0817
 8898SOL    HW128135   0.265   1.214   9.112 -0.4495  0.4546  0.2233
 8898SOL    HW228136   0.296   1.104   9.012  1.2392 -0.3119  1.5435
 8899SOL     OW28137   1.048   2.437   5.441 -0.5044 -0.0655 -0.9798
 8899SOL    HW128138   1.058   2.465   5.533 -1.2287 -0.2937 -0.8247
 8899SOL    HW228139   1.016   2.515   5.396 -0.7856 -0.1356 -0.9041
 8900SOL     OW28140   5.323   5.099   6.639 -0.2164  0.3868  0.2271
 8900SOL    HW128141   5.318   5.018   6.689  1.9950 -1.4040 -2.1616
 8900SOL    HW228142   5.372   5.159   6.696 -0.6531 -0.4242  1.4871
 8901SOL     OW28143   1.950   7.810   8.400  0.5238 -0.2225 -0.3520
 8901SOL    HW128144   2.025   7.866   8.378  0.5271 -0.1098 -0.0544
 8901SOL    HW228145   1.875   7.858   8.366  0.4626  0.2712  0.4448
 8902SOL     OW28146   3.534   2.569   4.880  0.4693  0.4923  0.5001
 8902SOL    HW128147   3.520   2.519   4.800  0.0102 -0.2258  1.0173
 8902SOL    HW228148   3.468   2.639   4.877  1.8843  1.8514 -0.8069
 8903SOL     OW28149   5.683   1.716   6.999 -0.2433 -0.5380 -0.1066
 8903SOL    HW128150   5.769   1.678   7.021  0.6617  2.5726  2.4243
 8903SOL    HW228151   5.637   1.719   7.082 -1.9192  0.0574 -1.0176
 8904SOL     OW28152   1.231   4.363   0.556  0.0519 -0.0242 -0.4955
 8904SOL    HW128153   1.270   4.359   0.643  0.1131 -1.5326 -0.5632
 8904SOL    HW228154   1.256   4.449   0.522  2.4027 -0.4988 -0.1185
 8905SOL     OW28155   6.058   2.793   3.401  0.0867  0.1532  0.1409
 8905SOL    HW128156   6.145   2.756   3.386  0.6813  1.6243 -0.3094
 8905SOL    HW228157   6.059   2.821   3.493 -0.1990 -0.5256  0.3543
 8906SOL     OW28158   5.042   1.657   9.670  0.0930  0.3783  0.4211
 8906SOL    HW128159   5.115   1.615   9.716 -0.0374 -0.8100 -0.4045
 8906SOL    HW228160   5.045   1.748   9.698  1.6726  0.2740  0.6960
 8907SOL     OW28161   2.589   4.889  11.275 -0.1759  0.3819 -0.4903
 8907SOL    HW128162   2.561   4.851  11.192 -1.3110 -2.4140  1.0457
 8907SOL    HW228163   2.534   4.847  11.340  1.9808  1.0161  1.8893
 8908SOL     OW28164   6.887   6.877   7.918 -0.5983 -0.0480  0.3708
 8908SOL    HW128165   6.875   6.902   7.826  0.1947  0.5431  0.4238
 8908SOL    HW228166   6.798   6.862   7.950 -0.8582 -0.6826 -0.6068
 8909SOL     OW28167   4.393   6.891  11.228  0.6926  0.3009 -0.2465
 8909SOL    HW128168   4.333   6.832  11.182 -1.2035  1.1379  0.9907
 8909SOL    HW228169   4.434   6.943  11.159  0.4387 -0.7160 -1.1808
 8910SOL     OW28170   7.441   5.180   0.332  0.2399 -0.2168  0.3337
 8910SOL    HW128171   7.475   5.091   0.343 -3.1137 -1.6907  0.0905
 8910SOL    HW228172   7.373   5.172   0.265  1.0189  2.9536 -1.0439
 8911SOL     OW28173   6.044   4.752   8.166  0.6078  0.5958 -0.3981
 8911SOL    HW128174   6.093   4.701   8.230 -0.0842  0.6278  0.1676
 8911SOL    HW228175   5.952   4.730   8.183  0.2778  2.1308 -0.0241
 8912SOL     OW28176   6.349   1.719   3.894 -0.3566  0.0337 -0.0637
 8912SOL    HW128177   6.438   1.741   3.924  0.4740 -1.4214 -1.3358
 8912SOL    HW228178   6.334   1.779   3.820 -0.7528  0.7773  0.6009
 8913SOL     OW28179   4.326   6.818   0.259  0.1126 -0.3326 -0.0353
 8913SOL    HW128180   4.342   6.793   0.167  0.2489 -0.1728 -0.0562
 8913SOL    HW228181   4.350   6.740   0.309  4.3124  0.8425  0.2167
 8914SOL     OW28182   3.525   7.151   0.105 -0.2837 -0.1302 -0.4153
 8914SOL    HW128183   3.450   7.166   0.048  0.0252 -0.4363 -0.9167
 8914SOL    HW228184   3.488   7.123   0.188 -0.8214  1.7014  0.0194
 8915SOL     OW28185   0.596   3.327   6.843  0.2496  0.1829 -0.4670
 8915SOL    HW128186   0.530   3.383   6.802  0.8373  0.5610 -0.9190
 8915SOL    HW228187   0.589   3.345   6.936 -0.3534  0.1441 -0.5025
 8916SOL     OW28188   6.426   7.776   9.849  0.1432  0.1302  0.4262
 8916SOL    HW128189   6.430   7.827   9.768  2.2470 -0.4238  0.1314
 8916SOL    HW228190   6.370   7.829   9.907  0.0716  1.4280 -0.7645
 8917SOL     OW28191   5.594   3.571   5.264  0.0759 -0.4108  0.0105
 8917SOL    HW128192   5.598   3.477   5.279  1.5059 -0.6079 -1.3791
 8917SOL    HW228193   5.568   3.580   5.172  2.5781  0.4415 -0.6991
 8918SOL     OW28194   4.244   7.388   1.077 -0.2225  1.2845  1.0913
 8918SOL    HW128195   4.244   7.331   1.001  1.5595  3.1716 -0.4496
 8918SOL    HW228196   4.302   7.344   1.140  1.1775  1.3413 -0.0954
 8919SOL     OW28197   5.111   5.843  10.557  0.0333 -0.1798  0.2713
 8919SOL    HW128198   5.181   5.899  10.522 -1.2278  0.3815 -1.5001
 8919SOL    HW228199   5.155   5.760  10.576  1.2119  0.1723 -0.7123
 8920SOL     OW28200   5.141   1.178   4.359  0.2087  0.4000  0.4417
 8920SOL    HW128201   5.104   1.250   4.410  2.2685  2.0152 -0.2095
 8920SOL    HW228202   5.233   1.175   4.384  0.3416 -1.5158 -0.1424
 8921SOL     OW28203   4.655   6.689  12.167 -0.9256  0.5104 -0.5334
 8921SOL    HW128204   4.723   6.757  12.166  1.1554 -1.4397 -0.8172
 8921SOL    HW228205   4.701   6.609  12.144 -2.5204 -1.6477  2.8495
 8922SOL     OW28206   0.858   7.886   4.955  0.1800 -0.4188 -0.1868
 8922SOL    HW128207   0.798   7.941   4.905  0.5591  0.0029 -0.1869
 8922SOL    HW228208   0.900   7.830   4.889 -0.9047 -1.3921 -0.0733
 8923SOL     OW28209   0.851   6.879   6.640  0.1147 -0.3310 -0.1903
 8923SOL    HW128210   0.917   6.810   6.652  0.8995  0.5884  0.9028
 8923SOL    HW228211   0.865   6.909   6.550  0.1991 -1.1371 -0.4610
 8924SOL     OW28212   3.651   1.507   8.611  0.4231 -0.2004  0.4146
 8924SOL    HW128213   3.682   1.461   8.533  0.9674 -1.5854  1.3976
 8924SOL    HW228214   3.557   1.488   8.614  0.3677 -0.0093  0.0238
 8925SOL     OW28215   5.871   2.211  11.800  0.0831 -0.0604  0.2415
 8925SOL    HW128216   5.846   2.127  11.762 -0.6817 -0.2294  1.0706
 8925SOL    HW228217   5.952   2.192  11.849  1.2158  0.2162 -1.4382
 8926SOL     OW28218   5.156   4.173   0.953  0.2264  0.2952  0.4107
 8926SOL    HW128219   5.137   4.145   0.864 -1.3382  1.5032  0.3187
 8926SOL    HW228220   5.244   4.211   0.948  0.3908 -0.1822 -0.4761
 8927SOL     OW28221   1.894   6.114   2.119 -0.0450 -0.2866  0.6228
 8927SOL    HW128222   1.820   6.063   2.153 -1.2777  0.3819 -0.9248
 8927SOL    HW228223   1.898   6.091   2.027 -1.2026  2.9154 -0.3681
 8928SOL     OW28224   2.682   5.999  10.616  0.3820  0.2636  0.6136
 8928SOL    HW128225   2.624   6.034  10.548  0.6947  0.5551  0.4907
 8928SOL    HW228226   2.652   5.910  10.630 -1.0228  0.8593  1.5920
 8929SOL     OW28227   7.820   5.716   3.432 -0.0966  0.1891  0.0335
 8929SOL    HW128228   7.753   5.725   3.499 -1.6084  0.8878 -1.5046
 8929SOL    HW228229   7.842   5.806   3.407  1.7801 -0.0072  0.8096
 8930SOL     OW28230   7.178   5.149   5.720  0.4144 -0.2305  0.1324
 8930SOL    HW128231   7.230   5.218   5.762 -0.6638  0.4517  0.3585
 8930SOL    HW228232   7.104   5.135   5.779 -0.4017 -0.2250 -0.8706
 8931SOL     OW28233   0.852   2.339   6.450  0.2387 -0.5557 -0.0134
 8931SOL    HW128234   0.816   2.272   6.508  1.7555 -0.4166  1.1529
 8931SOL    HW228235   0.777   2.392   6.424 -0.5265 -0.7923  1.6264
 8932SOL     OW28236   1.847   0.740  12.408 -0.2828  0.1397  0.2033
 8932SOL    HW128237   1.775   0.679  12.424  0.7347 -0.5587  2.6337
 8932SOL    HW228238   1.925   0.684  12.406  0.3187  0.9611 -1.6554
 8933SOL     OW28239   5.834   5.728   7.706  0.0742 -0.6832  0.2722
 8933SOL    HW128240   5.774   5.719   7.633 -0.7477  1.4815  0.5970
 8933SOL    HW228241   5.780   5.717   7.784  0.3799 -0.1904  0.5612
 8934SOL     OW28242   1.088   1.690   7.001  0.1678  0.5642 -0.2542
 8934SOL    HW128243   1.052   1.730   7.080  0.6190  1.0784 -0.3025
 8934SOL    HW228244   1.051   1.602   7.000  0.0870  0.5799  0.4835
 8935SOL     OW28245   5.746   5.016   6.409  0.0845 -0.5348  0.4508
 8935SOL    HW128246   5.766   5.102   6.447  0.3359 -0.5048  0.2436
 8935SOL    HW228247   5.701   5.036   6.327 -1.2014 -0.5920  1.1010
 8936SOL     OW28248   1.458   4.687   6.441  0.3559  0.1580  0.1425
 8936SOL    HW128249   1.413   4.687   6.526 -1.0094 -0.0182 -0.5392
 8936SOL    HW228250   1.412   4.753   6.390  0.4453 -0.4974 -0.8068
 8937SOL     OW28251   2.855   3.339   8.821  1.1886 -0.8465 -0.5760
 8937SOL    HW128252   2.810   3.318   8.903 -0.3706 -2.5227 -1.7849
 8937SOL    HW228253   2.812   3.419   8.790  0.4239 -1.2897 -0.6932
 8938SOL     OW28254   7.279   3.303   4.940 -0.0792 -0.1367 -0.2562
 8938SOL    HW128255   7.203   3.277   4.888 -0.0526  0.5142 -0.6362
 8938SOL    HW228256   7.354   3.293   4.881  0.0201  0.0435 -0.1646
 8939SOL     OW28257   0.279   5.742  11.264 -0.4136  0.1057  0.5861
 8939SOL    HW128258   0.365   5.705  11.244 -0.8628 -1.4266  1.3123
 8939SOL    HW228259   0.229   5.733  11.183 -0.5790 -1.1370  0.8016
 8940SOL     OW28260   1.564   6.134  11.824  0.4368 -0.3229 -0.1589
 8940SOL    HW128261   1.480   6.180  11.821  0.3839 -0.2984  0.9964
 8940SOL    HW228262   1.550   6.056  11.770  0.6070  1.0710 -2.3485
 8941SOL     OW28263   1.905   2.644   3.604 -0.3115  0.1051 -0.2170
 8941SOL    HW128264   1.872   2.651   3.514  1.7523 -0.6312 -1.0949
 8941SOL    HW228265   1.967   2.571   3.601  2.0190  1.8953  1.0567
 8942SOL     OW28266   2.437   2.524  10.243  0.2543  0.4511  0.1740
 8942SOL    HW128267   2.343   2.541  10.244  0.1195 -0.2603  0.0888
 8942SOL    HW228268   2.471   2.568  10.321 -0.1611  0.6390  0.2475
 8943SOL     OW28269   6.336   2.148  10.472 -0.3733  0.0190 -0.0522
 8943SOL    HW128270   6.333   2.243  10.467 -1.8776  0.0580  1.0166
 8943SOL    HW228271   6.404   2.130  10.538  0.7342  0.2837 -1.0879
 8944SOL     OW28272   2.806   1.962   8.545 -0.1543 -0.1342 -0.4498
 8944SOL    HW128273   2.831   1.892   8.484 -0.2890 -2.0666  1.5872
 8944SOL    HW228274   2.728   2.001   8.505 -0.5532 -1.6860 -1.2764
 8945SOL     OW28275   3.933   5.643   6.820  0.6393 -0.4163 -0.2097
 8945SOL    HW128276   3.922   5.555   6.857 -1.4791 -0.5229 -0.9679
 8945SOL    HW228277   3.844   5.678   6.813  1.3716  1.5226 -0.6113
 8946SOL     OW28278   0.893   2.963   9.694 -0.3421 -0.1829  0.1430
 8946SOL    HW128279   0.978   2.990   9.730 -0.4770 -0.6067  0.7979
 8946SOL    HW228280   0.916   2.908   9.618 -0.0161 -0.5775  0.5170
 8947SOL     OW28281   4.368   5.669   2.026  0.1729  0.4101  0.0093
 8947SOL    HW128282   4.455   5.658   1.988  0.1796  1.6340 -0.3793
 8947SOL    HW228283   4.357   5.764   2.033 -0.9042  0.2583  0.5888
 8948SOL     OW28284   3.293   5.027   9.126  0.2916 -0.1155  0.2535
 8948SOL    HW128285   3.368   4.985   9.084 -0.9099 -1.2652 -0.8623
 8948SOL    HW228286   3.218   5.004   9.070 -0.7539  1.8387  0.7532
 8949SOL     OW28287   5.581   7.532   0.962  0.6455 -0.0057 -0.0921
 8949SOL    HW128288   5.570   7.477   0.884  0.3235  1.2680 -0.9815
 8949SOL    HW228289   5.675   7.551   0.964  0.3839  1.7626 -1.5108
 8950SOL     OW28290   2.849   4.720   8.390  0.7511 -0.0615 -0.2873
 8950SOL    HW128291   2.794   4.799   8.399 -0.1428 -0.6588 -0.3796
 8950SOL    HW228292   2.829   4.668   8.468 -0.1388 -1.0801 -1.1624
 8951SOL     OW28293   1.624   6.590   4.917  0.4549  0.5321  0.0480
 8951SOL    HW128294   1.577   6.559   4.994 -0.1453  2.3256  0.4637
 8951SOL    HW228295   1.602   6.528   4.847  1.0622 -1.1624  1.3074
 8952SOL     OW28296   0.596   3.712   3.363 -0.2227 -0.4871  0.3988
 8952SOL    HW128297   0.690   3.730   3.368 -0.4433  0.7833  0.3473
 8952SOL    HW228298   0.575   3.672   3.448  0.2681 -0.3116  0.6083
 8953SOL     OW28299   1.392   1.931   8.832  0.3741 -0.3000 -0.3109
 8953SOL    HW128300   1.301   1.907   8.849  0.5670 -0.3184  0.7693
 8953SOL    HW228301   1.431   1.852   8.795  0.2095 -0.6445  0.2355
 8954SOL     OW28302   5.119   2.717   7.438  0.1512 -0.1654 -0.3900
 8954SOL    HW128303   5.058   2.681   7.503  0.9295  1.9574  1.6745
 8954SOL    HW228304   5.083   2.689   7.354 -1.9324 -1.5585  0.8558
 8955SOL     OW28305   7.910   2.485   4.315  0.0995  0.2012 -0.3153
 8955SOL    HW128306   7.936   2.538   4.240 -0.2099 -0.0333 -0.5862
 8955SOL    HW228307   7.969   2.514   4.385 -0.2133  1.0736 -0.3976
 8956SOL     OW28308   1.634   1.974  12.239 -0.2690  0.6965 -0.2131
 8956SOL    HW128309   1.577   1.980  12.316  0.4475 -1.0182  0.4825
 8956SOL    HW228310   1.574   1.985  12.164 -1.6796 -1.7606  0.4649
 8957SOL     OW28311   4.128   6.290   2.045 -0.2765 -0.0657  0.3130
 8957SOL    HW128312   4.121   6.295   2.140  0.0350 -0.6024  0.3647
 8957SOL    HW228313   4.183   6.364   2.021 -0.0985 -0.1083  0.5809
 8958SOL     OW28314   6.475   1.755   7.556 -0.2582 -0.0636 -0.5866
 8958SOL    HW128315   6.490   1.753   7.461  0.0046 -0.0651 -0.5461
 8958SOL    HW228316   6.429   1.674   7.575 -2.7729  1.1214 -1.1150
 8959SOL     OW28317   5.401   2.560   3.696 -0.2727 -0.1052  0.1441
 8959SOL    HW128318   5.465   2.517   3.639 -1.8225 -0.1030 -1.7036
 8959SOL    HW228319   5.397   2.650   3.662 -0.8736  0.0342  0.5852
 8960SOL     OW28320   1.698   5.059   1.919 -0.0914  0.3238 -0.3839
 8960SOL    HW128321   1.724   5.080   2.009  0.6348  0.3944 -0.5992
 8960SOL    HW228322   1.773   5.011   1.884  0.0647  1.1662 -1.2615
 8961SOL     OW28323   2.295   0.477   5.586  0.5030  0.4488 -0.6423
 8961SOL    HW128324   2.348   0.405   5.551 -1.1229 -0.1138 -2.1055
 8961SOL    HW228325   2.358   0.534   5.630  2.1216 -0.8308 -1.1895
 8962SOL     OW28326   7.022   7.481   1.626 -0.0199 -0.0406 -0.2068
 8962SOL    HW128327   7.003   7.475   1.720 -1.5096  2.0572 -0.3001
 8962SOL    HW228328   7.021   7.390   1.596 -0.4565 -0.6995  1.6385
 8963SOL     OW28329   5.112   5.584  11.357 -0.4721 -0.1166 -0.0206
 8963SOL    HW128330   5.153   5.564  11.442  0.0745 -0.1203 -0.2771
 8963SOL    HW228331   5.158   5.662  11.327 -0.5688 -0.1981 -0.3800
 8964SOL     OW28332   4.102   0.410   1.732 -0.0585 -0.0522 -0.1805
 8964SOL    HW128333   4.047   0.335   1.756 -0.1197  0.1716  0.3939
 8964SOL    HW228334   4.041   0.472   1.691 -0.8485  1.3466  2.8089
 8965SOL     OW28335   7.819   3.127   8.746  0.3599  0.6869  0.7561
 8965SOL    HW128336   7.813   3.129   8.842  1.5359  0.0968  0.8605
 8965SOL    HW228337   7.813   3.034   8.724  1.6749  0.6599  0.4043
 8966SOL     OW28338   6.253   3.334   4.265 -0.4027 -0.5325  0.3175
 8966SOL    HW128339   6.191   3.349   4.337 -0.4575  1.6762 -0.1172
 8966SOL    HW228340   6.322   3.280   4.304 -1.0381 -0.4149  1.6871
 8967SOL     OW28341   3.382   6.959   7.224  0.2622 -0.0921 -0.0217
 8967SOL    HW128342   3.335   6.926   7.148  1.0938 -1.3392 -0.0318
 8967SOL    HW228343   3.313   6.982   7.287 -0.3841 -0.8022 -0.4597
 8968SOL     OW28344   0.842   7.244   4.780  0.1903 -0.3349 -0.1246
 8968SOL    HW128345   0.793   7.326   4.776 -0.2093 -0.5643 -0.0212
 8968SOL    HW228346   0.933   7.270   4.794 -0.0501  0.0598  0.7700
 8969SOL     OW28347   4.429   6.369   6.288 -0.3494 -0.1101  0.6407
 8969SOL    HW128348   4.380   6.410   6.359  0.4576  1.3485  0.3856
 8969SOL    HW228349   4.471   6.442   6.243 -1.1860 -0.9311 -1.6080
 8970SOL     OW28350   5.169   2.425   2.659 -1.4494  0.2097 -0.2194
 8970SOL    HW128351   5.257   2.450   2.631 -1.0439 -0.8527  0.0523
 8970SOL    HW228352   5.142   2.495   2.718  0.2233 -0.6256  1.6418
 8971SOL     OW28353   3.829   2.286   7.672  0.4897 -0.2843  0.0860
 8971SOL    HW128354   3.888   2.321   7.740  1.6638 -0.8528 -0.6076
 8971SOL    HW228355   3.783   2.363   7.638 -0.1976  0.0049  1.5718
 8972SOL     OW28356   3.469   0.362  10.241  0.2502 -0.2530 -0.2666
 8972SOL    HW128357   3.450   0.311  10.320 -0.9182  1.5606  0.6845
 8972SOL    HW228358   3.388   0.408  10.221  1.0109  0.6096 -1.5511
 8973SOL     OW28359   5.393   7.508   8.827 -0.1387  0.1356 -0.3570
 8973SOL    HW128360   5.458   7.524   8.895 -0.3487 -0.4529 -0.0049
 8973SOL    HW228361   5.398   7.584   8.769  1.1292 -0.0788 -0.5505
 8974SOL     OW28362   3.518   2.956   7.264  0.7239  0.1573 -0.0564
 8974SOL    HW128363   3.460   2.909   7.203  0.2954  1.2639 -0.5183
 8974SOL    HW228364   3.604   2.954   7.221  0.7291 -0.2647 -0.0334
 8975SOL     OW28365   0.116   6.575   9.156 -0.3171 -0.0729 -0.1416
 8975SOL    HW128366   0.053   6.596   9.087 -0.6532 -0.7411 -0.0503
 8975SOL    HW228367   0.144   6.660   9.190 -0.5816  0.2495 -0.7100
 8976SOL     OW28368   0.180   3.116  11.066 -0.1200  0.6702 -0.4210
 8976SOL    HW128369   0.159   3.031  11.105 -0.1872  0.4187 -1.0023
 8976SOL    HW228370   0.188   3.099  10.973  1.7639  0.9191 -0.3495
 8977SOL     OW28371   3.032   0.112   0.673  0.3268  0.5193  0.1207
 8977SOL    HW128372   3.042   0.032   0.622 -1.5930  0.9262 -1.0091
 8977SOL    HW228373   3.116   0.123   0.718  2.2291  0.1599 -2.9922
 8978SOL     OW28374   2.437   7.675   2.270  0.1101 -0.1400  0.0737
 8978SOL    HW128375   2.493   7.689   2.346  0.6791  0.1619 -0.3858
 8978SOL    HW228376   2.497   7.640   2.203 -0.1533  0.5898 -0.5652
 8979SOL     OW28377   5.787   5.715   2.594  0.0327 -0.0891 -0.3057
 8979SOL    HW128378   5.715   5.702   2.656  0.0516 -0.2356 -0.3128
 8979SOL    HW228379   5.866   5.695   2.645  0.1049  0.5497 -0.1606
 8980SOL     OW28380   5.884   7.640   9.726  0.2989  0.0455  0.5537
 8980SOL    HW128381   5.792   7.663   9.712  0.0042 -1.1714  0.2888
 8980SOL    HW228382   5.927   7.663   9.644 -0.2002 -1.2761 -0.1147
 8981SOL     OW28383   1.320   7.836   8.557  0.2822  0.2110  0.4107
 8981SOL    HW128384   1.286   7.746   8.551 -2.2417  1.0414  1.0377
 8981SOL    HW228385   1.411   7.825   8.583  0.2765 -2.1843 -0.3369
 8982SOL     OW28386   0.688   3.118  11.040 -0.1035 -0.4489  0.0764
 8982SOL    HW128387   0.672   3.212  11.041  0.3861 -0.3633 -0.2076
 8982SOL    HW228388   0.603   3.079  11.062 -0.4177  0.0423 -0.2617
 8983SOL     OW28389   4.599   6.103  10.185  0.0445  0.1762 -0.7293
 8983SOL    HW128390   4.546   6.058  10.120  0.1228  0.8227 -1.2545
 8983SOL    HW228391   4.596   6.047  10.262 -0.0959 -0.5721 -1.2744
 8984SOL     OW28392   5.036   4.900   2.251  0.5579 -0.1509 -0.2022
 8984SOL    HW128393   5.074   4.829   2.303  0.2062 -0.4744 -0.3780
 8984SOL    HW228394   5.111   4.944   2.211  0.7399 -0.8664 -0.6637
 8985SOL     OW28395   7.093   2.765   7.829 -0.0697 -0.6723  0.0400
 8985SOL    HW128396   7.045   2.691   7.866  0.2734 -0.8314  0.1741
 8985SOL    HW228397   7.170   2.725   7.788 -0.9541 -0.6230 -1.7744
 8986SOL     OW28398   0.576   0.136   5.757 -0.1133 -0.0849  0.2577
 8986SOL    HW128399   0.642   0.092   5.704 -1.0183 -0.6452 -0.4533
 8986SOL    HW228400   0.498   0.081   5.748 -1.3196  1.6499 -0.7276
 8987SOL     OW28401   0.727   6.151  10.169  0.0102  0.5149  0.4049
 8987SOL    HW128402   0.766   6.221  10.222  0.4822  0.4542  0.1444
 8987SOL    HW228403   0.790   6.079  10.175 -0.4728  0.1047  0.6730
 8988SOL     OW28404   5.477   2.230   1.865 -0.4320  0.3351 -0.1263
 8988SOL    HW128405   5.515   2.304   1.911  1.2208  0.1120 -1.0540
 8988SOL    HW228406   5.528   2.154   1.895  0.4295  0.1309 -1.9662
 8989SOL     OW28407   0.465   6.975  11.101  0.3079 -0.4861  0.2797
 8989SOL    HW128408   0.435   6.890  11.134  1.2620 -1.7959 -1.9655
 8989SOL    HW228409   0.396   7.003  11.041  1.4296 -1.3508 -1.4986
 8990SOL     OW28410   1.309   5.440  10.946  0.5116 -0.2569  0.5168
 8990SOL    HW128411   1.399   5.447  10.914 -0.1416  0.1293 -1.3505
 8990SOL    HW228412   1.297   5.519  10.999  0.3644  1.3570 -1.7636
 8991SOL     OW28413   6.894   6.087   9.904  0.4194  0.1096 -0.2557
 8991SOL    HW128414   6.802   6.090   9.930  0.5855  0.1254  0.3302
 8991SOL    HW228415   6.939   6.143   9.966  1.3306 -2.4804  1.6034
 8992SOL     OW28416   3.405   3.147  12.273  0.0920  0.0962 -0.4214
 8992SOL    HW128417   3.354   3.073  12.307 -0.9456 -0.1128 -2.3072
 8992SOL    HW228418   3.340   3.214  12.254  1.0450  1.6799  1.5115
 8993SOL     OW28419   1.193   5.038   1.876 -0.4870 -0.6146  0.8274
 8993SOL    HW128420   1.142   5.009   1.800 -1.3108  1.1856  0.6510
 8993SOL    HW228421   1.154   5.121   1.901  2.6476  1.1299  0.4259
 8994SOL     OW28422   2.956   1.336   8.166  0.2439 -0.1258  0.7836
 8994SOL    HW128423   2.865   1.360   8.150  0.0942 -0.3142  1.3348
 8994SOL    HW228424   2.968   1.254   8.119  0.5742  0.6703 -0.5738
 8995SOL     OW28425   0.155   5.142   8.045 -0.2960  0.3307 -0.0489
 8995SOL    HW128426   0.182   5.067   8.097 -1.1087  0.5704  0.7694
 8995SOL    HW228427   0.178   5.120   7.955 -1.5714 -1.4128  0.0023
 8996SOL     OW28428   0.411   0.868  10.146 -0.5321 -0.6377  0.1594
 8996SOL    HW128429   0.342   0.900  10.088  0.3001  0.2350 -0.3699
 8996SOL    HW228430   0.491   0.877  10.095 -0.0036 -1.5864  0.7852
 8997SOL     OW28431   5.242   6.474   2.879  0.5837  0.1286  0.6201
 8997SOL    HW128432   5.320   6.487   2.825  0.9214  1.2767  1.3480
 8997SOL    HW228433   5.241   6.549   2.938 -1.4284  0.4641  0.2074
 8998SOL     OW28434   5.723   7.201  11.164  0.9883  0.3633 -0.3667
 8998SOL    HW128435   5.682   7.152  11.235 -0.6736 -0.0683 -1.5635
 8998SOL    HW228436   5.698   7.292  11.179  1.5060  0.4188  0.1653
 8999SOL     OW28437   6.815   3.452  10.548  0.4667 -0.1594  0.0509
 8999SOL    HW128438   6.833   3.442  10.454  0.5935 -0.6588  0.1253
 8999SOL    HW228439   6.720   3.454  10.555  0.4387 -1.0992  0.0067
 9000SOL     OW28440   1.939   1.402   0.042 -0.4025 -0.0919 -0.0834
 9000SOL    HW128441   1.950   1.477   0.100  1.9863  0.5773 -1.2814
 9000SOL    HW228442   1.979   1.329   0.089  1.0667  0.3393 -0.6083
 9001SOL     OW28443   5.962   5.989   1.602  0.3604  0.1357  0.2122
 9001SOL    HW128444   5.965   6.008   1.695  1.7954 -0.1452  0.2480
 9001SOL    HW228445   5.986   6.071   1.559 -2.2034  0.8543 -0.0543
 9002SOL     OW28446   5.258   7.265   7.968 -0.2415  0.0838  0.2093
 9002SOL    HW128447   5.189   7.282   8.032  0.7767  1.9771  0.8572
 9002SOL    HW228448   5.236   7.178   7.932 -0.9271 -0.9817  2.9797
 9003SOL     OW28449   1.774   6.078   0.795  0.0844  0.0165 -0.4231
 9003SOL    HW128450   1.853   6.104   0.748 -0.4821  2.2904 -0.2261
 9003SOL    HW228451   1.802   6.006   0.852  2.0923  0.9687 -0.1331
 9004SOL     OW28452   4.829   1.692   6.404 -0.1346  0.2705 -0.0605
 9004SOL    HW128453   4.919   1.672   6.432 -0.2449 -1.0036 -0.5730
 9004SOL    HW228454   4.773   1.646   6.467 -0.4450  1.1794  0.3427
 9005SOL     OW28455   0.004   4.877   1.146 -0.7003  0.2231 -0.4405
 9005SOL    HW128456  -0.090   4.890   1.140 -0.4935  2.1806 -0.0354
 9005SOL    HW228457   0.024   4.883   1.239 -0.2856 -1.2743 -0.4083
 9006SOL     OW28458   1.981   2.655  10.549 -0.6365  0.6356 -0.0081
 9006SOL    HW128459   2.005   2.638  10.640  0.2164  0.5324 -0.2482
 9006SOL    HW228460   1.946   2.744  10.549 -1.0274  0.4873  0.4860
 9007SOL     OW28461   3.863   1.734  11.517 -0.1496 -0.6161  0.0367
 9007SOL    HW128462   3.871   1.766  11.427  1.2801 -0.8332  0.0632
 9007SOL    HW228463   3.853   1.814  11.570 -0.2138 -0.4383 -0.2416
 9008SOL     OW28464   1.444   1.869   4.707  0.1535  0.0145  0.1981
 9008SOL    HW128465   1.473   1.956   4.679  0.0316 -0.2232 -0.7037
 9008SOL    HW228466   1.524   1.815   4.704  0.4081  0.2884  1.6048
 9009SOL     OW28467   3.848   0.579   8.581 -0.5221 -0.2580 -0.2169
 9009SOL    HW128468   3.775   0.592   8.641 -0.4194 -0.3021 -0.0799
 9009SOL    HW228469   3.813   0.598   8.494 -1.0643 -1.5760 -0.3170
 9010SOL     OW28470   2.343   5.877   8.695  0.4694  0.2167 -0.4742
 9010SOL    HW128471   2.264   5.865   8.641  1.1369  0.1985 -1.4841
 9010SOL    HW228472   2.338   5.968   8.725 -0.7538 -0.2566  0.8454
 9011SOL     OW28473   5.314   6.237  12.112  0.1404  0.0482  0.0397
 9011SOL    HW128474   5.222   6.257  12.097  0.0187  0.8970  1.7065
 9011SOL    HW228475   5.315   6.151  12.153  0.0917  0.0851  0.1172
 9012SOL     OW28476   2.589   0.453   9.486  0.5851  0.6648 -0.3329
 9012SOL    HW128477   2.626   0.407   9.410 -2.0511  0.0630 -1.3617
 9012SOL    HW228478   2.663   0.500   9.524  2.5231 -1.0649 -1.7525
 9013SOL     OW28479   6.499   6.043   2.984  0.6681 -0.0741 -0.2542
 9013SOL    HW128480   6.456   6.097   3.050  1.0693 -0.4647  0.3390
 9013SOL    HW228481   6.505   6.100   2.907  0.0045  0.3141 -0.0299
 9014SOL     OW28482   2.984   7.641   4.713  0.2252  0.4864 -0.3547
 9014SOL    HW128483   3.015   7.648   4.803 -0.6571 -0.7556  0.0696
 9014SOL    HW228484   2.968   7.731   4.685  2.1860  1.0040  0.1109
 9015SOL     OW28485   3.232   1.762   7.732  0.1472 -0.0116 -0.4575
 9015SOL    HW128486   3.313   1.784   7.685  0.8733 -1.2119  0.1907
 9015SOL    HW228487   3.199   1.846   7.764  0.9762  0.5297 -0.9885
 9016SOL     OW28488   3.737   4.352  12.086  0.1634 -0.2636  0.2215
 9016SOL    HW128489   3.722   4.366  12.180  2.1762 -0.1318  0.5624
 9016SOL    HW228490   3.675   4.283  12.063 -1.7306  1.0317  1.1786
 9017SOL     OW28491   0.350   2.644   0.359 -0.3105 -0.3166 -0.0152
 9017SOL    HW128492   0.397   2.670   0.279 -2.4980  0.0306 -1.2722
 9017SOL    HW228493   0.354   2.722   0.415  1.0457 -0.4788  0.1367
 9018SOL     OW28494   4.642   0.561   5.916 -0.5836 -0.9945  0.3567
 9018SOL    HW128495   4.567   0.574   5.974 -0.3509 -0.1444  0.4783
 9018SOL    HW228496   4.647   0.641   5.864 -0.4377 -1.5147 -0.4356
 9019SOL     OW28497   5.242   4.355   6.763  0.6535  0.9652 -0.1718
 9019SOL    HW128498   5.315   4.348   6.824 -0.8762  3.0270  2.1074
 9019SOL    HW228499   5.165   4.337   6.816 -0.8839  4.1490 -1.0315
 9020SOL     OW28500   1.628   5.346   5.949  0.0482 -0.0042  0.5237
 9020SOL    HW128501   1.697   5.413   5.949  0.5433 -0.4811 -1.0943
 9020SOL    HW228502   1.566   5.374   5.882  0.2186 -1.0983 -0.1189
 9021SOL     OW28503   3.961   4.846   6.455 -0.0669 -0.5255  0.0232
 9021SOL    HW128504   3.897   4.853   6.384  0.8055 -2.1763 -0.9841
 9021SOL    HW228505   3.946   4.758   6.492  3.0695 -1.9733 -1.7843
 9022SOL     OW28506   4.371   0.445   1.760 -0.0167 -0.2432 -0.1218
 9022SOL    HW128507   4.427   0.483   1.693  0.8789  0.8093  1.1606
 9022SOL    HW228508   4.286   0.433   1.718  0.6734 -0.1771 -1.5866
 9023SOL     OW28509   5.416   5.640   7.580 -0.3493  0.3774 -0.0974
 9023SOL    HW128510   5.347   5.609   7.639 -2.2480  0.3343 -2.1863
 9023SOL    HW228511   5.409   5.584   7.503  0.3862  1.9248 -1.3630
 9024SOL     OW28512   2.159   5.512   2.791 -0.7538  0.0673 -0.0955
 9024SOL    HW128513   2.192   5.514   2.881 -0.3612  1.6323 -0.2396
 9024SOL    HW228514   2.194   5.431   2.754  0.1774  0.0583  0.7673
 9025SOL     OW28515   0.179   6.815   9.264  0.1539 -0.7591  0.4798
 9025SOL    HW128516   0.229   6.791   9.342  1.7973  1.4743  0.2019
 9025SOL    HW228517   0.205   6.905   9.246 -1.1987 -0.7765 -1.9074
 9026SOL     OW28518   6.771   4.584   0.376  0.1776  0.1088 -0.7214
 9026SOL    HW128519   6.841   4.647   0.394 -1.2411  1.6911 -0.4344
 9026SOL    HW228520   6.731   4.567   0.461  1.1955 -2.0557 -0.6328
 9027SOL     OW28521   0.235   1.451   1.186 -0.1393  0.4423 -0.0963
 9027SOL    HW128522   0.298   1.521   1.165 -0.1440  0.5332  0.1905
 9027SOL    HW228523   0.152   1.483   1.152  0.2138 -0.2959 -1.7659
 9028SOL     OW28524   6.377   0.048   5.367  0.6218  0.2437 -0.5846
 9028SOL    HW128525   6.349   0.038   5.458  1.9899 -3.4362 -0.3994
 9028SOL    HW228526   6.297   0.065   5.318 -0.3264  0.8761  1.1296
 9029SOL     OW28527   1.559   5.429  10.801 -0.0053  0.0202 -0.2628
 9029SOL    HW128528   1.637   5.406  10.751 -0.0634 -1.2343  0.1767
 9029SOL    HW228529   1.574   5.518  10.831  1.5481 -0.4144  0.3207
 9030SOL     OW28530   3.751   7.366   1.677 -0.6829  0.2473 -0.1993
 9030SOL    HW128531   3.832   7.347   1.725 -0.0466  1.1722 -0.8841
 9030SOL    HW228532   3.725   7.452   1.708 -1.3171  0.0358 -0.1276
 9031SOL     OW28533   5.221   7.321   4.892  0.3756 -0.1981  0.4353
 9031SOL    HW128534   5.136   7.277   4.897  1.0087 -1.3524  3.0501
 9031SOL    HW228535   5.284   7.254   4.920  1.9544  1.1122  0.1808
 9032SOL     OW28536   3.213   2.821  12.251  0.0788 -0.1246 -0.0057
 9032SOL    HW128537   3.259   2.851  12.172 -0.3642  1.7426  0.3862
 9032SOL    HW228538   3.282   2.804  12.314  0.3852  3.3684  0.8237
 9033SOL     OW28539   3.024   4.688   3.333 -0.1257  0.1831  0.0129
 9033SOL    HW128540   2.935   4.692   3.366 -0.5590  0.0391 -1.0739
 9033SOL    HW228541   3.030   4.602   3.290 -0.1522  0.9934 -1.7091
 9034SOL     OW28542   4.314   0.114   5.029 -0.4151  0.3522 -0.1122
 9034SOL    HW128543   4.264   0.035   5.009  0.5065 -0.6025  1.1744
 9034SOL    HW228544   4.352   0.141   4.945  1.4872 -2.1760 -0.1846
 9035SOL     OW28545   1.924   2.896   1.319  0.8156  0.2422 -0.5106
 9035SOL    HW128546   2.015   2.867   1.314  0.2856 -1.7670  0.5030
 9035SOL    HW228547   1.920   2.971   1.261  3.0408  0.1722 -0.8472
 9036SOL     OW28548   7.707   2.369   4.882 -0.0523  0.1938 -0.1697
 9036SOL    HW128549   7.790   2.412   4.862 -0.0156 -0.0610 -0.5685
 9036SOL    HW228550   7.641   2.430   4.849 -0.1295  1.4225  2.0081
 9037SOL     OW28551   5.128   4.789   8.176 -0.3730  0.1575 -0.4451
 9037SOL    HW128552   5.130   4.805   8.270  1.7034  2.6044 -0.7924
 9037SOL    HW228553   5.104   4.697   8.168 -1.3670  0.0717  2.4158
 9038SOL     OW28554   5.815   1.649  11.300 -0.0757 -0.3115 -0.8430
 9038SOL    HW128555   5.872   1.574  11.284 -1.3770 -1.5957  0.2445
 9038SOL    HW228556   5.728   1.618  11.278 -0.6512  0.8830 -0.3202
 9039SOL     OW28557   6.926   0.727   4.341  0.3012  0.2822  0.3549
 9039SOL    HW128558   6.831   0.713   4.331  0.2760  0.8769 -0.4028
 9039SOL    HW228559   6.933   0.791   4.412  0.1946 -0.3926  0.9909
 9040SOL     OW28560   6.278   2.913   3.155 -0.0793 -0.2564  0.0617
 9040SOL    HW128561   6.348   2.851   3.175 -1.5666 -1.8190  0.6219
 9040SOL    HW228562   6.247   2.888   3.069 -0.5749 -0.1692  0.2138
 9041SOL     OW28563   2.849   1.442   4.306 -0.3310  0.3020  0.3310
 9041SOL    HW128564   2.788   1.464   4.235 -0.4892  1.0987  0.6953
 9041SOL    HW228565   2.793   1.406   4.374 -0.0774 -1.2323 -0.2417
 9042SOL     OW28566   1.072   4.186   0.003  0.6581  0.2063  0.6782
 9042SOL    HW128567   1.131   4.251  -0.034 -0.3761  0.9379  0.2623
 9042SOL    HW228568   1.026   4.232   0.073 -1.0068  0.3548 -0.4473
 9043SOL     OW28569   3.018   7.771  11.476  0.2345  0.0634  0.1058
 9043SOL    HW128570   2.956   7.800  11.408  1.2080  0.0743 -0.8031
 9043SOL    HW228571   3.045   7.851  11.520 -0.1687  0.0891  0.3107
 9044SOL     OW28572   1.469   3.808   3.742  0.0867  0.0748 -0.1351
 9044SOL    HW128573   1.460   3.755   3.662  0.7210  1.8838 -1.4832
 9044SOL    HW228574   1.379   3.832   3.764 -0.2343 -1.6714  0.6259
 9045SOL     OW28575   6.831   7.303   2.833  0.2116 -0.1873 -0.2255
 9045SOL    HW128576   6.778   7.224   2.840 -1.2297  0.8799  2.1553
 9045SOL    HW228577   6.770   7.374   2.851  1.9008  1.3161 -0.1667
 9046SOL     OW28578   6.861   7.142   0.917 -0.5835 -0.2660 -0.1510
 9046SOL    HW128579   6.933   7.197   0.888 -1.1515  0.2465 -0.6074
 9046SOL    HW228580   6.904   7.062   0.950  0.2595  0.5998  0.9087
 9047SOL     OW28581   5.805   6.322   6.821  0.6074  0.0958 -0.0691
 9047SOL    HW128582   5.766   6.308   6.735  1.0212  0.6284 -0.3486
 9047SOL    HW228583   5.807   6.235   6.861 -0.6577  0.0230 -0.1259
 9048SOL     OW28584   6.996   1.206  11.366  0.2858  0.3765  0.3385
 9048SOL    HW128585   6.981   1.292  11.406 -0.4111  0.9069 -0.9796
 9048SOL    HW228586   7.091   1.199  11.360  0.4409  2.8233 -2.9610
 9049SOL     OW28587   1.107   6.487  11.460 -0.2134 -0.2977  0.5204
 9049SOL    HW128588   1.047   6.427  11.417  1.5654 -1.2686 -0.7367
 9049SOL    HW228589   1.136   6.546  11.390  1.0053 -0.4613  0.8708
 9050SOL     OW28590   7.170   2.019   3.860 -0.2037  0.4045 -0.7910
 9050SOL    HW128591   7.087   1.989   3.896 -0.7623  1.4347 -1.1910
 9050SOL    HW228592   7.176   2.111   3.887  1.4610 -0.0120  0.4070
 9051SOL     OW28593   4.566   6.061   3.583  0.3010  0.2536 -0.4621
 9051SOL    HW128594   4.606   6.092   3.501  0.2957  2.7449  0.3844
 9051SOL    HW228595   4.473   6.053   3.562  0.1568  1.7439 -0.5306
 9052SOL     OW28596   1.396   7.968   0.105  0.0010  0.1806 -0.0948
 9052SOL    HW128597   1.385   7.987   0.198 -1.1369  1.3252 -0.4366
 9052SOL    HW228598   1.418   8.052   0.066  1.0404 -0.3964 -0.7935
 9053SOL     OW28599   7.201   1.010   7.589  0.0044 -0.4139 -0.2953
 9053SOL    HW128600   7.234   1.070   7.656 -0.1353 -0.6695  0.0061
 9053SOL    HW228601   7.108   0.997   7.612  0.2035 -1.2902  0.0580
 9054SOL     OW28602   7.529   4.423   7.883 -0.1155 -0.0878  0.3667
 9054SOL    HW128603   7.623   4.416   7.867  0.1399  2.1214  0.5688
 9054SOL    HW228604   7.505   4.339   7.921  1.7790 -0.7077  0.3158
 9055SOL     OW28605   2.256   5.424   5.681  0.1594  0.1398  0.1795
 9055SOL    HW128606   2.267   5.438   5.587 -0.6939 -0.2080  0.0230
 9055SOL    HW228607   2.314   5.489   5.721  0.9767 -0.1059 -0.5830
 9056SOL     OW28608   1.203   5.530   3.583 -0.3473 -0.0509 -0.1512
 9056SOL    HW128609   1.265   5.472   3.539  0.0347  0.2677 -0.0370
 9056SOL    HW228610   1.134   5.472   3.614 -0.0300 -0.4297 -0.1452
 9057SOL     OW28611   7.935   1.304   0.031 -0.2803 -0.2637 -0.4491
 9057SOL    HW128612   7.954   1.394   0.006 -0.0489 -0.3943 -0.7454
 9057SOL    HW228613   7.868   1.275  -0.031  1.3591 -1.0800 -1.9236
 9058SOL     OW28614   6.352   3.846   3.092  0.1741  0.3634 -0.6471
 9058SOL    HW128615   6.349   3.758   3.129 -2.7172 -0.0289 -1.5438
 9058SOL    HW228616   6.396   3.898   3.159  1.8472 -1.6952 -0.0460
 9059SOL     OW28617   6.030   7.510  10.739  0.4401 -0.1186  0.1332
 9059SOL    HW128618   6.026   7.429  10.689  0.2800  0.0177 -0.0767
 9059SOL    HW228619   6.039   7.579  10.672 -3.4941  0.4624 -0.0597
 9060SOL     OW28620   5.431   3.449   4.525  0.0637 -0.0799  0.2082
 9060SOL    HW128621   5.492   3.424   4.595  1.3808  1.0842 -0.4678
 9060SOL    HW228622   5.429   3.545   4.529 -0.7043 -0.0473 -0.6565
 9061SOL     OW28623   1.784   2.011  11.920  0.2406 -0.1270  0.1164
 9061SOL    HW128624   1.724   2.082  11.941  2.1806  0.9112  2.7631
 9061SOL    HW228625   1.854   2.053  11.869  1.1239 -0.2029  1.2287
 9062SOL     OW28626   4.355   2.732   2.503 -0.5765  0.0703  0.4209
 9062SOL    HW128627   4.334   2.656   2.557 -2.1012  1.5173  2.0117
 9062SOL    HW228628   4.399   2.793   2.562 -1.3263  1.2852 -0.2193
 9063SOL     OW28629   4.594   7.959  10.729 -0.3972 -0.1400  0.1811
 9063SOL    HW128630   4.685   7.960  10.759 -0.0076 -1.7942 -0.8026
 9063SOL    HW228631   4.597   7.915  10.644 -2.0933 -0.0367  0.0242
 9064SOL     OW28632   0.477   6.670   2.944  0.2654 -0.4139 -0.2984
 9064SOL    HW128633   0.540   6.717   2.999 -1.6451  0.5479  1.1894
 9064SOL    HW228634   0.514   6.582   2.935  2.6046  0.5592 -0.8990
 9065SOL     OW28635   0.070   0.655   5.998 -0.4637  0.4115 -0.1130
 9065SOL    HW128636   0.018   0.730   5.970  1.6250  1.7084 -0.7798
 9065SOL    HW228637   0.104   0.681   6.084  0.2542  0.2285 -0.3362
 9066SOL     OW28638   5.998   2.042  10.935 -0.7595  0.1154  0.0383
 9066SOL    HW128639   6.040   2.016  10.853  0.5500  0.3565  0.6114
 9066SOL    HW228640   5.992   1.962  10.986 -1.7800 -0.0772 -0.3712
 9067SOL     OW28641   4.804   2.242   8.608 -0.3728 -0.2092 -0.4876
 9067SOL    HW128642   4.734   2.217   8.669 -0.7524 -0.7830 -1.1433
 9067SOL    HW228643   4.882   2.199   8.643 -0.1115  1.2323  0.8008
 9068SOL     OW28644   7.353   1.204   8.249  0.1197  0.3621 -0.6787
 9068SOL    HW128645   7.286   1.154   8.202 -0.6153  0.4783  0.2175
 9068SOL    HW228646   7.389   1.143   8.313 -1.0696  1.0361  0.7048
 9069SOL     OW28647   1.069   0.813   0.023  0.0849 -0.0388  0.4873
 9069SOL    HW128648   0.994   0.785  -0.029  0.6626 -0.0692 -0.3431
 9069SOL    HW228649   1.099   0.734   0.066 -2.1759  0.4608  3.2884
 9070SOL     OW28650   1.686   7.377  10.770 -0.3462 -0.1946 -0.1603
 9070SOL    HW128651   1.707   7.288  10.744  0.1605  0.0339 -0.5437
 9070SOL    HW228652   1.677   7.372  10.866  2.0148 -0.2157  0.1175
 9071SOL     OW28653   6.239   4.235   5.871 -0.5007  0.6703 -0.3471
 9071SOL    HW128654   6.170   4.259   5.810  0.8421  3.1676 -1.0710
 9071SOL    HW228655   6.207   4.263   5.957 -1.7268 -1.3580 -0.0926
 9072SOL     OW28656   1.858   4.804  10.710  0.3590 -0.2561 -0.3768
 9072SOL    HW128657   1.906   4.815  10.627 -2.2112 -0.2887 -1.9806
 9072SOL    HW228658   1.874   4.886  10.757  3.1697 -0.8661 -0.0989
 9073SOL     OW28659   3.920   3.850  11.961 -0.1533 -0.3994 -0.7512
 9073SOL    HW128660   3.870   3.842  11.879 -0.2758 -0.9716 -0.6277
 9073SOL    HW228661   3.947   3.760  11.980 -0.1081 -0.2626 -0.1716
 9074SOL     OW28662   4.888   1.030  12.080  0.0471  0.2751 -0.4359
 9074SOL    HW128663   4.839   0.953  12.108  0.6975  0.8479  2.7067
 9074SOL    HW228664   4.832   1.104  12.102  1.6098  0.8698  2.0249
 9075SOL     OW28665   7.407   3.024   4.990 -0.0914 -0.2859 -0.4069
 9075SOL    HW128666   7.441   3.112   5.006 -3.6798  1.0802  0.8541
 9075SOL    HW228667   7.363   3.030   4.905  0.9085 -1.3495 -1.0273
 9076SOL     OW28668   1.398   6.110   1.445 -0.0393 -0.1067  0.3947
 9076SOL    HW128669   1.413   6.020   1.472 -1.5786 -0.9993 -1.4735
 9076SOL    HW228670   1.476   6.134   1.396 -0.4375 -1.1766 -0.8118
 9077SOL     OW28671   6.132   7.410   1.218 -0.0659 -0.6811  0.0132
 9077SOL    HW128672   6.217   7.454   1.217 -1.2144  1.7322 -2.3735
 9077SOL    HW228673   6.139   7.341   1.153 -0.4584  0.7718 -1.6269
 9078SOL     OW28674   3.638   6.979   7.349 -0.2510 -0.2344  0.3940
 9078SOL    HW128675   3.561   6.945   7.302  0.1802 -0.0598 -0.4439
 9078SOL    HW228676   3.607   6.991   7.439 -1.2997  0.1183  0.0034
 9079SOL     OW28677   2.011   6.187   0.708 -0.0988 -0.4933 -0.1750
 9079SOL    HW128678   2.047   6.193   0.619  2.0195 -1.2213  0.5652
 9079SOL    HW228679   2.058   6.254   0.758 -0.6141 -0.6956  0.6106
 9080SOL     OW28680   6.509   3.471   5.231 -0.5117  0.0878  0.3818
 9080SOL    HW128681   6.550   3.479   5.317  1.7937 -2.1877 -0.3467
 9080SOL    HW228682   6.442   3.403   5.243  0.4958 -0.9748  0.2488
 9081SOL     OW28683   0.098   7.856  10.399 -0.1774  0.5158 -0.1609
 9081SOL    HW128684   0.110   7.829  10.490  0.8823 -1.3695 -0.8225
 9081SOL    HW228685   0.032   7.796  10.364 -2.0598  2.4596 -0.1705
 9082SOL     OW28686   5.355   7.827   2.177  0.3498  0.0323 -0.1093
 9082SOL    HW128687   5.386   7.795   2.262  2.2252  0.8373 -0.4603
 9082SOL    HW228688   5.434   7.838   2.125 -0.6029  1.3768 -1.3346
 9083SOL     OW28689   2.223   7.983   4.288 -0.4968 -1.1287  0.3574
 9083SOL    HW128690   2.266   7.915   4.339 -1.2767 -1.8689  0.0439
 9083SOL    HW228691   2.201   7.942   4.205 -1.0193 -0.5191  0.1791
 9084SOL     OW28692   3.175   0.312   0.072  0.0551  0.2527  0.3703
 9084SOL    HW128693   3.147   0.403   0.085 -0.7675  0.1546 -0.5875
 9084SOL    HW228694   3.207   0.310  -0.018  1.2527 -0.1299  0.7876
 9085SOL     OW28695   0.316   3.628   9.257  0.1513 -0.2480  0.2285
 9085SOL    HW128696   0.237   3.574   9.254  0.7718 -1.4533  2.5933
 9085SOL    HW228697   0.291   3.703   9.311 -0.0682  0.7281 -1.1873
 9086SOL     OW28698   5.447   5.802   6.741 -0.5000 -0.0355  0.0939
 9086SOL    HW128699   5.452   5.887   6.698 -0.7210  0.6993  1.4803
 9086SOL    HW228700   5.386   5.815   6.814  1.8890 -0.5023  2.2912
 9087SOL     OW28701   4.704   0.545  11.355  0.0912  0.1594  0.5057
 9087SOL    HW128702   4.654   0.464  11.360  1.4629 -0.6973  1.1295
 9087SOL    HW228703   4.783   0.527  11.406  1.0498  1.4339 -0.4667
 9088SOL     OW28704   6.139   4.750   1.441  0.3416 -0.1971  0.2714
 9088SOL    HW128705   6.141   4.703   1.525 -1.3011  0.7083  0.8672
 9088SOL    HW228706   6.178   4.689   1.379  1.4088 -0.9828  1.6467
 9089SOL     OW28707   7.213   5.458   9.620 -0.4281 -0.5402  0.0749
 9089SOL    HW128708   7.232   5.509   9.698  1.5949  0.4029 -0.9688
 9089SOL    HW228709   7.298   5.440   9.581 -1.3852 -0.3168 -2.3014
 9090SOL     OW28710   6.746   1.701   4.139  0.1114 -0.3536  0.2606
 9090SOL    HW128711   6.836   1.730   4.131  0.2868 -0.9848 -0.0954
 9090SOL    HW228712   6.733   1.688   4.233 -0.6109  2.8159  0.7181
 9091SOL     OW28713   3.824   7.929   7.753  0.3030 -0.4724  0.4146
 9091SOL    HW128714   3.804   7.848   7.799  1.1982 -0.2974  1.1369
 9091SOL    HW228715   3.908   7.912   7.709  1.0346  0.3730  1.4173
 9092SOL     OW28716   6.789   6.611  11.867  0.2318 -0.3203  0.8605
 9092SOL    HW128717   6.806   6.675  11.798  1.7290 -1.4946  0.0909
 9092SOL    HW228718   6.870   6.606  11.916 -0.6454  0.0999  2.4198
 9093SOL     OW28719   3.590   5.577   0.543  0.2671 -0.0046 -0.0911
 9093SOL    HW128720   3.555   5.551   0.628 -0.9576 -0.7943 -0.8036
 9093SOL    HW228721   3.685   5.573   0.553  0.1624  0.8998  1.5187
 9094SOL     OW28722   1.336   4.745   7.326 -0.1343  0.5672  0.1621
 9094SOL    HW128723   1.289   4.829   7.321 -0.3251  0.4640  0.2160
 9094SOL    HW228724   1.267   4.680   7.343  0.0897  0.4824  0.7925
 9095SOL     OW28725   5.634   1.516   8.672 -0.0537  0.0864 -0.6252
 9095SOL    HW128726   5.657   1.423   8.666  1.3311  0.4117 -0.8033
 9095SOL    HW228727   5.637   1.536   8.765 -2.6384 -0.5385 -0.3256
 9096SOL     OW28728   0.094   7.621  11.992  0.1704 -0.2482 -0.1180
 9096SOL    HW128729   0.124   7.532  11.972  0.2912 -0.1355 -0.4482
 9096SOL    HW228730   0.083   7.622  12.087 -0.4838 -0.8233 -0.1716
 9097SOL     OW28731   1.004   7.320   2.781  0.2382  0.0834  0.8158
 9097SOL    HW128732   0.985   7.414   2.778 -0.6288 -0.0675  1.4475
 9097SOL    HW228733   0.919   7.278   2.783  0.5937 -0.7935 -0.7741
 9098SOL     OW28734   2.487   1.575  11.115 -0.3059  0.1179 -0.1484
 9098SOL    HW128735   2.506   1.550  11.206 -1.2044 -0.0729 -0.0015
 9098SOL    HW228736   2.425   1.509  11.085 -0.5019  0.5491 -0.7016
 9099SOL     OW28737   7.710   7.790   6.405 -0.3174  0.3575 -0.3420
 9099SOL    HW128738   7.799   7.806   6.372 -0.1001  1.5579  0.7460
 9099SOL    HW228739   7.671   7.877   6.412 -1.9352 -0.2035 -1.6535
 9100SOL     OW28740   1.439   2.005   9.673  0.0119 -0.5232 -0.4402
 9100SOL    HW128741   1.378   1.998   9.747 -1.0072 -0.0826 -1.2106
 9100SOL    HW228742   1.420   1.929   9.619  0.0255 -0.2896 -0.7743
 9101SOL     OW28743   5.058   4.777   9.227 -0.3897  0.2855 -0.3488
 9101SOL    HW128744   5.073   4.788   9.320  0.2321 -1.2913 -0.2209
 9101SOL    HW228745   5.146   4.768   9.189 -0.6778 -1.2605 -0.7393
 9102SOL     OW28746   4.691   4.568   6.106 -0.6894 -0.5622  0.0469
 9102SOL    HW128747   4.712   4.656   6.075 -0.5628 -0.3754  0.6518
 9102SOL    HW228748   4.691   4.576   6.202 -1.4373 -1.0423  0.0918
 9103SOL     OW28749   1.296   6.568   9.397  0.4175 -0.7433  0.5612
 9103SOL    HW128750   1.309   6.623   9.320  0.0865 -2.0924 -0.4975
 9103SOL    HW228751   1.380   6.569   9.442  0.3571  0.7674  0.6813
 9104SOL     OW28752   2.880   3.317   2.320  0.1294 -0.1273 -0.0281
 9104SOL    HW128753   2.909   3.408   2.318  0.3327 -0.2048 -0.7370
 9104SOL    HW228754   2.927   3.275   2.249 -0.0526 -0.7652  0.2203
 9105SOL     OW28755   6.451   3.391   3.626 -0.0606  0.1694  0.2589
 9105SOL    HW128756   6.358   3.373   3.643  0.3288  0.6392  3.6489
 9105SOL    HW228757   6.454   3.484   3.603 -0.5602 -0.3407 -2.1816
 9106SOL     OW28758   7.481   6.526   4.946 -0.4433 -0.3094 -0.0344
 9106SOL    HW128759   7.445   6.559   5.028  0.9761 -0.1181  0.5403
 9106SOL    HW228760   7.457   6.434   4.944 -1.8209  0.0187 -0.1867
 9107SOL     OW28761   1.966   6.174   9.203  0.7879 -0.0420  0.0378
 9107SOL    HW128762   2.007   6.231   9.138  0.0719  0.7782  0.2721
 9107SOL    HW228763   2.006   6.200   9.286  0.0576  0.5395  0.2230
 9108SOL     OW28764   0.670   7.975   3.927  0.2210 -0.5361  0.0026
 9108SOL    HW128765   0.729   8.031   3.877 -0.6401 -0.0860 -0.5334
 9108SOL    HW228766   0.587   7.980   3.880 -0.5625 -0.2463  1.3666
 9109SOL     OW28767   2.137   2.420   0.871 -0.2621  0.4253 -0.2784
 9109SOL    HW128768   2.054   2.396   0.912  0.1291 -1.1433 -0.3312
 9109SOL    HW228769   2.173   2.489   0.926  0.7816 -2.3273  2.8532
 9110SOL     OW28770   5.983   0.780   8.364  0.7978 -0.2589  0.1943
 9110SOL    HW128771   5.969   0.688   8.387 -0.6431 -0.4506 -1.2622
 9110SOL    HW228772   6.010   0.777   8.272  1.8735  0.7222  0.4618
 9111SOL     OW28773   0.832   2.443   2.338 -0.4985  0.4220 -0.4195
 9111SOL    HW128774   0.794   2.402   2.417  0.4460 -0.6310 -0.4833
 9111SOL    HW228775   0.825   2.537   2.354  0.4269  0.2463  1.3206
 9112SOL     OW28776   3.631   1.070   2.048 -0.6796 -0.7157 -0.2739
 9112SOL    HW128777   3.606   0.985   2.013 -0.8289 -0.4726 -0.7700
 9112SOL    HW228778   3.578   1.133   1.999  0.8752 -0.1827 -1.3439
 9113SOL     OW28779   2.048   7.870  12.231  0.3852  0.0779  0.2952
 9113SOL    HW128780   2.045   7.854  12.326 -2.0577 -2.1217 -0.0531
 9113SOL    HW228781   2.138   7.846  12.207  1.3844  1.6405  2.1357
 9114SOL     OW28782   2.486   3.352   9.825  0.1484  0.1835 -0.0821
 9114SOL    HW128783   2.445   3.301   9.895  0.2117 -0.2719 -0.3728
 9114SOL    HW228784   2.557   3.399   9.868  0.9536 -1.0197 -0.0587
 9115SOL     OW28785   6.486   6.411  11.446  0.6810  0.0421 -0.1116
 9115SOL    HW128786   6.543   6.341  11.478 -1.2288 -0.4535  2.5326
 9115SOL    HW228787   6.399   6.388  11.478  0.1575  4.4417  2.4781
 9116SOL     OW28788   7.473   3.631   4.373  0.2692 -0.4505 -0.2924
 9116SOL    HW128789   7.463   3.726   4.384 -2.4851 -0.7003 -0.0442
 9116SOL    HW228790   7.419   3.610   4.298  0.9676 -1.8384 -0.4286
 9117SOL     OW28791   7.419   5.677   3.081 -0.1204 -0.0163  0.1289
 9117SOL    HW128792   7.488   5.742   3.090  0.4959 -0.7117  0.6126
 9117SOL    HW228793   7.364   5.710   3.011  1.0996  0.2247 -0.7639
 9118SOL     OW28794   1.200   7.460  10.736  0.1510  0.0368  0.2210
 9118SOL    HW128795   1.255   7.421  10.668  0.1171  0.2221  0.0868
 9118SOL    HW228796   1.111   7.441  10.709  0.1552 -0.6970  0.6971
 9119SOL     OW28797   7.235   3.367   8.689  0.3103  1.1816 -0.2792
 9119SOL    HW128798   7.205   3.277   8.677 -1.5255  1.8153 -0.8655
 9119SOL    HW228799   7.259   3.396   8.601  0.8550  1.2867 -0.1006
 9120SOL     OW28800   2.412   6.976   1.652  0.3631 -0.0385  0.6943
 9120SOL    HW128801   2.334   6.930   1.623  0.2840  0.2884  0.3732
 9120SOL    HW228802   2.448   7.015   1.572  0.3944  0.4973  0.9622
 9121SOL     OW28803   5.961   5.367   4.426  0.2146 -0.1554 -0.1260
 9121SOL    HW128804   6.019   5.347   4.352 -1.1298  1.3112 -1.6696
 9121SOL    HW228805   5.878   5.323   4.404  0.0909 -0.5147  1.0134
 9122SOL     OW28806   7.942   5.091  10.514  0.2665  0.0957 -0.0568
 9122SOL    HW128807   8.033   5.119  10.508  0.3570 -0.3217 -0.6237
 9122SOL    HW228808   7.902   5.156  10.573  0.6802  0.9049 -0.6479
 9123SOL     OW28809   1.418   1.010   9.874 -0.0811  0.2599 -0.1948
 9123SOL    HW128810   1.414   0.932   9.818  1.0181  0.4373 -0.5561
 9123SOL    HW228811   1.327   1.030   9.894 -0.4938 -0.0281 -1.6340
 9124SOL     OW28812   4.917   5.949  11.909  0.0913 -0.5768 -0.1652
 9124SOL    HW128813   4.857   5.951  11.983 -0.4609  1.3773 -0.5959
 9124SOL    HW228814   4.997   5.911  11.945 -1.2399 -2.9121  0.5038
 9125SOL     OW28815   5.055   0.973   7.011  1.0359 -0.1657  0.1568
 9125SOL    HW128816   5.024   0.895   7.057  0.5280  0.5106  0.9790
 9125SOL    HW228817   5.038   1.046   7.071 -1.4124  1.0183 -1.7807
 9126SOL     OW28818   6.179   0.722   1.181 -0.0843  0.5326 -0.0335
 9126SOL    HW128819   6.191   0.793   1.245 -1.2074  0.8165 -0.1116
 9126SOL    HW228820   6.247   0.737   1.116  1.1549  0.1750  1.1353
 9127SOL     OW28821   1.353   2.676   6.728  0.3193 -0.7185 -0.1010
 9127SOL    HW128822   1.289   2.639   6.668 -0.2561  0.1627 -0.0602
 9127SOL    HW228823   1.349   2.771   6.712 -0.5380 -0.3430  1.9268
 9128SOL     OW28824   6.664   1.134   5.419  0.3026 -0.3667 -0.5728
 9128SOL    HW128825   6.665   1.228   5.399 -0.4780  0.3108  2.2115
 9128SOL    HW228826   6.573   1.108   5.411  0.1792 -0.3706  0.6452
 9129SOL     OW28827   6.919   1.507   9.661 -0.0459 -0.1672 -0.6980
 9129SOL    HW128828   6.964   1.567   9.720  0.9461 -0.3636 -1.2288
 9129SOL    HW228829   6.916   1.424   9.708 -2.8703  0.6451  0.7121
 9130SOL     OW28830   0.929   7.134   7.846  0.2572  0.7244 -0.5816
 9130SOL    HW128831   0.989   7.170   7.912 -0.2191 -0.2357  0.4040
 9130SOL    HW228832   0.987   7.098   7.779  0.7641  1.2354 -0.4237
 9131SOL     OW28833   7.709   3.484   0.961  0.2580 -0.1269 -0.0486
 9131SOL    HW128834   7.625   3.438   0.966  0.4437 -0.4157  0.4213
 9131SOL    HW228835   7.730   3.505   1.052  0.8741 -0.3766 -0.1325
 9132SOL     OW28836   6.785   5.747   1.754  0.3186 -0.5548 -0.4545
 9132SOL    HW128837   6.875   5.716   1.761  1.3213  2.0673 -0.7005
 9132SOL    HW228838   6.791   5.827   1.702 -1.8922  0.6943  1.0478
 9133SOL     OW28839   3.877   2.962   7.378  0.0626 -0.5650 -0.4594
 9133SOL    HW128840   3.809   2.959   7.446  1.5483 -0.3721  1.0914
 9133SOL    HW228841   3.830   2.942   7.297 -1.8832 -0.2351  0.5144
 9134SOL     OW28842   4.367   1.744   8.746 -0.5521  0.5930  0.7531
 9134SOL    HW128843   4.286   1.788   8.719 -0.8534 -0.0644  0.5558
 9134SOL    HW228844   4.337   1.671   8.801 -0.1359 -0.0092  0.1968
 9135SOL     OW28845   6.301   4.996   9.211 -0.0087 -0.0353  0.0853
 9135SOL    HW128846   6.301   4.980   9.117 -0.4408  0.7891 -0.0707
 9135SOL    HW228847   6.335   4.916   9.250  0.8974 -0.1099 -0.8222
 9136SOL     OW28848   3.178   4.796  10.484 -0.3193  0.0073 -0.0059
 9136SOL    HW128849   3.108   4.850  10.448 -0.6296 -1.1473 -1.2027
 9136SOL    HW228850   3.223   4.854  10.545  0.1391  2.0357 -2.1242
 9137SOL     OW28851   4.105   6.811   4.471  0.2946 -0.1217  0.3887
 9137SOL    HW128852   4.113   6.905   4.454 -1.3292 -0.1423 -0.6678
 9137SOL    HW228853   4.193   6.776   4.453  0.6344  1.0352 -0.3137
 9138SOL     OW28854   0.427   3.702  12.077  0.1604 -0.0222 -0.3112
 9138SOL    HW128855   0.510   3.749  12.069  0.0877 -0.0192 -1.2088
 9138SOL    HW228856   0.427   3.666  12.166  1.5991 -0.9169 -0.6520
 9139SOL     OW28857   0.504   3.005   0.330  0.4984  0.0390  0.3793
 9139SOL    HW128858   0.560   3.076   0.360  0.4824 -0.6187  2.0449
 9139SOL    HW228859   0.454   2.979   0.407  0.9428 -2.1814 -0.0151
 9140SOL     OW28860   7.044   4.806   4.789  0.3939  0.0597 -0.2266
 9140SOL    HW128861   7.048   4.712   4.806 -1.4429 -0.3150 -1.5444
 9140SOL    HW228862   6.986   4.840   4.856  1.7748  0.4608  0.8198
 9141SOL     OW28863   6.661   3.060   7.529  0.0436 -0.3285 -0.4247
 9141SOL    HW128864   6.748   3.025   7.508  0.5704  0.1255  0.8604
 9141SOL    HW228865   6.678   3.152   7.551 -0.3845 -0.7753  2.0234
 9142SOL     OW28866   0.250   0.913   5.137  0.0420 -0.5091  0.0746
 9142SOL    HW128867   0.285   0.979   5.078 -0.9328 -0.4130 -0.4288
 9142SOL    HW228868   0.291   0.831   5.110  0.4749 -0.2794  0.0285
 9143SOL     OW28869   6.722   6.237   3.830  0.3547  0.1994  0.3941
 9143SOL    HW128870   6.777   6.212   3.755  0.5647  0.6169  0.4051
 9143SOL    HW228871   6.783   6.248   3.902  0.3548  1.2779  0.2594
 9144SOL     OW28872   7.758   0.666  11.771 -0.2396  0.0739 -0.1841
 9144SOL    HW128873   7.816   0.731  11.811  1.4565 -0.4773 -1.6351
 9144SOL    HW228874   7.680   0.715  11.746  0.9539  1.5457 -1.1468
 9145SOL     OW28875   1.246   3.700   0.241  0.2038 -0.2385  0.0225
 9145SOL    HW128876   1.165   3.698   0.188  0.2277 -0.8806  0.0039
 9145SOL    HW228877   1.269   3.608   0.252  0.5835 -0.0772  0.5750
 9146SOL     OW28878   2.490   7.544   6.002 -0.2927 -0.2841 -0.0095
 9146SOL    HW128879   2.536   7.527   6.084 -0.4636  1.1333  0.4004
 9146SOL    HW228880   2.556   7.584   5.945 -0.4967 -0.1315 -0.1401
 9147SOL     OW28881   7.472   7.397   5.655  0.9588  0.2059  0.3207
 9147SOL    HW128882   7.407   7.468   5.658  0.4588 -0.0718 -2.0721
 9147SOL    HW228883   7.421   7.317   5.671  0.8199  0.0557 -0.8260
 9148SOL     OW28884   7.297   5.916   1.129 -0.3074 -0.2107 -0.3664
 9148SOL    HW128885   7.258   5.901   1.215  1.1942  0.5770  0.4894
 9148SOL    HW228886   7.255   5.996   1.098 -0.0559  0.1293  0.1451
 9149SOL     OW28887   5.517   3.998   8.271  0.2929 -0.5250  0.4033
 9149SOL    HW128888   5.489   4.013   8.181  2.1456 -0.1750 -0.1604
 9149SOL    HW228889   5.438   4.013   8.324 -0.2490  1.9067 -0.9253
 9150SOL     OW28890   1.435   1.469   5.229 -0.4523  0.0390  0.2202
 9150SOL    HW128891   1.436   1.530   5.303 -0.3491  0.2203  0.0726
 9150SOL    HW228892   1.437   1.526   5.152  0.5903 -0.1722  0.0809
 9151SOL     OW28893   4.373   1.273   0.076 -0.2463  0.3298 -0.0616
 9151SOL    HW128894   4.438   1.340   0.056 -0.1608  0.5007  0.7861
 9151SOL    HW228895   4.291   1.321   0.085 -0.3824  0.1882 -0.4834
 9152SOL     OW28896   0.786   7.866   5.843  0.0225 -0.2768 -0.2459
 9152SOL    HW128897   0.812   7.955   5.819  1.3647 -0.8663 -1.0724
 9152SOL    HW228898   0.764   7.872   5.936 -0.3130  0.9953 -0.3845
 9153SOL     OW28899   3.903   6.689   4.294 -0.5140  0.3521 -0.2982
 9153SOL    HW128900   3.943   6.642   4.221 -1.3439 -0.6992 -0.0980
 9153SOL    HW228901   3.978   6.718   4.347  0.0264 -0.9984 -0.2794
 9154SOL     OW28902   6.750   3.708  10.016  0.0722 -0.5710 -0.0963
 9154SOL    HW128903   6.722   3.618  10.001  1.1023 -0.7908 -0.8473
 9154SOL    HW228904   6.841   3.710   9.987 -0.0984  0.8605 -0.6189
 9155SOL     OW28905   7.754   2.168   7.578 -0.2792 -0.7234  0.4907
 9155SOL    HW128906   7.767   2.253   7.621  0.5950 -0.9013  0.5846
 9155SOL    HW228907   7.701   2.189   7.500 -0.6629 -0.2004  0.8841
 9156SOL     OW28908   7.142   0.232  10.005  0.0514  0.1163  0.4961
 9156SOL    HW128909   7.154   0.137  10.005  0.9953  0.2212  0.5554
 9156SOL    HW228910   7.228   0.266  10.029 -0.4128  0.9724  0.9900
 9157SOL     OW28911   7.394   7.883  10.478  0.1055 -0.2112 -0.2546
 9157SOL    HW128912   7.444   7.835  10.412 -0.4132 -0.8459 -0.1989
 9157SOL    HW228913   7.456   7.897  10.549 -0.1999 -2.4357  0.5179
 9158SOL     OW28914   5.027   7.134   4.897  0.0369 -0.6234 -0.6390
 9158SOL    HW128915   4.986   7.104   4.815  1.1724 -0.7192 -1.1861
 9158SOL    HW228916   5.096   7.070   4.914 -0.4348 -0.8116  0.6150
 9159SOL     OW28917   3.528   2.049   8.807 -0.2261  0.1882 -0.2711
 9159SOL    HW128918   3.442   2.008   8.813 -0.7225  1.1290 -0.7426
 9159SOL    HW228919   3.534   2.080   8.717 -0.3228  2.1020  0.3427
 9160SOL     OW28920   2.033   3.980   0.151  0.1512 -0.7087 -0.4866
 9160SOL    HW128921   2.052   3.931   0.070  0.1271 -0.4308 -0.6607
 9160SOL    HW228922   2.100   3.951   0.212  0.7285 -0.2406 -0.8912
 9161SOL     OW28923   0.738   6.091   1.526  0.0271 -0.0722  0.3468
 9161SOL    HW128924   0.786   6.168   1.496 -0.8667 -0.3344 -1.9501
 9161SOL    HW228925   0.789   6.058   1.600  1.4210  1.6583  0.2154
 9162SOL     OW28926   5.922   0.033   1.858  0.2559 -0.0498  0.2443
 9162SOL    HW128927   5.934   0.023   1.953  0.2759  2.5402  0.5719
 9162SOL    HW228928   6.010   0.055   1.826  0.0577  0.0649 -0.2207
 9163SOL     OW28929   4.077   0.971  11.742 -0.1276 -0.0052  0.4784
 9163SOL    HW128930   4.062   1.037  11.809 -0.3644  0.3761  0.0540
 9163SOL    HW228931   4.167   0.986  11.714 -0.5500  0.9107 -0.4433
 9164SOL     OW28932   7.174   4.405   2.924 -0.4702  0.1951  0.1636
 9164SOL    HW128933   7.086   4.436   2.943 -0.9989 -1.8777  1.4349
 9164SOL    HW228934   7.226   4.485   2.916 -2.0910  1.4389  1.2834
 9165SOL     OW28935   4.020   2.861   3.086 -0.0137  0.3079  0.5928
 9165SOL    HW128936   4.049   2.941   3.131 -0.2954  0.5936  0.2684
 9165SOL    HW228937   3.925   2.860   3.097 -0.1721  0.8009 -0.6788
 9166SOL     OW28938   7.621   1.582   3.012 -0.3718  0.4584 -0.6176
 9166SOL    HW128939   7.657   1.570   2.924 -1.1091  0.2101 -0.8876
 9166SOL    HW228940   7.646   1.502   3.059  0.5382  0.8466 -0.4088
 9167SOL     OW28941   5.800   5.255  12.455 -0.0052 -0.0229 -0.2088
 9167SOL    HW128942   5.705   5.270  12.452  0.1242  1.0518  0.6302
 9167SOL    HW228943   5.815   5.221  12.543  0.3886 -0.2722 -0.3722
 9168SOL     OW28944   2.387   5.320  11.548 -0.1504 -0.6785  0.2825
 9168SOL    HW128945   2.378   5.248  11.609 -0.3323  1.6838  3.2579
 9168SOL    HW228946   2.480   5.342  11.551 -0.5161  0.9008  1.6257
 9169SOL     OW28947   2.163   4.380   1.508  0.3556  0.0678 -0.4553
 9169SOL    HW128948   2.148   4.294   1.546 -0.7744 -0.4132 -1.8982
 9169SOL    HW228949   2.258   4.392   1.514  0.2489  0.2204  2.7768
 9170SOL     OW28950   4.348   7.567   8.145  0.2457  0.0842  0.0618
 9170SOL    HW128951   4.270   7.566   8.091 -0.1584 -0.7572  0.6452
 9170SOL    HW228952   4.403   7.497   8.110  0.9357  0.9214 -0.5978
 9171SOL     OW28953   1.420   4.666  12.462  0.1560  0.4521 -0.2679
 9171SOL    HW128954   1.459   4.638  12.379  0.0910  0.7326 -0.3947
 9171SOL    HW228955   1.398   4.758  12.448 -2.1359 -0.1031 -0.8100
 9172SOL     OW28956   4.480   4.609  10.741  0.7563  0.2079  0.6065
 9172SOL    HW128957   4.520   4.603  10.828 -0.0478 -0.3602  0.9426
 9172SOL    HW228958   4.513   4.533  10.694  0.5308  0.0637  0.6849
 9173SOL     OW28959   0.597   6.966   8.758 -0.4059  0.0436  0.1317
 9173SOL    HW128960   0.642   6.936   8.679  0.7810  0.3647  0.6681
 9173SOL    HW228961   0.521   6.908   8.765  1.2827 -2.2733  0.5944
 9174SOL     OW28962   7.297   2.150  11.050 -0.4237  0.4689  0.5683
 9174SOL    HW128963   7.334   2.062  11.046 -0.5267  0.4014  1.0044
 9174SOL    HW228964   7.243   2.158  10.972  0.7210  0.6684 -0.2157
 9175SOL     OW28965   4.183   2.553   8.565  0.2171  0.2236  0.1894
 9175SOL    HW128966   4.262   2.560   8.511  0.3523  1.4237  0.5211
 9175SOL    HW228967   4.120   2.612   8.524 -0.8620 -1.4101 -0.6059
 9176SOL     OW28968   2.641   6.804   6.196  0.2445  0.2853 -0.1730
 9176SOL    HW128969   2.717   6.838   6.149 -0.2876  1.7733 -0.0120
 9176SOL    HW228970   2.591   6.757   6.129  1.7443 -1.5514 -0.0761
 9177SOL     OW28971   4.616   1.647   2.939 -0.0633  0.5908 -0.5868
 9177SOL    HW128972   4.654   1.583   2.999 -0.5044  0.3803 -0.5256
 9177SOL    HW228973   4.608   1.727   2.992 -0.3910  0.4252 -0.3829
 9178SOL     OW28974   1.518   5.363   7.704  0.6875  0.2834  0.1347
 9178SOL    HW128975   1.501   5.447   7.746  0.4315  0.0790  0.4434
 9178SOL    HW228976   1.614   5.358   7.700  0.7075  0.4884  0.3240
 9179SOL     OW28977   5.486   1.105   7.021  0.0384 -0.1611 -0.0215
 9179SOL    HW128978   5.409   1.080   6.971 -0.2387  0.1721  0.2252
 9179SOL    HW228979   5.482   1.201   7.024  0.6434 -0.1224 -0.2861
 9180SOL     OW28980   7.400   7.142  12.423  0.4043  0.1163 -0.2642
 9180SOL    HW128981   7.378   7.136  12.330 -0.5271 -0.5979 -0.0141
 9180SOL    HW228982   7.484   7.187  12.424 -0.7433  2.4480 -1.3118
 9181SOL     OW28983   0.446   1.771   7.938 -0.4175  0.9290 -0.0413
 9181SOL    HW128984   0.476   1.850   7.981 -1.5729  0.9791  0.7286
 9181SOL    HW228985   0.351   1.771   7.951 -0.3161 -1.3531  1.3578
 9182SOL     OW28986   7.192   5.551   6.358  0.7964  0.0897  0.5780
 9182SOL    HW128987   7.250   5.500   6.415  1.4046  0.5377  0.3756
 9182SOL    HW228988   7.173   5.630   6.409  1.5691  0.6192  0.0606
 9183SOL     OW28989   7.478   6.543   1.456 -0.0649  0.0867 -0.1833
 9183SOL    HW128990   7.516   6.463   1.420 -0.5440  0.5875 -1.9029
 9183SOL    HW228991   7.542   6.611   1.435 -0.5405  0.4508 -0.4690
 9184SOL     OW28992   2.141   1.649  11.022 -0.0020  0.5805  0.1923
 9184SOL    HW128993   2.174   1.560  11.033 -0.7830 -0.1563 -2.5579
 9184SOL    HW228994   2.201   1.689  10.958 -1.1481  1.0969 -0.5998
 9185SOL     OW28995   5.755   5.266  10.342  0.2295  0.0087  0.2804
 9185SOL    HW128996   5.787   5.311  10.420  0.9099  1.1960 -0.6465
 9185SOL    HW228997   5.835   5.237  10.297 -0.1122  0.2313 -0.4866
 9186SOL     OW28998   7.470   1.972   6.222  1.1539 -0.1739  0.0664
 9186SOL    HW128999   7.446   1.991   6.313 -1.0065  0.9480 -0.6565
 9186SOL    HW229000   7.491   2.057   6.184 -2.5967  0.2407 -1.6003
 9187SOL     OW29001   6.341   4.627   3.550  0.3199 -0.5238 -0.1420
 9187SOL    HW129002   6.399   4.663   3.617  0.2045 -0.3989 -0.1083
 9187SOL    HW229003   6.382   4.545   3.524  0.0948 -0.8335  0.4513
 9188SOL     OW29004   4.152   2.352   9.055 -0.0316 -0.1309 -0.1863
 9188SOL    HW129005   4.110   2.410   8.991  0.5466  0.6315  0.1138
 9188SOL    HW229006   4.162   2.407   9.134 -1.7000 -1.3433  0.9539
 9189SOL     OW29007   1.272   0.519   1.631  0.2129 -0.3466  0.2288
 9189SOL    HW129008   1.277   0.424   1.631 -0.6195 -0.3998 -0.3886
 9189SOL    HW229009   1.179   0.538   1.643  0.5689  0.4185  2.1891
 9190SOL     OW29010   7.416   6.631   8.628 -0.2119  0.0221 -0.5900
 9190SOL    HW129011   7.323   6.631   8.606 -0.4210 -0.5653  0.2568
 9190SOL    HW229012   7.421   6.675   8.713  0.1362 -0.9615 -0.0849
 9191SOL     OW29013   7.135   6.137   6.981  0.2079 -0.6005  0.1958
 9191SOL    HW129014   7.098   6.049   6.990  0.1861 -0.6871 -0.6074
 9191SOL    HW229015   7.133   6.174   7.069 -2.7839 -0.2014  0.0518
 9192SOL     OW29016   2.339   0.103   9.785  0.2947 -0.1856 -0.1454
 9192SOL    HW129017   2.367   0.161   9.714  0.4366  1.3297  1.0895
 9192SOL    HW229018   2.419   0.058   9.812  0.2254 -0.8181 -0.9864
 9193SOL     OW29019   3.347   2.627  10.328 -0.1346 -0.2456 -0.2184
 9193SOL    HW129020   3.430   2.586  10.304 -0.2533 -0.3113 -0.5192
 9193SOL    HW229021   3.333   2.601  10.419 -0.5910 -1.5237 -0.6339
 9194SOL     OW29022   7.027   2.336  12.200 -0.5661 -0.3097  0.0449
 9194SOL    HW129023   7.055   2.254  12.158 -0.8341 -0.6608  0.5445
 9194SOL    HW229024   6.989   2.387  12.129 -1.7615 -1.2294 -0.0140
 9195SOL     OW29025   4.517   6.942   2.211 -0.1878  0.0414  0.1709
 9195SOL    HW129026   4.491   6.898   2.292  0.2742  1.1783  0.9536
 9195SOL    HW229027   4.572   6.877   2.166  1.2854  0.1153  1.7586
 9196SOL     OW29028   1.610   1.825   0.237 -0.0176 -0.0333  0.6746
 9196SOL    HW129029   1.664   1.801   0.161 -2.1020  1.1691 -1.3420
 9196SOL    HW229030   1.530   1.773   0.226 -1.9872  2.9133 -0.2787
 9197SOL     OW29031   2.899   5.168   0.111  0.1628  0.0436 -0.4061
 9197SOL    HW129032   2.889   5.116   0.031 -1.9112  0.5575 -0.5310
 9197SOL    HW229033   2.902   5.259   0.080 -1.0517  0.2699  0.1135
 9198SOL     OW29034   4.142   7.572   5.605  0.2380  0.0395 -0.0608
 9198SOL    HW129035   4.213   7.565   5.669  0.6706 -0.9015 -0.6240
 9198SOL    HW229036   4.118   7.665   5.606 -1.2590 -0.2303  3.0827
 9199SOL     OW29037   3.785   5.682   8.201  0.0482  0.0124  0.8066
 9199SOL    HW129038   3.790   5.687   8.105 -0.5829 -0.8105  0.7132
 9199SOL    HW229039   3.851   5.617   8.225 -0.9425 -1.0468  0.7590
 9200SOL     OW29040   6.872   6.828   0.278  0.2455  0.0066 -0.0351
 9200SOL    HW129041   6.952   6.776   0.288 -0.3302 -0.8827  0.0819
 9200SOL    HW229042   6.802   6.769   0.306 -0.4357  0.8423  0.0664
 9201SOL     OW29043   0.070   0.104   2.513  0.2569 -0.0627 -0.7833
 9201SOL    HW129044   0.099   0.177   2.568 -0.9312  0.2125 -0.4887
 9201SOL    HW229045   0.057   0.032   2.575 -2.0001  0.5131 -0.4889
 9202SOL     OW29046   1.088   0.727   9.826 -0.2076  0.6909 -0.3213
 9202SOL    HW129047   1.062   0.786   9.755 -1.6201  0.3752 -0.0818
 9202SOL    HW229048   1.141   0.660   9.782  0.1991  1.3210 -0.8178
 9203SOL     OW29049   6.256   5.803   5.379  0.4949 -0.0326 -0.0893
 9203SOL    HW129050   6.276   5.773   5.467  3.5189 -0.8873 -0.9740
 9203SOL    HW229051   6.247   5.898   5.387  0.0735 -0.1676  1.2180
 9204SOL     OW29052   4.567   3.860   0.080 -0.1807  0.3236  0.3059
 9204SOL    HW129053   4.657   3.831   0.066 -0.8941 -2.1676  0.5200
 9204SOL    HW229054   4.514   3.805   0.022 -1.7579  0.1843  1.7783
 9205SOL     OW29055   1.440   4.485   4.095 -0.1243  0.3309  0.0887
 9205SOL    HW129056   1.362   4.531   4.125 -0.2000  0.9794 -1.0136
 9205SOL    HW229057   1.411   4.396   4.076 -0.6870  0.6500 -0.6039
 9206SOL     OW29058   2.179   3.265   9.006  0.2691  0.3879 -0.0789
 9206SOL    HW129059   2.178   3.214   8.925 -0.0607 -3.0446  1.8894
 9206SOL    HW229060   2.271   3.275   9.028  0.3208  0.2161 -0.2210
 9207SOL     OW29061   5.883   7.630   5.678 -0.4798 -0.1188 -0.3834
 9207SOL    HW129062   5.839   7.714   5.689  1.1260  0.6984  0.0314
 9207SOL    HW229063   5.881   7.591   5.766 -0.9111 -0.3595 -0.4986
 9208SOL     OW29064   3.288   6.857   4.549 -0.1974  0.2228 -0.1103
 9208SOL    HW129065   3.351   6.847   4.621 -0.8073  1.3051  0.6004
 9208SOL    HW229066   3.300   6.778   4.496  1.0750 -0.0499  0.5383
 9209SOL     OW29067   2.397   5.496  11.905  0.2202  0.1632 -0.4483
 9209SOL    HW129068   2.338   5.429  11.870  1.3759 -1.1015 -0.0312
 9209SOL    HW229069   2.483   5.474  11.869  0.4948  1.8916 -0.9197
 9210SOL     OW29070   1.704   7.222  11.079  0.1018 -0.4626 -0.0805
 9210SOL    HW129071   1.795   7.196  11.062  0.0425  0.2211 -1.5865
 9210SOL    HW229072   1.704   7.248  11.172  0.9141 -2.5045  0.5356
 9211SOL     OW29073   2.652   6.449   5.284 -0.4864  0.6675  0.3917
 9211SOL    HW129074   2.592   6.376   5.268  0.9923 -0.5670  0.1552
 9211SOL    HW229075   2.735   6.421   5.244 -0.4554  3.5313 -1.8619
 9212SOL     OW29076   7.959   1.664   2.997  0.5462 -0.1804 -0.1422
 9212SOL    HW129077   7.949   1.716   2.918  2.2482  1.6939  0.7864
 9212SOL    HW229078   7.939   1.574   2.970 -0.0043  0.5732 -2.4009
 9213SOL     OW29079   7.388   4.907   5.692 -0.5664 -0.0419 -0.1056
 9213SOL    HW129080   7.421   4.833   5.640  1.6922  3.1472 -3.8467
 9213SOL    HW229081   7.330   4.954   5.632  1.8754  3.6714  0.0711
 9214SOL     OW29082   7.968   5.701   8.104  0.4296 -0.0114  0.0324
 9214SOL    HW129083   7.981   5.757   8.027 -0.4690 -0.4195 -0.4303
 9214SOL    HW229084   7.903   5.636   8.076 -0.2650  0.1095  1.2827
 9215SOL     OW29085   4.745   4.282  11.593 -0.0483 -0.1760  0.2434
 9215SOL    HW129086   4.682   4.211  11.581  0.7502 -1.0826  1.2146
 9215SOL    HW229087   4.806   4.272  11.520  0.5946 -1.0962  0.8806
 9216SOL     OW29088   1.741   0.165   8.633  0.6252 -0.3468 -0.1453
 9216SOL    HW129089   1.745   0.143   8.540 -1.9145  0.8630 -0.6096
 9216SOL    HW229090   1.658   0.128   8.663  1.0208 -0.0209  1.4492
 9217SOL     OW29091   5.599   2.013  11.035  0.1397 -0.2124  0.3713
 9217SOL    HW129092   5.582   2.086  10.975 -0.2333 -0.3989  0.2437
 9217SOL    HW229093   5.611   2.055  11.121  0.9452  0.0748  0.1262
 9218SOL     OW29094   1.806   3.562   9.081 -0.2598  0.9899 -0.0422
 9218SOL    HW129095   1.865   3.486   9.089  1.9720  2.7074  1.0255
 9218SOL    HW229096   1.718   3.524   9.083  0.7495 -1.7025 -1.4238
 9219SOL     OW29097   2.412   0.994  12.334  0.3461 -0.0979 -0.0388
 9219SOL    HW129098   2.335   0.944  12.360 -0.9177  1.0901 -1.3051
 9219SOL    HW229099   2.487   0.940  12.360 -0.9032 -1.1840  1.4178
 9220SOL     OW29100   6.771   4.936   2.672 -0.2068  0.0647 -0.3855
 9220SOL    HW129101   6.839   4.878   2.638  1.1751  1.4253 -0.0643
 9220SOL    HW229102   6.690   4.906   2.630  0.9160 -0.3254 -2.3804
 9221SOL     OW29103   0.155   4.517   3.776 -0.4109  0.2924  0.5100
 9221SOL    HW129104   0.161   4.599   3.824 -2.6844  0.4462  0.6552
 9221SOL    HW229105   0.074   4.525   3.725 -0.6680 -1.8073  0.4813
 9222SOL     OW29106   2.608   0.493   2.984 -0.6786 -0.6559  0.3934
 9222SOL    HW129107   2.676   0.527   3.041  0.5264 -1.4013 -0.5672
 9222SOL    HW229108   2.645   0.496   2.896 -2.6248  0.8270 -0.4629
 9223SOL     OW29109   3.052   1.315   3.267 -0.1715 -0.2502 -0.1632
 9223SOL    HW129110   2.994   1.383   3.233 -0.8546  0.2118  1.7463
 9223SOL    HW229111   3.062   1.253   3.196  0.2172  1.6824 -1.8778
 9224SOL     OW29112   3.144   1.440   3.518  0.0287  0.2298  0.1921
 9224SOL    HW129113   3.118   1.412   3.430  1.0288 -0.1469 -0.0018
 9224SOL    HW229114   3.237   1.418   3.523  0.1640  0.9460  1.0735
 9225SOL     OW29115   5.105   2.979   8.115  0.0572 -0.1651  0.3671
 9225SOL    HW129116   5.188   2.933   8.126 -0.6401 -1.1055  2.2233
 9225SOL    HW229117   5.046   2.915   8.076 -1.1692 -1.3208  3.7743
 9226SOL     OW29118   5.670   6.532   7.398 -0.3203  0.3619 -0.0860
 9226SOL    HW129119   5.673   6.547   7.303 -2.6220  1.2224 -0.0833
 9226SOL    HW229120   5.688   6.438   7.407  0.4254  0.3537 -1.2980
 9227SOL     OW29121   7.731   4.721   4.450  0.1550  0.1406  0.1242
 9227SOL    HW129122   7.750   4.764   4.367 -2.4417 -0.6089 -0.9489
 9227SOL    HW229123   7.649   4.760   4.479 -0.6938 -1.9107  0.6659
 9228SOL     OW29124   2.710   2.515  10.166 -0.1558  0.5432 -0.0699
 9228SOL    HW129125   2.694   2.556  10.251 -0.2111 -2.2101  1.3520
 9228SOL    HW229126   2.804   2.527  10.151  0.2235 -0.4310  1.2813
 9229SOL     OW29127   0.540   1.574  10.973  0.4872  0.0496  0.1156
 9229SOL    HW129128   0.485   1.639  10.929  0.1786 -0.4895 -0.3128
 9229SOL    HW229129   0.572   1.518  10.902  1.6401  0.3766  0.3489
 9230SOL     OW29130   2.437   7.026   8.139  0.1689  0.7384  0.0811
 9230SOL    HW129131   2.368   6.962   8.153  0.4831  0.0121 -1.4618
 9230SOL    HW229132   2.395   7.095   8.086  0.1590  1.1906  0.6743
 9231SOL     OW29133   3.829   7.513   6.748 -0.4482  0.4152  0.5392
 9231SOL    HW129134   3.819   7.418   6.751 -1.7808  0.5648  1.5477
 9231SOL    HW229135   3.821   7.541   6.839  2.4882  1.2946  0.6141
 9232SOL     OW29136   6.319   2.644   4.987 -0.0844  0.0891 -0.2235
 9232SOL    HW129137   6.349   2.623   4.899 -1.3135 -0.5934 -0.5066
 9232SOL    HW229138   6.333   2.738   4.996 -2.0676  0.6307 -2.0423
 9233SOL     OW29139   2.800   6.329   5.512 -0.1930  0.4129 -0.2445
 9233SOL    HW129140   2.847   6.411   5.527  0.3000  0.4595 -1.8721
 9233SOL    HW229141   2.719   6.356   5.468 -0.3474  0.0731 -0.1751
 9234SOL     OW29142   2.819   6.119  12.407 -0.5745 -0.4664 -0.5069
 9234SOL    HW129143   2.892   6.066  12.438 -1.5011 -2.1005 -1.0156
 9234SOL    HW229144   2.795   6.080  12.323 -0.3152  1.7351 -1.6688
 9235SOL     OW29145   0.894   2.664  12.458  0.1368 -0.3479  0.6098
 9235SOL    HW129146   0.798   2.661  12.459  0.1019  0.1576  0.0126
 9235SOL    HW229147   0.922   2.584  12.503 -0.5691 -1.3183 -0.6124
 9236SOL     OW29148   7.647   3.925   8.547  0.3218 -0.3859  0.3289
 9236SOL    HW129149   7.608   3.837   8.546 -0.0109 -0.2400 -0.0181
 9236SOL    HW229150   7.735   3.913   8.512  0.5286 -0.6898  0.9328
 9237SOL     OW29151   0.735   4.683   5.056  1.2477 -0.6282  0.1144
 9237SOL    HW129152   0.802   4.693   5.124  1.5534  0.9703 -0.3875
 9237SOL    HW229153   0.668   4.747   5.079  0.4696 -1.3535 -0.0880
 9238SOL     OW29154   0.429   3.569  10.280 -0.1999  1.0161  0.1753
 9238SOL    HW129155   0.477   3.643  10.317 -1.4893  2.8042 -1.5564
 9238SOL    HW229156   0.338   3.597  10.280 -0.6421 -0.3267 -1.0854
 9239SOL     OW29157   7.939   6.139  12.454 -0.1374 -0.0908 -0.0207
 9239SOL    HW129158   7.846   6.117  12.459 -0.2479  0.3966  0.1136
 9239SOL    HW229159   7.977   6.100  12.532 -0.5332  1.1572  0.8125
 9240SOL     OW29160   6.338   6.499   7.420  0.3723 -0.2140 -0.0516
 9240SOL    HW129161   6.376   6.581   7.451  0.4361 -0.0527 -0.5475
 9240SOL    HW229162   6.383   6.431   7.470 -0.7035  0.1119  1.4236
 9241SOL     OW29163   0.074   6.323   7.671 -0.0151  0.4261 -0.0849
 9241SOL    HW129164   0.168   6.336   7.665  0.1763 -0.5316  0.7044
 9241SOL    HW229165   0.051   6.352   7.759 -0.0091 -1.8366  0.7144
 9242SOL     OW29166   4.369   0.176   0.664 -0.1487  0.1140  0.4574
 9242SOL    HW129167   4.307   0.247   0.646 -0.4958 -0.7408 -2.1466
 9242SOL    HW229168   4.354   0.155   0.756 -1.1333  2.3514  0.8923
 9243SOL     OW29169   1.160   4.162   7.118  0.2489  0.3611  0.1856
 9243SOL    HW129170   1.185   4.125   7.203 -3.1927  2.1555  2.2334
 9243SOL    HW229171   1.131   4.087   7.066  0.2972 -0.5781  1.4803
 9244SOL     OW29172   4.973   4.014   1.259  0.1959 -0.4132  0.0901
 9244SOL    HW129173   4.904   4.003   1.194  0.2005 -2.2637  0.3290
 9244SOL    HW229174   4.950   4.094   1.306 -0.8956 -0.1384 -0.8724
 9245SOL     OW29175   2.610   6.309   9.097  0.1150 -0.1482 -0.6496
 9245SOL    HW129176   2.545   6.353   9.042  0.1092  0.7887  0.0793
 9245SOL    HW229177   2.562   6.237   9.138 -0.1224 -0.2549 -1.0995
 9246SOL     OW29178   1.092   2.260   2.603 -0.1410 -0.4870  0.4426
 9246SOL    HW129179   1.002   2.229   2.610 -0.6037  0.9842  1.6370
 9246SOL    HW229180   1.100   2.324   2.674  1.6407 -0.1033 -0.0736
 9247SOL     OW29181   1.286   5.440   2.187  0.2850 -0.4060  0.1703
 9247SOL    HW129182   1.290   5.416   2.280  1.4538 -2.0060 -0.2653
 9247SOL    HW229183   1.290   5.536   2.188 -1.1269 -0.3231  1.8181
 9248SOL     OW29184   5.807   2.846  11.615  0.8332 -0.2134 -0.4070
 9248SOL    HW129185   5.870   2.884  11.676  1.7093  1.1152 -2.0298
 9248SOL    HW229186   5.841   2.759  11.596 -0.0344 -1.0759  1.7575
 9249SOL     OW29187   6.717   0.418   8.978 -0.1928 -0.1440  0.4106
 9249SOL    HW129188   6.640   0.361   8.978 -0.5903  0.3066  2.2327
 9249SOL    HW229189   6.682   0.505   9.001  0.9246 -0.1025  2.1316
 9250SOL     OW29190   1.453   0.233   9.896  0.4219 -0.2734 -0.2196
 9250SOL    HW129191   1.523   0.235   9.961  1.4673 -1.2461 -1.2783
 9250SOL    HW229192   1.398   0.159   9.921  1.0439 -0.8884 -0.6521
 9251SOL     OW29193   4.467   3.458  10.733 -0.0506 -0.2088  0.1482
 9251SOL    HW129194   4.542   3.454  10.792  0.7673  0.1984 -0.8367
 9251SOL    HW229195   4.405   3.516  10.777  1.2113  1.3997 -0.0962
 9252SOL     OW29196   3.967   0.785   6.475  0.9990 -0.2733 -0.3412
 9252SOL    HW129197   4.045   0.780   6.531  1.2182  1.0831 -0.4922
 9252SOL    HW229198   3.997   0.830   6.396  0.1250  0.0030 -0.5265
 9253SOL     OW29199   0.632   0.470   2.763  0.0425  0.5489  0.5504
 9253SOL    HW129200   0.657   0.433   2.678 -0.4843 -0.4470  0.8059
 9253SOL    HW229201   0.545   0.506   2.750 -0.7557 -1.0937  1.0431
 9254SOL     OW29202   1.771   3.441   5.713  0.0068  0.2575 -0.3339
 9254SOL    HW129203   1.824   3.480   5.644 -0.5552 -0.0728 -0.9661
 9254SOL    HW229204   1.693   3.496   5.717 -0.2124 -0.0496 -0.3530
 9255SOL     OW29205   1.846   6.241   8.521 -0.1438 -0.1398 -0.4772
 9255SOL    HW129206   1.854   6.297   8.599 -1.6632  0.1432 -0.4993
 9255SOL    HW229207   1.890   6.290   8.452 -0.8168  0.6986 -0.3248
 9256SOL     OW29208   4.926   6.217   2.009  0.1530 -0.3572  0.1663
 9256SOL    HW129209   4.914   6.251   2.097 -0.8653  0.3178 -0.2252
 9256SOL    HW229210   4.840   6.183   1.983  0.4624 -0.6422 -0.5358
 9257SOL     OW29211   0.405   7.826  10.093  0.0457  0.1727  0.0370
 9257SOL    HW129212   0.374   7.889  10.158 -0.2463  0.0313  0.0355
 9257SOL    HW229213   0.334   7.763  10.084 -0.2580  0.6506 -1.0390
 9258SOL     OW29214   1.615   3.049   5.452 -0.1043  0.2720  0.5925
 9258SOL    HW129215   1.701   3.052   5.493 -0.2715  1.6645  0.8729
 9258SOL    HW229216   1.600   2.956   5.437  1.3194 -0.0198  0.7964
 9259SOL     OW29217   0.095   5.508  10.051 -0.4304 -0.2443  0.0586
 9259SOL    HW129218   0.147   5.589  10.045  1.4351 -1.4290 -0.7502
 9259SOL    HW229219   0.047   5.517  10.133 -0.7438  1.9306 -0.2868
 9260SOL     OW29220   5.307   1.949   6.786  0.5634 -0.0319 -0.3031
 9260SOL    HW129221   5.239   1.990   6.733 -0.5615 -0.6538  0.6126
 9260SOL    HW229222   5.382   1.942   6.728 -0.4444 -0.1552 -1.6299
 9261SOL     OW29223   5.288   7.527   0.595  0.0400 -0.4452  0.6268
 9261SOL    HW129224   5.192   7.521   0.604 -0.0247  0.7172  0.7986
 9261SOL    HW229225   5.306   7.484   0.511 -0.7303  0.0200  0.2087
 9262SOL     OW29226   5.137   6.246   3.951 -0.4606 -0.0677 -0.2293
 9262SOL    HW129227   5.217   6.196   3.935 -0.3726  0.7616 -2.7720
 9262SOL    HW229228   5.155   6.333   3.915 -2.1168  0.4638  0.1476
 9263SOL     OW29229   1.130   2.922   3.768 -0.0608 -0.4084 -0.0481
 9263SOL    HW129230   1.218   2.887   3.752 -0.0732 -0.6130  0.3224
 9263SOL    HW229231   1.130   2.947   3.860 -0.3555 -0.2982 -0.0766
 9264SOL     OW29232   5.994   2.443   6.306 -0.3275  0.0757 -0.7663
 9264SOL    HW129233   6.050   2.489   6.244  1.6094  2.2508  2.3171
 9264SOL    HW229234   5.939   2.512   6.344  0.0824 -0.7493  1.4238
 9265SOL     OW29235   3.920   5.595   5.210 -0.2464  0.7496 -0.1355
 9265SOL    HW129236   3.872   5.666   5.166  0.6169  0.4605 -1.5962
 9265SOL    HW229237   3.913   5.521   5.151  0.9555  0.3354  0.2119
 9266SOL     OW29238   7.443   3.379   6.273 -1.0370 -0.1350  0.1027
 9266SOL    HW129239   7.356   3.373   6.313 -1.2792  1.2976 -0.1366
 9266SOL    HW229240   7.486   3.451   6.321 -0.4965  0.0893 -0.6970
 9267SOL     OW29241   2.095   2.844   6.202  0.9476  0.0397  0.0610
 9267SOL    HW129242   2.060   2.921   6.157  0.2237 -0.1840  0.2192
 9267SOL    HW229243   2.105   2.872   6.293  0.2287 -0.1784  0.2196
 9268SOL     OW29244   7.509   7.474  11.153  0.5380 -0.0872  0.3031
 9268SOL    HW129245   7.428   7.455  11.107  0.9999 -1.2906 -0.0607
 9268SOL    HW229246   7.565   7.398  11.135  1.9503  0.9591  0.0645
 9269SOL     OW29247   7.289   1.446   2.308  0.7601  0.0293  0.3905
 9269SOL    HW129248   7.289   1.510   2.379 -0.3189  1.4750 -0.8357
 9269SOL    HW229249   7.220   1.383   2.331  0.0562  0.7841  0.3935
 9270SOL     OW29250   0.093   5.280  11.381 -0.0586 -0.2520 -0.4899
 9270SOL    HW129251   0.075   5.222  11.307 -1.1900  0.1410 -0.5575
 9270SOL    HW229252   0.170   5.331  11.354  0.2105 -0.8816 -0.9244
 9271SOL     OW29253   4.971   2.569   5.211  0.0233 -0.6048  0.2628
 9271SOL    HW129254   4.922   2.487   5.200 -1.5258 -0.0041  2.1779
 9271SOL    HW229255   4.986   2.575   5.305  1.5085  0.5607 -0.0170
 9272SOL     OW29256   4.157   6.249   7.354  0.3454  0.8948  0.3889
 9272SOL    HW129257   4.171   6.178   7.417 -0.4654 -0.8391 -1.2897
 9272SOL    HW229258   4.242   6.293   7.349  1.2078 -0.6720  0.6522
 9273SOL     OW29259   6.210   2.624   4.016 -0.3920  0.2073  0.4227
 9273SOL    HW129260   6.297   2.654   4.042 -0.5099  0.7007  0.2562
 9273SOL    HW229261   6.186   2.680   3.942  0.2954 -1.6645 -1.3408
 9274SOL     OW29262   4.244   5.913   9.875 -0.4558  0.9216 -0.6387
 9274SOL    HW129263   4.190   5.873   9.807 -1.0146 -0.1632  0.4002
 9274SOL    HW229264   4.186   5.922   9.950  0.8230 -0.6228  0.6436
 9275SOL     OW29265   2.111   1.295   3.931 -0.5061 -0.2349 -0.6446
 9275SOL    HW129266   2.081   1.384   3.914  0.6982  0.0071 -1.5430
 9275SOL    HW229267   2.187   1.305   3.988  0.3638 -0.5980 -1.7066
 9276SOL     OW29268   1.625   6.548  12.418  0.1345  0.1916  0.1384
 9276SOL    HW129269   1.576   6.493  12.357 -3.6395  1.4182  1.7680
 9276SOL    HW229270   1.669   6.485  12.476  1.0266 -0.9651 -1.6645
 9277SOL     OW29271   3.722   4.598  10.086  0.0059 -0.0895  0.5557
 9277SOL    HW129272   3.707   4.601   9.991 -0.6972 -0.5642  0.6495
 9277SOL    HW229273   3.817   4.588  10.094 -0.0931 -2.0280 -0.1488
 9278SOL     OW29274   6.965   1.645  11.262 -0.0754 -0.1318 -0.4049
 9278SOL    HW129275   7.034   1.651  11.196  1.5638 -0.5385  1.1711
 9278SOL    HW229276   6.920   1.563  11.243  1.0663 -0.7795 -0.4272
 9279SOL     OW29277   2.138   4.176   1.967 -0.1060  0.3367  0.3796
 9279SOL    HW129278   2.169   4.159   2.056 -0.3775  0.5039  0.5078
 9279SOL    HW229279   2.069   4.242   1.978  2.0414  2.8395 -0.2417
 9280SOL     OW29280   1.610   1.817   9.177 -0.2142 -0.0603 -0.0605
 9280SOL    HW129281   1.576   1.886   9.119  1.7106  1.1781  0.2032
 9280SOL    HW229282   1.637   1.864   9.256 -1.3419 -1.5210  1.2724
 9281SOL     OW29283   6.151   3.376   3.656  0.0030  0.0416  0.2937
 9281SOL    HW129284   6.070   3.332   3.631  1.1250 -1.6777 -0.5352
 9281SOL    HW229285   6.125   3.438   3.724 -1.5768 -2.7173  2.4461
 9282SOL     OW29286   6.594   2.144   4.971  0.2954  0.3081  0.3584
 9282SOL    HW129287   6.526   2.086   5.005  1.1771 -1.0258 -0.0463
 9282SOL    HW229288   6.627   2.098   4.893  1.7598  0.8189  0.6438
 9283SOL     OW29289   1.124   5.208   8.256 -0.5395 -0.0892 -0.3511
 9283SOL    HW129290   1.050   5.180   8.310 -0.0282 -1.0068 -0.1096
 9283SOL    HW229291   1.112   5.162   8.173 -0.4657  0.0968 -0.4673
 9284SOL     OW29292   6.151   1.108   7.957  0.1507 -0.3646  0.7318
 9284SOL    HW129293   6.237   1.149   7.951  0.1194 -0.3902  0.1163
 9284SOL    HW229294   6.166   1.015   7.938 -0.1086 -0.2540 -0.0627
 9285SOL     OW29295   1.682   4.813   0.371 -0.3494 -0.7026 -0.1254
 9285SOL    HW129296   1.717   4.745   0.430 -0.5815 -0.6398  0.0897
 9285SOL    HW229297   1.710   4.895   0.411 -2.5831 -0.5499  1.3052
 9286SOL     OW29298   6.823   7.638   2.639 -0.3445  0.3109 -0.1066
 9286SOL    HW129299   6.729   7.618   2.641 -0.0772 -1.0042  0.7099
 9286SOL    HW229300   6.839   7.682   2.722 -0.7644  3.4086 -1.5355
 9287SOL     OW29301   2.992   6.993  10.490  0.2971 -0.4952 -0.7621
 9287SOL    HW129302   2.915   7.050  10.484  1.4604  1.2086 -0.1270
 9287SOL    HW229303   2.955   6.904  10.487 -1.6159  0.2570 -1.2929
 9288SOL     OW29304   3.546   4.611   6.684  0.2788 -0.0509  0.1037
 9288SOL    HW129305   3.562   4.608   6.589 -1.9636  0.2961 -0.3463
 9288SOL    HW229306   3.603   4.680   6.716 -0.5335  1.3761 -1.4007
 9289SOL     OW29307   2.722   4.333  12.316  0.2960  0.5986 -0.2825
 9289SOL    HW129308   2.736   4.427  12.332 -0.5727  0.9826 -1.5913
 9289SOL    HW229309   2.678   4.330  12.231 -2.7708 -0.7576  1.1888
 9290SOL     OW29310   1.307   2.546   1.931 -0.2009 -0.3395 -0.6630
 9290SOL    HW129311   1.317   2.483   1.860 -0.3264 -0.8302 -0.2523
 9290SOL    HW229312   1.324   2.496   2.010  0.6222  0.3622 -0.3787
 9291SOL     OW29313   7.483   3.813   4.745 -0.3269  0.0031 -0.2029
 9291SOL    HW129314   7.418   3.780   4.683 -0.5694 -0.3145  0.2119
 9291SOL    HW229315   7.501   3.902   4.716  0.1072 -0.3734 -1.1623
 9292SOL     OW29316   5.976   6.335   8.804 -0.6426 -0.5802  0.4758
 9292SOL    HW129317   6.069   6.310   8.805 -0.6832 -0.7511  0.1726
 9292SOL    HW229318   5.977   6.426   8.776 -0.7099 -1.3601 -2.4201
 9293SOL     OW29319   4.133   3.135  11.952 -0.0716  0.6427  0.4045
 9293SOL    HW129320   4.173   3.135  12.039 -1.6708  1.7687  1.1940
 9293SOL    HW229321   4.155   3.221  11.916 -0.1644  0.5228  0.0564
 9294SOL     OW29322   3.129   4.568  11.694  0.0196 -0.2281 -0.0962
 9294SOL    HW129323   3.204   4.530  11.741 -0.4769 -0.0958  0.8050
 9294SOL    HW229324   3.052   4.535  11.740 -0.4469  1.4467  0.3820
 9295SOL     OW29325   2.968   2.333   1.875 -0.0579 -0.1169  0.2897
 9295SOL    HW129326   3.056   2.358   1.845 -0.1109 -1.5334 -1.1787
 9295SOL    HW229327   2.984   2.290   1.959  0.3363  1.8666  1.3110
 9296SOL     OW29328   7.656   7.903   1.835 -0.3351  0.4133 -0.4199
 9296SOL    HW129329   7.663   7.826   1.891 -0.2586  0.3445 -0.5258
 9296SOL    HW229330   7.571   7.941   1.859  0.0050  0.7736  0.2375
 9297SOL     OW29331   2.891   4.149   0.365  0.1081  0.3396 -0.1420
 9297SOL    HW129332   2.969   4.134   0.418  1.8759  1.3558 -2.3361
 9297SOL    HW229333   2.850   4.226   0.404  0.0622 -0.2924  1.1137
 9298SOL     OW29334   7.726   7.647   8.800  0.7195 -0.1253  0.1762
 9298SOL    HW129335   7.803   7.602   8.835 -0.6592 -0.5424  2.9830
 9298SOL    HW229336   7.677   7.579   8.754  1.0850 -0.3269  0.0853
 9299SOL     OW29337   6.954   3.948  11.129 -0.1601  0.2521  0.1521
 9299SOL    HW129338   6.859   3.940  11.137 -0.1689  0.0791 -0.0922
 9299SOL    HW229339   6.989   3.912  11.210 -0.2819 -0.2012  0.0021
 9300SOL     OW29340   4.663   4.768   7.639  0.2789 -0.1503 -0.0498
 9300SOL    HW129341   4.611   4.687   7.639 -1.7058  1.0298  1.3381
 9300SOL    HW229342   4.671   4.792   7.547  0.7424 -1.7672 -0.4795
 9301SOL     OW29343   3.948   1.015   0.962  0.8279 -0.4864 -0.5503
 9301SOL    HW129344   3.992   1.092   0.927  0.1136  1.0397  1.7074
 9301SOL    HW229345   3.856   1.041   0.969  0.7633 -1.0575  1.3663
 9302SOL     OW29346   0.326   6.476   9.349  0.0331 -0.3942  0.1230
 9302SOL    HW129347   0.313   6.564   9.384  0.1886 -0.4497  0.3245
 9302SOL    HW229348   0.261   6.467   9.280 -0.2098 -0.2474  0.3337
 9303SOL     OW29349   3.528   6.766   6.779  0.3401  0.3666  0.2164
 9303SOL    HW129350   3.472   6.768   6.701  1.2445 -1.5270 -0.5492
 9303SOL    HW229351   3.486   6.703   6.837  0.4971  0.6144  0.6027
 9304SOL     OW29352   4.252   4.944   7.519  0.3095 -0.4957 -0.0399
 9304SOL    HW129353   4.228   4.856   7.549 -0.5095 -0.0225  0.7552
 9304SOL    HW229354   4.175   4.973   7.470  1.1404 -0.7600 -1.5521
 9305SOL     OW29355   3.323   1.899   0.147  0.0211 -0.0385 -0.1716
 9305SOL    HW129356   3.260   1.835   0.116  0.7261 -1.2216  0.7402
 9305SOL    HW229357   3.406   1.871   0.108  0.4953 -0.2194  0.9242
 9306SOL     OW29358   1.821   4.046   3.558 -0.1104  0.1828  0.7724
 9306SOL    HW129359   1.885   3.975   3.549 -0.8052 -0.3148 -0.6403
 9306SOL    HW229360   1.870   4.125   3.534 -0.0466 -0.2182 -0.4977
 9307SOL     OW29361   3.645   5.807   9.158 -0.1540 -0.0384  0.1520
 9307SOL    HW129362   3.681   5.894   9.176 -0.6903 -0.1187  1.7766
 9307SOL    HW229363   3.552   5.815   9.181  0.0562 -1.3712  1.6011
 9308SOL     OW29364   1.240   4.126   7.371 -0.0058  0.7407 -0.4288
 9308SOL    HW129365   1.184   4.201   7.390  0.6616  0.9059  0.9618
 9308SOL    HW229366   1.242   4.076   7.452  1.7951  0.6921 -0.4710
 9309SOL     OW29367   3.110   0.982   2.456  0.0303  0.5727  0.0515
 9309SOL    HW129368   3.040   0.955   2.515 -1.8569  0.4723 -2.1057
 9309SOL    HW229369   3.092   0.935   2.374  2.1127  1.2444 -0.8703
 9310SOL     OW29370   1.489   3.192   9.978  0.0208 -0.2002  0.4458
 9310SOL    HW129371   1.495   3.105  10.018  1.1897  0.0099  0.7493
 9310SOL    HW229372   1.403   3.225  10.006 -0.1791 -1.0053  0.8205
 9311SOL     OW29373   1.384   4.795   1.250 -0.1208  0.0742  0.5855
 9311SOL    HW129374   1.470   4.828   1.278 -0.2472  0.2123  0.8195
 9311SOL    HW229375   1.342   4.766   1.332 -0.9949  1.6353  0.7244
 9312SOL     OW29376   2.111   6.068   5.903 -0.0062  0.1462  0.0558
 9312SOL    HW129377   2.202   6.084   5.929  0.3036 -0.3934 -0.6644
 9312SOL    HW229378   2.082   6.150   5.863 -0.2831  0.7725  1.4788
 9313SOL     OW29379   0.195   1.541   3.366  0.1413  0.0152 -0.2836
 9313SOL    HW129380   0.154   1.481   3.304 -0.2054  0.6719 -0.6973
 9313SOL    HW229381   0.195   1.626   3.322  0.3411  0.3878  0.4134
 9314SOL     OW29382   6.607   6.054   1.766  0.1057 -0.1338 -0.0518
 9314SOL    HW129383   6.531   6.060   1.709  1.5731  1.8171 -1.9523
 9314SOL    HW229384   6.675   6.013   1.712  1.4046  1.3210  0.4204
 9315SOL     OW29385   5.746   4.526  10.897  0.5192  0.5776  0.1034
 9315SOL    HW129386   5.787   4.612  10.893 -1.2903  1.4303 -1.3283
 9315SOL    HW229387   5.765   4.487  10.812 -1.7622  1.1083 -0.7070
 9316SOL     OW29388   4.584   7.006   8.356  0.2387  0.3138 -0.2252
 9316SOL    HW129389   4.515   7.070   8.339 -0.2887 -0.3938 -0.7923
 9316SOL    HW229390   4.540   6.936   8.405  0.6174 -0.0176 -0.3569
 9317SOL     OW29391   7.656   2.623   6.214 -0.1124  0.2670  0.7000
 9317SOL    HW129392   7.576   2.671   6.193  0.2502  0.8363  0.5768
 9317SOL    HW229393   7.718   2.649   6.145  0.0253 -0.5608  0.5028
 9318SOL     OW29394   6.809   5.518  10.448 -0.6831 -0.2933  0.3099
 9318SOL    HW129395   6.734   5.510  10.389 -1.0054  0.5813  0.5736
 9318SOL    HW229396   6.822   5.430  10.483 -0.5116 -0.8185 -1.0133
 9319SOL     OW29397   1.584   1.742   8.056  0.2257 -0.0217  0.7364
 9319SOL    HW129398   1.577   1.651   8.025  1.2803 -0.1738  0.8933
 9319SOL    HW229399   1.671   1.746   8.096  1.0406  1.6149 -1.0846
 9320SOL     OW29400   4.498   5.760  11.375  0.4031  0.2690  0.2013
 9320SOL    HW129401   4.504   5.836  11.317 -0.2793  0.2939  0.1460
 9320SOL    HW229402   4.506   5.796  11.463  0.2413  0.3877  0.1684
 9321SOL     OW29403   1.864   3.641   2.220 -0.2307 -0.4245  0.2570
 9321SOL    HW129404   1.889   3.671   2.308 -1.0156  0.0599  0.3326
 9321SOL    HW229405   1.946   3.634   2.172  0.0498  1.2985  0.4221
 9322SOL     OW29406   0.751   3.330   9.611 -0.9363 -0.3611 -0.1592
 9322SOL    HW129407   0.714   3.335   9.522 -0.3392  1.8482 -0.3400
 9322SOL    HW229408   0.692   3.271   9.658 -1.8378 -0.7971 -1.7600
 9323SOL     OW29409   3.385   4.951  10.934  0.2552 -0.0621  0.2848
 9323SOL    HW129410   3.364   4.959  10.841 -1.4561 -0.9882  0.5494
 9323SOL    HW229411   3.318   5.002  10.978 -0.1807 -1.2987  1.0917
 9324SOL     OW29412   7.735   0.670   1.652  0.0684 -0.0974 -0.3399
 9324SOL    HW129413   7.739   0.628   1.566 -1.6780 -0.1507 -0.4232
 9324SOL    HW229414   7.651   0.642   1.688  0.8593 -0.2369  1.4786
 9325SOL     OW29415   0.217   4.364   7.503  0.1875  0.6249  0.6083
 9325SOL    HW129416   0.225   4.347   7.597  1.3710  2.1120  0.8230
 9325SOL    HW229417   0.291   4.421   7.484  1.0980 -1.1372 -1.6194
 9326SOL     OW29418   2.183   3.809   1.948 -0.2105  0.1831 -0.1087
 9326SOL    HW129419   2.220   3.721   1.944  1.2862  0.6312  1.8274
 9326SOL    HW229420   2.152   3.817   2.038 -0.5343  1.5499 -0.3247
 9327SOL     OW29421   1.915   3.634  11.748 -0.1945 -0.1278  1.1816
 9327SOL    HW129422   1.835   3.604  11.791 -2.3343 -0.3451 -2.5254
 9327SOL    HW229423   1.957   3.553  11.719 -1.5069  0.0495 -1.4421
 9328SOL     OW29424   2.721   6.177  10.266  0.1471 -0.2129 -0.0755
 9328SOL    HW129425   2.688   6.145  10.183 -3.0140 -1.0895  1.3797
 9328SOL    HW229426   2.721   6.272  10.258  0.2368 -0.2962 -1.1575
 9329SOL     OW29427   0.475   5.043   5.798  0.4647  0.0347 -0.1525
 9329SOL    HW129428   0.455   5.021   5.889 -0.2847 -1.0295 -0.5610
 9329SOL    HW229429   0.440   4.970   5.747  0.8283  0.6420 -1.3073
 9330SOL     OW29430   3.105   1.814  11.763 -0.3913  0.4581 -0.6196
 9330SOL    HW129431   3.173   1.871  11.798  2.5174 -2.6921 -0.7301
 9330SOL    HW229432   3.041   1.808  11.834  0.3622  1.9882  0.2470
 9331SOL     OW29433   4.501   2.419   6.747  0.4724  0.0094  0.3365
 9331SOL    HW129434   4.439   2.490   6.760  2.0080  1.6733 -1.0116
 9331SOL    HW229435   4.581   2.461   6.717  1.6439 -2.2370  0.0605
 9332SOL     OW29436   6.220   3.450   5.987 -0.3969  0.0956  0.1033
 9332SOL    HW129437   6.126   3.451   6.007 -0.0373 -0.0850  2.0160
 9332SOL    HW229438   6.261   3.490   6.063  0.9825  1.9962 -1.5472
 9333SOL     OW29439   6.091   5.961   6.151  0.4450  0.2942 -0.2877
 9333SOL    HW129440   6.065   6.033   6.094 -0.7691 -1.2498 -1.7661
 9333SOL    HW229441   6.170   5.926   6.110  0.7273  0.4432  0.1269
 9334SOL     OW29442   7.914   5.930   8.662  0.0654  0.4960  0.2696
 9334SOL    HW129443   7.976   5.874   8.709 -0.0287  1.3141  1.4155
 9334SOL    HW229444   7.867   5.977   8.732 -2.2623 -0.5238 -0.5144
 9335SOL     OW29445   2.642   1.151   1.704  0.4511 -0.2434 -0.2267
 9335SOL    HW129446   2.584   1.209   1.753  2.2436  1.3066  0.1847
 9335SOL    HW229447   2.608   1.153   1.614  0.6024  1.7005 -0.2827
 9336SOL     OW29448   4.997   0.428   0.965 -0.6960 -0.2144 -0.1629
 9336SOL    HW129449   5.055   0.389   0.900  0.3452  1.8179 -0.5141
 9336SOL    HW229450   4.931   0.474   0.914 -1.4376 -0.7925  0.2476
 9337SOL     OW29451   1.801   1.718   5.053 -0.0917  0.6210  0.1204
 9337SOL    HW129452   1.896   1.731   5.059  0.1591  0.1241 -1.9365
 9337SOL    HW229453   1.789   1.625   5.072 -0.6047  1.2231  3.4739
 9338SOL     OW29454   2.272   3.228  11.978 -0.0055  0.6694 -0.1060
 9338SOL    HW129455   2.257   3.246  12.071 -0.2337 -0.7146  0.1477
 9338SOL    HW229456   2.219   3.151  11.960  1.6414 -0.3380 -0.8753
 9339SOL     OW29457   1.032   5.610   8.586  1.0908 -0.0401  0.6048
 9339SOL    HW129458   1.043   5.653   8.501 -1.1651  1.9315  1.1993
 9339SOL    HW229459   0.949   5.562   8.578 -0.3463  1.9830  2.2745
 9340SOL     OW29460   2.904   2.655   1.849 -0.0842 -0.0977  0.0881
 9340SOL    HW129461   2.963   2.589   1.815 -1.5105 -1.3446 -0.0498
 9340SOL    HW229462   2.817   2.614   1.847 -0.7434  1.0832  1.7812
 9341SOL     OW29463   6.070   0.026   8.628  0.0611 -0.1450  0.1333
 9341SOL    HW129464   6.161  -0.004   8.623 -0.2015 -0.8181 -1.5313
 9341SOL    HW229465   6.039   0.019   8.538 -1.2894  1.2294  0.4721
 9342SOL     OW29466   1.659   6.991   8.171  0.7629  0.3041  1.0160
 9342SOL    HW129467   1.597   6.949   8.111  2.2484 -0.4639 -0.0546
 9342SOL    HW229468   1.611   6.998   8.254 -0.7497 -0.2324  0.2230
 9343SOL     OW29469   5.510   3.793   3.939  0.3609  0.0213  0.3301
 9343SOL    HW129470   5.494   3.878   3.979 -2.7105  0.1896 -1.0029
 9343SOL    HW229471   5.464   3.730   3.995  1.2151 -0.5680  0.3934
 9344SOL     OW29472   0.094   5.276   0.721 -0.8934  0.5810  0.9132
 9344SOL    HW129473   0.134   5.362   0.708 -0.5805  0.1808 -1.0058
 9344SOL    HW229474   0.016   5.278   0.667 -2.1313  0.4165  2.6186
 9345SOL     OW29475   5.587   4.248  10.236  0.3102  0.1161 -0.2581
 9345SOL    HW129476   5.616   4.280  10.321 -2.7660 -1.1000  1.4070
 9345SOL    HW229477   5.507   4.298  10.219 -0.1374 -0.9840 -1.5227
 9346SOL     OW29478   4.240   7.513  12.451 -0.5048 -0.0844 -0.2473
 9346SOL    HW129479   4.257   7.603  12.477 -1.2738 -0.2924  1.0576
 9346SOL    HW229480   4.225   7.517  12.357 -2.0217  1.3833  0.0169
 9347SOL     OW29481   6.893   4.828   2.148 -0.0266  0.7711  0.2634
 9347SOL    HW129482   6.867   4.736   2.152 -0.0640  0.7829  0.3031
 9347SOL    HW229483   6.887   4.852   2.056 -1.2653  1.0834  0.3999
 9348SOL     OW29484   4.736   2.613   0.614  0.0389  0.1555  0.0726
 9348SOL    HW129485   4.826   2.602   0.643 -0.4105 -0.0161  1.4388
 9348SOL    HW229486   4.715   2.704   0.634  0.9074  1.2435 -3.2194
 9349SOL     OW29487   7.840   0.708   2.369 -0.2843 -0.2042 -0.8058
 9349SOL    HW129488   7.800   0.710   2.456 -1.9137  0.8696 -1.5292
 9349SOL    HW229489   7.931   0.685   2.385 -0.9813 -2.0111  0.9927
 9350SOL     OW29490   4.287   3.521  10.145  0.1046 -0.4746  0.2925
 9350SOL    HW129491   4.248   3.562  10.068  1.0075  0.1547  0.1599
 9350SOL    HW229492   4.245   3.435  10.151  0.1262 -0.5823 -0.9741
 9351SOL     OW29493   7.026   0.656   9.231  0.3043  0.4142  0.1471
 9351SOL    HW129494   7.042   0.750   9.240  1.0179  0.2576  0.5626
 9351SOL    HW229495   7.044   0.620   9.318 -1.3136  0.0655  0.3701
 9352SOL     OW29496   3.574   0.811   0.885 -0.2832  0.3282 -0.2730
 9352SOL    HW129497   3.507   0.789   0.950 -1.0632 -0.0475 -1.1854
 9352SOL    HW229498   3.654   0.769   0.918 -0.6887  0.0549  0.3862
 9353SOL     OW29499   3.087   7.507  11.228  0.1385  0.2412 -0.5459
 9353SOL    HW129500   2.994   7.525  11.238 -0.2605 -0.7520 -2.1027
 9353SOL    HW229501   3.123   7.587  11.189 -0.3102  0.1884 -1.0802
 9354SOL     OW29502   6.483   2.722  10.865 -0.1315  0.4467 -0.6913
 9354SOL    HW129503   6.453   2.753  10.780 -0.7963  2.3916  0.1869
 9354SOL    HW229504   6.566   2.769  10.879 -0.7891  1.3262  0.3653
 9355SOL     OW29505   0.248   1.556   9.805 -0.1254  0.5835  0.0997
 9355SOL    HW129506   0.210   1.644   9.801 -1.6363 -0.0586 -0.1300
 9355SOL    HW229507   0.202   1.513   9.877  0.6181 -0.0174  0.2296
 9356SOL     OW29508   4.046   2.319   5.971  0.1993 -0.1709 -1.0895
 9356SOL    HW129509   4.123   2.353   5.925 -0.5539 -0.4011 -2.5830
 9356SOL    HW229510   4.072   2.319   6.063  2.0738 -0.4940 -1.5683
 9357SOL     OW29511   1.368   4.295   1.891  0.6219 -0.0037  0.5441
 9357SOL    HW129512   1.440   4.343   1.930  0.5628  0.9678 -0.4882
 9357SOL    HW229513   1.399   4.205   1.886  2.0183  0.5024 -0.4391
 9358SOL     OW29514   7.424   6.039   9.552 -0.5867 -0.1431  0.1646
 9358SOL    HW129515   7.398   5.968   9.612  2.3797  0.3503  2.2197
 9358SOL    HW229516   7.384   6.014   9.468 -1.5655 -3.0275  1.3363
 9359SOL     OW29517   4.455   0.319   6.192 -0.4977 -0.1275  0.3552
 9359SOL    HW129518   4.501   0.331   6.275  0.2991 -0.1750 -0.0668
 9359SOL    HW229519   4.380   0.264   6.213 -0.7563  0.5336  1.1872
 9360SOL     OW29520   2.200   2.674   3.261 -0.1102 -0.4962 -0.0211
 9360SOL    HW129521   2.132   2.633   3.313  0.8787  1.4463  3.0597
 9360SOL    HW229522   2.235   2.604   3.207 -2.0980 -2.3417  0.9559
 9361SOL     OW29523   4.611   0.159   5.429 -0.0227 -0.1501  0.5407
 9361SOL    HW129524   4.607   0.142   5.335 -2.0123 -1.2538  0.7772
 9361SOL    HW229525   4.575   0.081   5.469 -2.5226  1.6412  2.0638
 9362SOL     OW29526   6.982   1.414   6.736 -0.5282  0.0335 -0.1173
 9362SOL    HW129527   6.938   1.333   6.712  1.4350 -0.6436 -1.6349
 9362SOL    HW229528   6.958   1.475   6.666  1.5709 -0.6195 -1.5036
 9363SOL     OW29529   1.349   6.368   8.099 -0.1488  0.1665 -0.4773
 9363SOL    HW129530   1.361   6.319   8.181 -0.6740  0.0651 -0.4565
 9363SOL    HW229531   1.392   6.314   8.033  3.9002  2.1091  0.2582
 9364SOL     OW29532   6.506   6.749   2.426  0.6536 -0.2596  0.0110
 9364SOL    HW129533   6.598   6.739   2.401  0.0382  2.2680 -4.2934
 9364SOL    HW229534   6.468   6.663   2.410  1.9125 -0.8382 -0.0275
 9365SOL     OW29535   4.188   7.160   9.785 -0.2924  0.5254  0.5118
 9365SOL    HW129536   4.268   7.128   9.826 -0.8411  1.3564  2.3390
 9365SOL    HW229537   4.120   7.144   9.851 -1.9900 -1.6384 -1.5748
 9366SOL     OW29538   0.735   2.918   3.807  0.5950  0.1780  0.8456
 9366SOL    HW129539   0.794   2.883   3.740  0.2353  0.4645  0.3734
 9366SOL    HW229540   0.648   2.911   3.769  0.4353  0.7925  1.0831
 9367SOL     OW29541   4.296   4.886  10.322 -0.0961  0.4470 -0.3157
 9367SOL    HW129542   4.325   4.858  10.235 -3.5260 -0.4600 -1.3331
 9367SOL    HW229543   4.280   4.980  10.313  0.5719  0.5630 -0.3255
 9368SOL     OW29544   7.950   3.976   2.039  0.2936  0.1406 -0.0380
 9368SOL    HW129545   7.939   4.037   2.111 -1.8751 -0.4456  0.1833
 9368SOL    HW229546   7.949   4.031   1.960  0.2222  0.5507  0.2455
 9369SOL     OW29547   2.842   7.062   0.319 -0.5237  0.0301  0.8688
 9369SOL    HW129548   2.933   7.035   0.324 -0.8018 -1.2539 -0.3475
 9369SOL    HW229549   2.809   7.052   0.408  0.5722  0.7605  1.3788
 9370SOL     OW29550   0.443   7.612  11.067 -0.4719  0.6574 -0.0722
 9370SOL    HW129551   0.383   7.566  11.008 -1.3006  2.7649 -0.9658
 9370SOL    HW229552   0.421   7.704  11.056  2.1448  1.4230  0.5069
 9371SOL     OW29553   3.027   4.730   7.395 -0.2725 -0.3962 -0.7715
 9371SOL    HW129554   3.117   4.714   7.364  0.6486  1.0649  0.9576
 9371SOL    HW229555   3.036   4.800   7.460 -2.8160  0.4659 -1.2383
 9372SOL     OW29556   6.303   6.214   3.513  0.2125  0.0285  0.4647
 9372SOL    HW129557   6.332   6.125   3.532  1.0470  0.4372  1.1923
 9372SOL    HW229558   6.224   6.226   3.566  0.5963  0.0051  1.0549
 9373SOL     OW29559   6.112   4.826  10.628  0.0983  1.0165 -0.1405
 9373SOL    HW129560   6.090   4.808  10.536 -1.6733  0.4841  0.3424
 9373SOL    HW229561   6.072   4.911  10.647  1.1785  1.5287 -0.0639
 9374SOL     OW29562   4.419   4.437  12.218 -0.2924  0.0741 -0.3007
 9374SOL    HW129563   4.380   4.446  12.305 -0.5825  0.6676 -0.4828
 9374SOL    HW229564   4.347   4.453  12.157 -0.2898 -1.2226 -0.6674
 9375SOL     OW29565   0.426   6.134   5.111  0.1670  0.1567 -0.0260
 9375SOL    HW129566   0.475   6.120   5.192 -1.1401  1.1653  0.9962
 9375SOL    HW229567   0.366   6.060   5.106  0.0265  0.2637  0.0921
 9376SOL     OW29568   3.706   5.059   1.794 -0.1433 -0.1025 -0.3069
 9376SOL    HW129569   3.782   5.064   1.852 -1.3695 -2.8899  1.7495
 9376SOL    HW229570   3.736   5.009   1.718  0.1105 -1.2172  0.5099
 9377SOL     OW29571   3.603   5.471   8.273  0.0372  0.5803 -0.8612
 9377SOL    HW129572   3.661   5.547   8.271  1.3494 -0.3671 -0.2812
 9377SOL    HW229573   3.631   5.422   8.350 -2.0416  0.4429 -0.1303
 9378SOL     OW29574   1.701   7.149   4.053  0.5821  0.1638 -0.4244
 9378SOL    HW129575   1.723   7.179   4.141  0.0107 -1.3094  0.2583
 9378SOL    HW229576   1.784   7.151   4.005  0.8681  1.1015  0.1066
 9379SOL     OW29577   6.710   3.100   5.349 -0.4905 -0.3654 -0.9964
 9379SOL    HW129578   6.696   3.019   5.301 -1.5392 -0.8668  0.1138
 9379SOL    HW229579   6.622   3.129   5.374  0.0179 -1.2110  2.2991
 9380SOL     OW29580   0.770   0.913   4.892 -0.4634  0.0517 -0.1711
 9380SOL    HW129581   0.732   0.926   4.805 -0.6791 -0.4454 -0.1582
 9380SOL    HW229582   0.792   1.001   4.922  2.4783  0.0895 -1.9780
 9381SOL     OW29583   7.645   2.742   6.984 -0.2307  0.2926  0.3247
 9381SOL    HW129584   7.704   2.668   6.994  1.5696  1.0880 -2.9065
 9381SOL    HW229585   7.684   2.811   7.037  1.6066  0.6468 -1.3675
 9382SOL     OW29586   1.866   5.100   4.765 -0.7788  0.5728  0.1667
 9382SOL    HW129587   1.794   5.143   4.811 -2.6488 -1.1042 -0.9955
 9382SOL    HW229588   1.850   5.006   4.779  1.3432  0.1456  0.0533
 9383SOL     OW29589   5.951   6.396   9.894 -0.5039 -0.1936 -0.3674
 9383SOL    HW129590   5.933   6.393   9.988  0.9042 -0.9102 -0.1024
 9383SOL    HW229591   6.039   6.434   9.887  1.1603 -3.7804 -1.0901
 9384SOL     OW29592   1.765   2.685   4.239 -0.0098  0.1335 -0.3799
 9384SOL    HW129593   1.797   2.765   4.282  1.1539 -0.2090 -0.5907
 9384SOL    HW229594   1.797   2.691   4.150  0.6031 -0.8531 -0.2412
 9385SOL     OW29595   1.715   0.446  10.592  0.4357  0.0503  0.0218
 9385SOL    HW129596   1.664   0.444  10.673  0.6897 -0.8521  0.1764
 9385SOL    HW229597   1.680   0.374  10.539  0.2953  0.6056 -0.6589
 9386SOL     OW29598   7.915   2.132   2.701  0.2147 -0.1304 -0.4901
 9386SOL    HW129599   7.894   2.095   2.786  3.7344  0.1167  0.6475
 9386SOL    HW229600   7.843   2.191   2.681  0.0401  1.1066  3.1765
 9387SOL     OW29601   2.351   3.452   7.322  0.6138 -0.3145  0.5129
 9387SOL    HW129602   2.353   3.473   7.415 -0.4900  1.2022  0.2441
 9387SOL    HW229603   2.441   3.431   7.300  1.2703  1.2454  1.5305
 9388SOL     OW29604   7.548   6.820   1.897 -0.5735 -0.0169 -0.2089
 9388SOL    HW129605   7.642   6.801   1.891 -0.4337  0.8374 -0.8978
 9388SOL    HW229606   7.544   6.908   1.935 -1.1507 -0.5249  0.9770
 9389SOL     OW29607   1.572   2.795   4.629  0.4421 -0.3094 -0.2985
 9389SOL    HW129608   1.598   2.707   4.602 -1.4214 -1.0985  0.3300
 9389SOL    HW229609   1.610   2.806   4.717  0.8357 -0.4116 -0.4569
 9390SOL     OW29610   6.342   1.540   5.498 -0.6775  0.0702 -0.1231
 9390SOL    HW129611   6.313   1.485   5.425 -0.0277  0.9080 -1.0269
 9390SOL    HW229612   6.270   1.535   5.561 -1.4187 -0.3680 -0.9770
 9391SOL     OW29613   6.196   1.012   5.698 -0.3336  0.7336 -0.0623
 9391SOL    HW129614   6.194   0.918   5.678 -0.4356  0.4014  1.4154
 9391SOL    HW229615   6.151   1.053   5.624  0.6470 -0.2603 -1.2611
 9392SOL     OW29616   5.969   5.822  10.158  0.1574 -0.0325 -0.5511
 9392SOL    HW129617   6.004   5.760  10.222  0.5121  0.2795 -0.4371
 9392SOL    HW229618   6.025   5.812  10.082 -0.7656 -0.9893 -1.1229
 9393SOL     OW29619   1.732   6.171   4.995 -0.0526 -0.3397  0.6208
 9393SOL    HW129620   1.786   6.109   5.046  1.2116 -1.1821 -1.6001
 9393SOL    HW229621   1.728   6.132   4.907 -2.3810  0.9120  0.0988
 9394SOL     OW29622   2.765   6.587   9.820 -0.3344 -0.3265 -0.7182
 9394SOL    HW129623   2.816   6.532   9.760  0.0837 -1.3590  0.5435
 9394SOL    HW229624   2.826   6.607   9.891 -1.3751 -0.7221  0.3147
 9395SOL     OW29625   0.766   6.670   0.467 -0.3684 -0.4281  0.3694
 9395SOL    HW129626   0.753   6.644   0.376 -0.9280  0.3510  0.2178
 9395SOL    HW229627   0.862   6.676   0.476 -0.2932 -0.9909 -0.0214
 9396SOL     OW29628   0.295   3.883   5.822 -0.2433 -0.3362  0.7675
 9396SOL    HW129629   0.263   3.972   5.840 -2.9831 -1.4576  2.0039
 9396SOL    HW229630   0.216   3.829   5.824  1.0320 -2.5486 -2.0535
 9397SOL     OW29631   0.007   1.032   2.870 -1.0107 -0.2259  0.1159
 9397SOL    HW129632  -0.066   0.971   2.880 -0.7346 -0.3659  1.5126
 9397SOL    HW229633   0.076   0.980   2.830 -1.1022 -0.5695  0.3972
 9398SOL     OW29634   1.318   7.282  11.764  0.0855  0.0452 -0.1783
 9398SOL    HW129635   1.237   7.284  11.713 -0.6425 -1.7205  0.8033
 9398SOL    HW229636   1.383   7.243  11.705 -0.2187 -0.0954 -0.4260
 9399SOL     OW29637   5.634   2.214   5.895 -0.1702 -0.2084 -0.0265
 9399SOL    HW129638   5.658   2.172   5.978 -0.3987 -0.8999 -0.3112
 9399SOL    HW229639   5.684   2.296   5.895  1.2315 -1.0267 -0.0295
 9400SOL     OW29640   5.642   6.009   7.332 -0.1076  0.6931  0.1092
 9400SOL    HW129641   5.706   6.063   7.286 -1.0069  2.2743  0.6153
 9400SOL    HW229642   5.632   5.931   7.278  0.9987  1.1855 -0.8373
 9401SOL     OW29643   5.978   4.303   0.122  0.3761  0.1483  0.4724
 9401SOL    HW129644   5.990   4.229   0.182  0.1476 -2.0173 -2.0018
 9401SOL    HW229645   5.905   4.352   0.160 -1.5045 -2.5877  0.6821
 9402SOL     OW29646   1.578   2.286   2.197  0.0394  0.3679 -0.5172
 9402SOL    HW129647   1.584   2.292   2.101  1.2025  1.2269 -0.4039
 9402SOL    HW229648   1.491   2.321   2.217 -0.5333 -0.5512 -1.3096
 9403SOL     OW29649   3.362   7.637   4.315  0.5853 -0.4498  0.0914
 9403SOL    HW129650   3.360   7.556   4.366  1.3160 -1.6787 -1.7551
 9403SOL    HW229651   3.281   7.682   4.339 -1.9414 -3.6064 -1.7472
 9404SOL     OW29652   3.337   4.743  10.143  0.4182 -0.3566 -0.3942
 9404SOL    HW129653   3.305   4.655  10.162  0.2562 -0.1604  0.2596
 9404SOL    HW229654   3.317   4.756  10.051 -1.0816 -0.3712 -0.0965
 9405SOL     OW29655   7.642   6.981   1.574 -1.1487 -0.6229 -0.0812
 9405SOL    HW129656   7.704   7.049   1.601 -1.1480 -1.2069  1.5336
 9405SOL    HW229657   7.562   7.029   1.553 -0.1631  0.1542 -2.3470
 9406SOL     OW29658   5.763   2.540   3.054  0.3626 -0.3804  0.8746
 9406SOL    HW129659   5.820   2.558   3.128  1.2719 -2.2678  0.7032
 9406SOL    HW229660   5.675   2.534   3.091  0.9323 -2.3308  2.0126
 9407SOL     OW29661   0.570   6.403   4.340 -0.7860 -0.3352 -0.7647
 9407SOL    HW129662   0.551   6.352   4.418  0.3217 -1.2756 -1.0948
 9407SOL    HW229663   0.560   6.341   4.268  0.5999 -0.1023 -1.1734
 9408SOL     OW29664   5.047   3.748   8.144 -0.4398 -0.1061 -0.1469
 9408SOL    HW129665   5.027   3.807   8.071  0.1591  1.3214  0.7897
 9408SOL    HW229666   5.139   3.726   8.133  0.2799  1.8991  1.3279
 9409SOL     OW29667   1.969   2.042  10.805  0.2783  0.3932 -0.1346
 9409SOL    HW129668   1.883   2.007  10.831  0.6778  0.1058  0.8604
 9409SOL    HW229669   1.983   2.115  10.865  0.9903  0.0586  0.1146
 9410SOL     OW29670   6.422   3.262  12.471 -0.0684  0.3671  0.0454
 9410SOL    HW129671   6.439   3.247  12.378 -0.2673 -0.6383  0.1556
 9410SOL    HW229672   6.506   3.247  12.513  0.0203  0.8185  0.0292
 9411SOL     OW29673   7.903   6.269  10.547  0.3171 -0.3400  0.1431
 9411SOL    HW129674   7.828   6.229  10.591 -2.2670  3.8635  0.0682
 9411SOL    HW229675   7.972   6.269  10.614 -0.0230 -3.2423  0.6106
 9412SOL     OW29676   0.409   0.924   8.215 -0.1688  0.3837  0.4896
 9412SOL    HW129677   0.481   0.961   8.266  0.8992 -1.7782  0.6585
 9412SOL    HW229678   0.411   0.973   8.133  2.2130 -0.2821  0.0688
 9413SOL     OW29679   2.573   7.933   8.148 -0.1258 -0.4192  0.1485
 9413SOL    HW129680   2.555   7.900   8.236  0.9592  0.5900  0.7696
 9413SOL    HW229681   2.568   8.028   8.157 -1.1933 -0.3181 -1.1642
 9414SOL     OW29682   2.038   0.147  10.471  0.0408  0.1003 -0.5774
 9414SOL    HW129683   2.048   0.062  10.429  1.3531 -0.3870  0.6390
 9414SOL    HW229684   2.126   0.185  10.469 -0.3717  1.1185 -0.4316
 9415SOL     OW29685   5.816   3.109   6.183  0.3328 -0.5054  0.5814
 9415SOL    HW129686   5.858   3.046   6.241  0.7879  0.4379  1.3069
 9415SOL    HW229687   5.888   3.164   6.151 -0.0490 -0.3705 -0.0677
 9416SOL     OW29688   5.285   0.932   2.530  0.0364 -0.5927 -0.0840
 9416SOL    HW129689   5.258   0.898   2.444 -1.1829 -1.5913  0.6721
 9416SOL    HW229690   5.216   0.905   2.590  0.7011  0.3901  1.1758
 9417SOL     OW29691   7.154   4.915   8.771 -0.1534  0.3467  0.0368
 9417SOL    HW129692   7.144   4.919   8.676  0.4189  2.2847  0.0235
 9417SOL    HW229693   7.115   4.830   8.795 -0.1767 -0.2575 -1.9140
 9418SOL     OW29694   5.442   0.362   5.253 -0.5156  0.3447  0.5480
 9418SOL    HW129695   5.452   0.267   5.256  1.1958  0.5123  2.2192
 9418SOL    HW229696   5.511   0.392   5.193 -1.7169  0.5024 -0.8038
 9419SOL     OW29697   3.488   4.954   3.131  0.1865  0.1390  0.4051
 9419SOL    HW129698   3.583   4.956   3.146  0.3587 -0.6485 -0.4478
 9419SOL    HW229699   3.457   5.039   3.161  1.3497  0.8926 -0.4396
 9420SOL     OW29700   0.289   2.750   9.270 -0.2656  0.4717 -0.8570
 9420SOL    HW129701   0.353   2.820   9.282 -1.1407  0.9268  1.9876
 9420SOL    HW229702   0.341   2.670   9.261  0.7614  0.7684  1.7899
 9421SOL     OW29703   7.605   5.459  10.693  0.0437  0.0683 -0.2040
 9421SOL    HW129704   7.540   5.505  10.747  1.0052 -0.4771  1.4971
 9421SOL    HW229705   7.689   5.497  10.719  0.7963 -2.1300  0.7634
 9422SOL     OW29706   6.169   5.666  10.255  0.4342  0.1788 -0.2305
 9422SOL    HW129707   6.240   5.673  10.191  1.3915  1.5020  0.9107
 9422SOL    HW229708   6.193   5.728  10.324 -2.0127  0.9446  0.0276
 9423SOL     OW29709   7.563   3.971  10.125 -0.2132  0.1751  0.7177
 9423SOL    HW129710   7.529   4.033  10.060 -0.2330  0.4286  0.9687
 9423SOL    HW229711   7.486   3.926  10.158 -0.2511  0.3719  0.8990
 9424SOL     OW29712   1.139   7.688   2.571  0.1358 -0.4330 -0.4444
 9424SOL    HW129713   1.211   7.709   2.511 -0.3534  0.7244 -0.6646
 9424SOL    HW229714   1.138   7.762   2.633  1.1657 -1.9880  1.5427
 9425SOL     OW29715   6.734   4.042  10.376 -0.1173  0.0450 -0.4874
 9425SOL    HW129716   6.828   4.057  10.376  0.4363 -2.8353  0.1267
 9425SOL    HW229717   6.715   4.008  10.463 -1.7092  0.3880 -0.6651
 9426SOL     OW29718   2.391   4.347   1.643  0.1166 -0.1863 -0.0055
 9426SOL    HW129719   2.434   4.414   1.696 -0.6740  0.3411 -0.0076
 9426SOL    HW229720   2.454   4.325   1.576 -0.6558  2.8101 -1.9155
 9427SOL     OW29721   6.054   0.775  12.233  0.1489  0.6216  0.0373
 9427SOL    HW129722   6.103   0.696  12.255  0.5271  1.1107  0.9824
 9427SOL    HW229723   6.120   0.836  12.201  0.3001  1.5274  1.9702
 9428SOL     OW29724   2.364   5.206  10.417  0.0966  0.4812  0.1779
 9428SOL    HW129725   2.276   5.212  10.379 -0.2740 -1.2294  0.6601
 9428SOL    HW229726   2.359   5.132  10.477  1.7040  0.7734  0.7322
 9429SOL     OW29727   1.627   7.571  11.431  0.0463 -0.0687  0.2714
 9429SOL    HW129728   1.688   7.501  11.409 -2.0586 -1.7308 -0.6703
 9429SOL    HW229729   1.617   7.566  11.526  0.4944 -0.5319  0.2963
 9430SOL     OW29730   1.920   2.830   4.847 -0.2221 -0.1859 -0.5419
 9430SOL    HW129731   2.013   2.856   4.847 -0.1394 -0.4723 -0.9038
 9430SOL    HW229732   1.922   2.734   4.841 -0.5436 -0.1610 -1.2193
 9431SOL     OW29733   2.615   2.322   0.931  0.0715  0.4389 -0.0066
 9431SOL    HW129734   2.567   2.394   0.890 -0.5962 -0.2738 -0.4947
 9431SOL    HW229735   2.707   2.341   0.912  0.1102  2.2538  1.6357
 9432SOL     OW29736   0.736   3.855   1.619 -0.3346  0.5298 -0.1781
 9432SOL    HW129737   0.707   3.764   1.621  0.0639  0.4133  0.2458
 9432SOL    HW229738   0.827   3.853   1.647 -0.2762  1.0453 -0.3052
 9433SOL     OW29739   4.040   6.498   2.574  0.8989  1.0386 -0.4357
 9433SOL    HW129740   3.973   6.462   2.632  0.7837  0.1433 -1.1156
 9433SOL    HW229741   4.008   6.586   2.554 -0.7112  0.2218 -1.6929
 9434SOL     OW29742   5.257   1.329   5.999 -0.1690  0.2238  0.6220
 9434SOL    HW129743   5.341   1.290   6.025 -0.4585 -0.4974  0.5123
 9434SOL    HW229744   5.229   1.380   6.074  1.0485  1.6575  0.1636
 9435SOL     OW29745   1.918   5.876  12.312  0.1771  0.3552 -0.1326
 9435SOL    HW129746   1.840   5.903  12.361  0.6355  0.3190  0.6328
 9435SOL    HW229747   1.946   5.795  12.354 -2.2293 -2.5690 -3.4911
 9436SOL     OW29748   0.072   0.980   1.814 -0.9404 -0.1233  0.2530
 9436SOL    HW129749   0.056   1.010   1.725 -0.5444 -0.2566  0.1316
 9436SOL    HW229750   0.041   0.890   1.816 -3.3760  0.6678  0.9949
 9437SOL     OW29751   6.585   6.410   7.876 -0.3485  0.2725 -0.0585
 9437SOL    HW129752   6.596   6.315   7.866  0.1780  0.2954  0.2510
 9437SOL    HW229753   6.504   6.430   7.830  0.5544 -0.0116 -1.8605
 9438SOL     OW29754   0.283   2.619   2.753  0.3618  0.2224 -0.0243
 9438SOL    HW129755   0.197   2.607   2.712 -0.7561  0.1820  2.1993
 9438SOL    HW229756   0.271   2.694   2.811  1.4701 -0.5455  1.2358
 9439SOL     OW29757   7.045   3.042   7.893  0.5026  0.2477  0.3569
 9439SOL    HW129758   7.066   2.955   7.859  1.2350  0.5734 -0.0451
 9439SOL    HW229759   6.950   3.041   7.903  0.5507 -0.7661  0.8317
 9440SOL     OW29760   6.728   3.367   5.064  0.4480 -0.0644 -0.0167
 9440SOL    HW129761   6.670   3.406   5.129  0.6035  1.4892 -0.7727
 9440SOL    HW229762   6.752   3.283   5.102 -1.4116 -0.2765  0.8017
 9441SOL     OW29763   6.924   2.431  11.651  0.1421 -0.3595 -0.8747
 9441SOL    HW129764   6.944   2.443  11.558  1.7822 -0.9495 -0.6432
 9441SOL    HW229765   6.902   2.338  11.659  1.5663 -0.6982 -0.4717
 9442SOL     OW29766   5.708   0.315   5.647  0.2093  0.1257 -0.2029
 9442SOL    HW129767   5.705   0.312   5.551  0.5656 -1.5996 -0.2016
 9442SOL    HW229768   5.799   0.333   5.668  0.0150  1.1192 -0.1747
 9443SOL     OW29769   3.968   3.147   1.354  0.2485  0.0671 -0.2793
 9443SOL    HW129770   4.008   3.063   1.332  1.2221 -0.1868  2.1299
 9443SOL    HW229771   4.040   3.210   1.351  0.3444  0.1008  1.4390
 9444SOL     OW29772   0.998   2.163   4.319 -0.3350 -0.2691  0.2849
 9444SOL    HW129773   1.017   2.257   4.324  0.1010 -0.4060  1.3510
 9444SOL    HW229774   0.963   2.141   4.405  0.3984 -1.2729  0.3377
 9445SOL     OW29775   3.060   5.450  10.042 -1.2499  0.1442 -0.1866
 9445SOL    HW129776   3.108   5.403  10.110 -0.3394  1.0960 -0.1517
 9445SOL    HW229777   3.012   5.382   9.995 -0.6470 -0.7078  0.4024
 9446SOL     OW29778   3.920   7.114   4.529  0.7239 -0.2133  0.0871
 9446SOL    HW129779   3.877   7.045   4.580 -0.8905 -1.9336 -3.3175
 9446SOL    HW229780   3.895   7.195   4.573 -4.7546 -1.1976 -0.5470
 9447SOL     OW29781   5.217   1.951   2.813  0.4995 -0.1450  0.2385
 9447SOL    HW129782   5.136   1.925   2.858  0.3476 -0.4919 -0.2296
 9447SOL    HW229783   5.221   2.046   2.824 -0.3994 -0.0142 -0.4136
 9448SOL     OW29784   5.529   6.885   9.304 -0.2779  0.1153  0.2763
 9448SOL    HW129785   5.559   6.968   9.267 -0.2185 -0.2218 -0.4461
 9448SOL    HW229786   5.569   6.818   9.249 -0.4768 -0.3897  0.7375
 9449SOL     OW29787   6.859   2.032   6.652 -0.1254 -0.0807  0.0317
 9449SOL    HW129788   6.939   1.990   6.620 -1.2760 -1.2732 -1.4730
 9449SOL    HW229789   6.838   2.098   6.585 -1.2562 -0.9176 -0.4757
 9450SOL     OW29790   6.849   4.147   1.761  0.1025  0.2995  0.3697
 9450SOL    HW129791   6.919   4.082   1.756  0.1106  0.2939  0.5561
 9450SOL    HW229792   6.781   4.106   1.814 -0.1198  0.2353  0.0388
 9451SOL     OW29793   6.152   1.265   0.954  0.4934 -0.2198 -0.2244
 9451SOL    HW129794   6.165   1.174   0.926  2.7699  0.4203 -1.5181
 9451SOL    HW229795   6.237   1.292   0.987 -0.4368  1.1500  1.1561
 9452SOL     OW29796   2.312   0.548   8.395  0.2398 -0.1385 -0.4371
 9452SOL    HW129797   2.346   0.638   8.396 -0.3611  0.1117 -1.3478
 9452SOL    HW229798   2.385   0.495   8.362  0.4745  0.0638 -0.2503
 9453SOL     OW29799   2.869   6.385   2.116  0.7132  0.5650  0.3721
 9453SOL    HW129800   2.929   6.398   2.190  0.6817 -0.9321  0.6948
 9453SOL    HW229801   2.904   6.308   2.071 -0.1746  0.5207 -0.2547
 9454SOL     OW29802   1.962   4.339   7.934  0.2993 -0.5694 -0.4043
 9454SOL    HW129803   1.935   4.270   7.873  0.3945 -1.2218  0.2770
 9454SOL    HW229804   1.958   4.420   7.882  1.9915 -1.2937 -1.7768
 9455SOL     OW29805   4.356   2.598  10.335 -0.4413 -0.5111 -0.0246
 9455SOL    HW129806   4.379   2.609  10.427 -3.6920 -2.1162  1.1482
 9455SOL    HW229807   4.304   2.675  10.314  0.2239 -0.1899 -0.5245
 9456SOL     OW29808   2.831   1.054   6.568  0.3480 -0.5179  0.0479
 9456SOL    HW129809   2.837   0.962   6.594  2.4573 -0.7316 -0.9701
 9456SOL    HW229810   2.866   1.103   6.642 -0.2305 -0.5724  0.3600
 9457SOL     OW29811   3.797   2.203   4.277 -0.5455 -0.5264 -0.9930
 9457SOL    HW129812   3.735   2.198   4.350  0.0325 -0.3861 -0.4868
 9457SOL    HW229813   3.765   2.277   4.224 -0.3916  0.0254 -0.3313
 9458SOL     OW29814   2.672   7.715  10.342  0.2166  0.1598 -0.1246
 9458SOL    HW129815   2.581   7.737  10.359  0.6048  0.5958  1.5801
 9458SOL    HW229816   2.669   7.635  10.290 -1.1276  0.7290 -0.9801
 9459SOL     OW29817   2.705   6.680  11.871  0.4866 -0.2129 -0.1991
 9459SOL    HW129818   2.675   6.711  11.786 -0.0272  0.3044  0.1624
 9459SOL    HW229819   2.775   6.740  11.896 -0.6128  0.8051  0.5721
 9460SOL     OW29820   2.250   2.725  11.238  0.0406  0.0803  0.2147
 9460SOL    HW129821   2.238   2.785  11.312 -0.4071 -0.2418  0.4098
 9460SOL    HW229822   2.271   2.641  11.279  0.9821  0.1771 -0.0679
 9461SOL     OW29823   6.668   2.749   2.293 -0.5432  0.5719  0.1420
 9461SOL    HW129824   6.649   2.748   2.200 -1.0857  1.6780  0.2136
 9461SOL    HW229825   6.620   2.826   2.326  1.6576  1.7334  0.8682
 9462SOL     OW29826   6.465   4.575  10.651 -0.1377 -0.0654  0.0084
 9462SOL    HW129827   6.372   4.578  10.674  0.1275 -0.8733  1.2468
 9462SOL    HW229828   6.466   4.536  10.564 -0.9155 -0.8445  0.3313
 9463SOL     OW29829   4.949   1.018   8.558 -0.2264 -0.6401 -0.1476
 9463SOL    HW129830   4.865   1.061   8.541 -1.9428 -4.4454 -2.8895
 9463SOL    HW229831   5.012   1.066   8.504 -0.9126  1.2925  0.6928
 9464SOL     OW29832   2.386   6.890   6.758 -0.8687  0.4799 -0.1753
 9464SOL    HW129833   2.441   6.874   6.681  2.3280  0.4154  1.9303
 9464SOL    HW229834   2.353   6.803   6.782  2.1470 -0.4245  1.1955
 9465SOL     OW29835   2.745   6.329   6.811  0.5518 -0.2194 -0.0400
 9465SOL    HW129836   2.712   6.264   6.873 -1.0011 -1.2327 -1.8174
 9465SOL    HW229837   2.775   6.278   6.736  0.0887  1.0547 -1.1391
 9466SOL     OW29838   1.997   5.235  12.410 -0.1714  0.3875  0.4351
 9466SOL    HW129839   2.055   5.200  12.478 -0.2565 -1.8310 -0.5213
 9466SOL    HW229840   1.917   5.259  12.457  0.4496  0.6998  1.3624
 9467SOL     OW29841   4.144   5.086  11.457  0.1895 -0.1568 -0.3406
 9467SOL    HW129842   4.224   5.117  11.416 -1.2747  2.3434 -1.5765
 9467SOL    HW229843   4.157   5.100  11.551  0.7045  1.6401 -0.6398
 9468SOL     OW29844   5.910   6.964   9.396 -0.4416 -0.0230 -0.6696
 9468SOL    HW129845   5.891   6.884   9.447  0.2627 -0.4871 -1.1152
 9468SOL    HW229846   5.998   6.989   9.424 -0.1926 -0.0764 -1.3898
 9469SOL     OW29847   1.146   6.582   4.963 -0.4364  0.0391 -0.0850
 9469SOL    HW129848   1.179   6.616   5.047 -1.3892  2.9948 -0.7741
 9469SOL    HW229849   1.062   6.542   4.985  0.3028 -1.1805  0.6376
 9470SOL     OW29850   4.303   2.014   4.293  0.3278  0.1794 -0.3073
 9470SOL    HW129851   4.300   2.109   4.303 -1.6191  0.1295  0.1477
 9470SOL    HW229852   4.273   1.998   4.204 -1.1669 -0.0335  0.2020
 9471SOL     OW29853   2.827   7.228   7.237 -0.7888 -0.1226  0.1089
 9471SOL    HW129854   2.872   7.244   7.320  0.1174 -0.5343 -0.2914
 9471SOL    HW229855   2.861   7.144   7.207 -0.3414  0.4822 -1.1643
 9472SOL     OW29856   6.046   5.821  11.272  0.3042  0.6026 -0.2333
 9472SOL    HW129857   6.123   5.871  11.243 -0.4794  0.6536 -2.4404
 9472SOL    HW229858   5.980   5.839  11.205 -0.8017 -1.4498  0.2220
 9473SOL     OW29859   7.762   0.863   2.154  0.6355 -0.0112 -0.4624
 9473SOL    HW129860   7.741   0.950   2.187 -0.5945  0.0772 -1.4052
 9473SOL    HW229861   7.803   0.818   2.229  1.1793  1.3176  0.0662
 9474SOL     OW29862   0.684   0.824   8.664  0.3139 -0.0816 -0.0444
 9474SOL    HW129863   0.627   0.837   8.740  0.6890  0.5759  0.1250
 9474SOL    HW229864   0.772   0.839   8.697  0.7784 -2.6230  0.0805
 9475SOL     OW29865   0.347   7.617  10.532  0.1679  0.1250  1.3076
 9475SOL    HW129866   0.287   7.680  10.573 -1.7686 -0.6212 -0.2215
 9475SOL    HW229867   0.290   7.553  10.490  2.0670 -0.9022  0.1410
 9476SOL     OW29868   2.046   4.342   0.284 -0.2893  0.4462  0.2813
 9476SOL    HW129869   2.023   4.431   0.259 -0.0100  0.5779  0.4901
 9476SOL    HW229870   2.050   4.344   0.379  0.7376  0.4732  0.2539
 9477SOL     OW29871   5.641   4.587   5.733  0.1060 -0.7283  0.6121
 9477SOL    HW129872   5.651   4.608   5.640  2.6913 -2.8355  0.2864
 9477SOL    HW229873   5.688   4.657   5.779  0.8810 -0.9160  0.1316
 9478SOL     OW29874   2.481   5.579  10.383 -0.0533  0.1072 -0.2011
 9478SOL    HW129875   2.506   5.626  10.304 -0.5920 -0.1852 -0.5463
 9478SOL    HW229876   2.394   5.612  10.405  0.5239  0.9727  0.8852
 9479SOL     OW29877   2.350   0.419   9.602 -0.3267  0.5556 -0.1914
 9479SOL    HW129878   2.431   0.456   9.566 -0.8880 -0.4531 -2.7176
 9479SOL    HW229879   2.293   0.495   9.613  0.2716  1.0385 -0.3246
 9480SOL     OW29880   2.337   2.959  10.226  0.1872 -0.2576  0.4616
 9480SOL    HW129881   2.395   2.923  10.293 -0.9368 -2.0064  0.5900
 9480SOL    HW229882   2.252   2.966  10.270 -1.0312 -3.1472 -1.1170
 9481SOL     OW29883   0.705   6.786   0.971 -0.3362  0.1551 -0.0098
 9481SOL    HW129884   0.712   6.746   0.884 -2.0731 -1.8086  0.6676
 9481SOL    HW229885   0.788   6.766   1.013 -0.1209 -0.3651 -0.6514
 9482SOL     OW29886   5.287   5.335   6.179 -0.4720 -0.0148 -0.1137
 9482SOL    HW129887   5.230   5.286   6.119 -0.6128 -0.6280  0.5131
 9482SOL    HW229888   5.319   5.270   6.241 -0.0123  0.5429  0.2494
 9483SOL     OW29889   3.241   6.279   5.400  0.2949  0.3279  0.0838
 9483SOL    HW129890   3.222   6.200   5.451  2.0660 -0.7604 -0.8295
 9483SOL    HW229891   3.273   6.342   5.465  0.4872 -0.3036  0.6084
 9484SOL     OW29892   2.709   2.944   8.807 -0.4874 -0.1057  0.4055
 9484SOL    HW129893   2.673   3.029   8.780  0.9197  0.0119 -1.2900
 9484SOL    HW229894   2.802   2.961   8.820 -0.5167 -0.9886  2.0575
 9485SOL     OW29895   4.020   0.045   5.906 -0.1619  0.5943 -0.4450
 9485SOL    HW129896   4.110   0.030   5.878 -0.0804  0.7234 -0.2515
 9485SOL    HW229897   3.984   0.106   5.842  0.1899  1.3226  0.0348
 9486SOL     OW29898   1.809   3.375   7.289  0.5373  0.0911  0.3441
 9486SOL    HW129899   1.786   3.344   7.377  4.4011  1.0895  1.9462
 9486SOL    HW229900   1.816   3.470   7.297 -0.4751  0.3684 -1.5004
 9487SOL     OW29901   6.836   5.527   8.907  0.2169  0.5573 -0.1899
 9487SOL    HW129902   6.777   5.549   8.979 -0.9193  0.8462 -1.1621
 9487SOL    HW229903   6.781   5.476   8.847  1.5889 -1.1978 -0.0662
 9488SOL     OW29904   3.159   5.574   4.291 -0.2437  0.3738 -0.3599
 9488SOL    HW129905   3.069   5.604   4.275  0.3123  1.8454 -0.9299
 9488SOL    HW229906   3.155   5.479   4.284 -1.7239  0.4324 -0.5264
 9489SOL     OW29907   6.241   1.270   7.119  0.4047 -0.1596  0.1328
 9489SOL    HW129908   6.228   1.179   7.091  0.1731  0.0130 -0.3489
 9489SOL    HW229909   6.265   1.316   7.038  2.2979 -0.1137  0.6692
 9490SOL     OW29910   3.450   1.856   8.439 -0.1970  0.6487  0.5067
 9490SOL    HW129911   3.377   1.796   8.425  0.8071 -0.4648 -0.1418
 9490SOL    HW229912   3.512   1.836   8.368  0.7469  1.5305  1.0540
 9491SOL     OW29913   3.764   1.316   1.608 -0.7009 -0.1851 -0.1134
 9491SOL    HW129914   3.750   1.222   1.623  0.1382 -0.2492  0.3055
 9491SOL    HW229915   3.859   1.324   1.596 -0.9353  0.3735 -1.8583
 9492SOL     OW29916   7.088   3.238   1.361 -0.1234 -0.8325 -0.2646
 9492SOL    HW129917   7.136   3.267   1.439 -3.0193  0.0656  1.3438
 9492SOL    HW229918   7.074   3.319   1.311 -4.1047  0.0856  1.8629
 9493SOL     OW29919   2.476   1.319  10.420 -0.3617 -0.4203  0.4560
 9493SOL    HW129920   2.403   1.380  10.428 -0.1745 -0.1924  0.4493
 9493SOL    HW229921   2.442   1.247  10.366 -0.9204 -0.8538  1.3567
 9494SOL     OW29922   0.370   2.272   0.220 -0.0073  1.0195 -0.0566
 9494SOL    HW129923   0.327   2.228   0.146  1.5476  1.5163 -1.3058
 9494SOL    HW229924   0.299   2.316   0.266 -0.9558  1.1919 -1.6075
 9495SOL     OW29925   2.329   4.158   6.456  0.0275 -0.1105  0.0661
 9495SOL    HW129926   2.277   4.128   6.382  0.9440 -0.5917 -0.4102
 9495SOL    HW229927   2.419   4.160   6.422  0.4869 -0.4985  1.2115
 9496SOL     OW29928   6.497   6.987  10.864 -0.3067  0.3675  1.1678
 9496SOL    HW129929   6.502   7.071  10.819  2.9130 -0.3389 -0.0353
 9496SOL    HW229930   6.407   6.957  10.847  0.1970  0.8214 -3.7420
 9497SOL     OW29931   2.684   6.865   6.964 -0.2458  0.0860  0.1010
 9497SOL    HW129932   2.651   6.778   6.984 -0.2781 -0.0498 -0.5165
 9497SOL    HW229933   2.688   6.910   7.049 -0.4020 -0.4518  0.3969
 9498SOL     OW29934   5.939   3.845   6.276  0.1659 -0.1456 -0.2459
 9498SOL    HW129935   5.902   3.867   6.361 -0.0465  2.5512 -0.9531
 9498SOL    HW229936   5.863   3.832   6.220  0.2791 -2.8883  0.0983
 9499SOL     OW29937   2.545   3.407   7.056  0.2704 -0.5787 -0.2719
 9499SOL    HW129938   2.577   3.348   6.988  1.5004 -0.9563  0.6036
 9499SOL    HW229939   2.450   3.401   7.049  0.3495 -2.3907 -0.4686
 9500SOL     OW29940   4.947   1.489  10.159  0.2131 -0.1052 -0.5268
 9500SOL    HW129941   4.962   1.572  10.114 -0.0495  1.2502  1.7718
 9500SOL    HW229942   4.980   1.502  10.247  0.4186 -2.5637 -0.1577
 9501SOL     OW29943   2.044   5.744   9.179 -0.3782 -0.3323 -0.1446
 9501SOL    HW129944   2.132   5.782   9.175 -0.8025  0.6684 -0.3229
 9501SOL    HW229945   2.036   5.712   9.269  0.0281 -0.0536 -0.0050
 9502SOL     OW29946   3.434   1.458   3.500  0.2655 -0.0588 -0.3462
 9502SOL    HW129947   3.486   1.381   3.521  1.1006  0.3737 -0.7876
 9502SOL    HW229948   3.490   1.533   3.522  0.0727  0.4097 -1.3738
 9503SOL     OW29949   4.327   1.489   5.687  0.4355  0.2206 -0.1554
 9503SOL    HW129950   4.332   1.415   5.627  2.2191 -2.1359  2.6175
 9503SOL    HW229951   4.367   1.457   5.768 -0.6033  3.5894  1.9025
 9504SOL     OW29952   2.318   1.407  11.285 -0.5211 -0.3683  0.1834
 9504SOL    HW129953   2.292   1.369  11.201  0.4287 -2.1031  0.6145
 9504SOL    HW229954   2.281   1.348  11.350 -0.8671  0.7103  0.9880
 9505SOL     OW29955   5.616   7.140   9.184  0.1094 -0.0929  0.0175
 9505SOL    HW129956   5.704   7.170   9.162  0.6715 -2.0919 -0.6976
 9505SOL    HW229957   5.564   7.158   9.106  0.1159  0.2571  0.0949
 9506SOL     OW29958   4.401   2.795   7.275  0.2286  0.3869  0.2432
 9506SOL    HW129959   4.350   2.871   7.305  0.1368 -0.1728  1.5790
 9506SOL    HW229960   4.452   2.769   7.352  1.6135  0.1815 -0.7270
 9507SOL     OW29961   4.217   4.747   9.045 -0.1111  0.0957  0.3596
 9507SOL    HW129962   4.167   4.801   8.984 -0.0808 -0.6490 -0.3303
 9507SOL    HW229963   4.152   4.716   9.108 -0.4391 -0.4706 -0.2478
 9508SOL     OW29964   2.771   0.696  12.322  0.1404  0.7816  0.1627
 9508SOL    HW129965   2.713   0.759  12.365  0.6938  2.0030 -0.8458
 9508SOL    HW229966   2.743   0.695  12.231  0.1665 -0.4298  0.1480
 9509SOL     OW29967   2.977   4.795   8.731 -0.1901 -0.0145  0.3388
 9509SOL    HW129968   2.902   4.774   8.785  0.5972 -1.8765  0.7875
 9509SOL    HW229969   2.987   4.720   8.672  0.1148  1.1102 -1.1065
 9510SOL     OW29970   6.553   4.779   5.381  0.4845 -0.3100  0.6172
 9510SOL    HW129971   6.503   4.833   5.442 -1.1358 -2.1738  1.0498
 9510SOL    HW229972   6.641   4.775   5.418  0.7110  2.1032  0.4692
 9511SOL     OW29973   4.858   7.794   1.994  0.1779 -0.1782 -0.0423
 9511SOL    HW129974   4.948   7.786   1.963  1.6234  0.2035  3.5077
 9511SOL    HW229975   4.832   7.884   1.972  1.4476  0.3671  0.5876
 9512SOL     OW29976   5.369   6.384  11.672  0.0362 -0.4472 -0.4197
 9512SOL    HW129977   5.321   6.466  11.684  1.2431  0.3325 -0.7195
 9512SOL    HW229978   5.306   6.315  11.695 -1.5104  0.4807 -1.7137
 9513SOL     OW29979   5.763   7.085   5.613 -0.2856  0.6125 -0.0962
 9513SOL    HW129980   5.840   7.028   5.607  0.1545  0.9811  1.6020
 9513SOL    HW229981   5.795   7.164   5.657 -1.6078  0.8207  0.5338
 9514SOL     OW29982   2.726   3.056   4.091 -0.1344  0.4419 -0.0674
 9514SOL    HW129983   2.630   3.053   4.101 -0.0563 -0.1457  0.5557
 9514SOL    HW229984   2.751   2.965   4.077  0.5536  0.2630  2.0222
 9515SOL     OW29985   2.806   1.996  11.141  0.4555  0.4050 -0.2137
 9515SOL    HW129986   2.734   2.023  11.084  1.0000 -0.0484 -1.1407
 9515SOL    HW229987   2.795   1.901  11.151  1.6045  0.1143 -1.3849
 9516SOL     OW29988   2.487   1.133   5.008 -0.6917  0.1255 -0.1352
 9516SOL    HW129989   2.417   1.103   4.949 -0.9747 -0.9236  0.7015
 9516SOL    HW229990   2.444   1.141   5.093 -0.3745  1.9873 -0.1271
 9517SOL     OW29991   2.023   1.165   7.261 -0.5018 -0.3637 -0.3615
 9517SOL    HW129992   1.935   1.171   7.296 -0.4274  0.9127 -0.3196
 9517SOL    HW229993   2.018   1.097   7.193 -1.2272 -1.1000  0.4126
 9518SOL     OW29994   5.934   1.438   3.145 -0.0948  0.1031 -0.0014
 9518SOL    HW129995   5.861   1.396   3.191  0.9348  0.0641  1.6881
 9518SOL    HW229996   5.961   1.509   3.203  0.0922  1.2564 -1.4419
 9519SOL     OW29997   2.730   3.017  12.470 -0.3727  0.2462  0.0068
 9519SOL    HW129998   2.705   2.977  12.387  0.4785  0.3256 -0.3044
 9519SOL    HW229999   2.673   3.093  12.479  0.6812  1.2694 -1.3950
 9520SOL     OW30000   1.146   2.651   8.031 -0.1805 -0.4155 -0.4790
 9520SOL    HW130001   1.113   2.741   8.024  1.0336  0.0947  0.0026
 9520SOL    HW230002   1.068   2.597   8.037 -1.0992  0.2547 -4.1530
 9521SOL     OW30003   7.678   5.175   9.663  0.2974 -0.0571 -0.1202
 9521SOL    HW130004   7.647   5.206   9.748  0.2119  1.7236 -0.7532
 9521SOL    HW230005   7.771   5.196   9.661  0.3008 -0.0885 -0.4511
 9522SOL     OW30006   6.754   6.132   6.825  0.1019  0.7013 -0.4391
 9522SOL    HW130007   6.659   6.129   6.816  0.0465 -0.0238  0.2972
 9522SOL    HW230008   6.776   6.056   6.878  1.2547 -0.0192 -1.8606
 9523SOL     OW30009   4.171   5.282   5.160 -0.4096 -0.4293  0.1122
 9523SOL    HW130010   4.097   5.223   5.146 -0.8721  0.1827 -0.1006
 9523SOL    HW230011   4.142   5.342   5.229 -0.5379  0.4849 -0.7104
 9524SOL     OW30012   5.668   6.707   6.906 -0.4124  0.2034  0.0676
 9524SOL    HW130013   5.724   6.779   6.876 -1.1395  0.3527 -1.0099
 9524SOL    HW230014   5.599   6.750   6.956  0.0973  0.0784  0.8859
 9525SOL     OW30015   1.227   4.201   7.642  0.4115  0.0166  0.1759
 9525SOL    HW130016   1.220   4.123   7.697 -0.9085 -1.2272 -1.6259
 9525SOL    HW230017   1.316   4.233   7.657  1.1846 -2.1549  0.6180
 9526SOL     OW30018   3.587   6.526   8.647  0.2073  0.5962 -0.2628
 9526SOL    HW130019   3.495   6.548   8.660 -0.0001  0.3705 -1.2642
 9526SOL    HW230020   3.630   6.550   8.729 -0.3525  2.7263 -0.5441
 9527SOL     OW30021   3.296   6.861   4.174  0.5591  0.2836  0.6188
 9527SOL    HW130022   3.310   6.939   4.120 -0.9835 -1.4936 -2.6670
 9527SOL    HW230023   3.219   6.882   4.226  0.2680  1.0431 -0.0904
 9528SOL     OW30024   3.539   6.978   8.943 -0.5974  0.3714  0.1722
 9528SOL    HW130025   3.627   6.975   8.982 -1.2132 -1.0319  1.5807
 9528SOL    HW230026   3.555   6.988   8.850  1.0540  0.5781  0.4376
 9529SOL     OW30027   3.275   0.615   1.332 -0.6586 -0.0549 -0.2464
 9529SOL    HW130028   3.258   0.616   1.426  1.7283  0.9451  0.2485
 9529SOL    HW230029   3.335   0.541   1.319  1.0670  1.3006 -0.4894
 9530SOL     OW30030   0.639   4.601   2.340  0.5988  0.0277  0.7143
 9530SOL    HW130031   0.628   4.599   2.245  1.3417 -0.4270  0.6329
 9530SOL    HW230032   0.567   4.657   2.371 -1.2391 -1.8764  0.1322
 9531SOL     OW30033   6.686   0.870  10.531  0.2699  1.0990 -0.1077
 9531SOL    HW130034   6.653   0.938  10.590  2.3805  1.2795  0.9775
 9531SOL    HW230035   6.737   0.812  10.587  0.0289 -0.3507 -1.3270
 9532SOL     OW30036   0.177   0.635  11.165  0.3295 -0.1113  0.2892
 9532SOL    HW130037   0.170   0.727  11.190  1.2400 -0.1732  0.8085
 9532SOL    HW230038   0.196   0.637  11.071 -0.5334  0.1945  0.1114
 9533SOL     OW30039   3.872   7.721   4.233 -0.3488 -0.2739  0.3935
 9533SOL    HW130040   3.819   7.786   4.187 -0.3744 -1.2663 -1.0695
 9533SOL    HW230041   3.956   7.764   4.249  0.3172 -0.4114 -2.2591
 9534SOL     OW30042   4.348   3.090   1.298 -0.8746 -0.0793 -0.4913
 9534SOL    HW130043   4.411   3.037   1.249 -0.5270  1.1112 -1.3715
 9534SOL    HW230044   4.262   3.057   1.271 -0.6595 -0.9756 -0.1183
 9535SOL     OW30045   4.032   0.615   4.589  0.0120  0.2380  0.6564
 9535SOL    HW130046   3.955   0.603   4.645 -0.1122  0.4294  0.5279
 9535SOL    HW230047   4.021   0.703   4.552 -0.1887 -0.1062 -0.1122
 9536SOL     OW30048   6.539   0.349   6.742  0.6949  0.2985 -0.1591
 9536SOL    HW130049   6.450   0.366   6.713  1.1771  0.1363 -1.8218
 9536SOL    HW230050   6.577   0.435   6.759  0.3287  0.3823  0.2307
 9537SOL     OW30051   0.769   7.913   8.960  0.2094 -0.0500  0.7249
 9537SOL    HW130052   0.685   7.959   8.963 -0.3537 -1.0044 -0.0022
 9537SOL    HW230053   0.756   7.836   9.016 -0.2707 -1.5545 -1.3520
 9538SOL     OW30054   0.206   5.135   9.786  0.2817  0.4249  0.3433
 9538SOL    HW130055   0.279   5.153   9.844  1.3391  0.9153 -1.0815
 9538SOL    HW230056   0.179   5.046   9.807  0.9634  0.4195  1.2278
 9539SOL     OW30057   5.405   1.255   1.968 -0.0310  0.0138  0.6507
 9539SOL    HW130058   5.438   1.229   2.054 -1.0801  0.4238  1.1960
 9539SOL    HW230059   5.483   1.277   1.917  0.6024 -0.3585  1.4569
 9540SOL     OW30060   5.491   1.317   9.539 -0.1952 -0.1272 -0.3349
 9540SOL    HW130061   5.480   1.408   9.566  0.4535 -0.3212  0.6457
 9540SOL    HW230062   5.464   1.266   9.616 -0.0094 -0.7453 -0.6740
 9541SOL     OW30063   5.548   0.707  11.231 -0.2529 -0.2484  0.0042
 9541SOL    HW130064   5.529   0.639  11.295  0.2252 -1.5212 -1.1677
 9541SOL    HW230065   5.642   0.699  11.214  0.0125  1.3069  0.4742
 9542SOL     OW30066   4.024   0.792   0.172 -0.0520 -0.0076 -0.6187
 9542SOL    HW130067   3.941   0.770   0.130 -1.4775  0.0168  1.9704
 9542SOL    HW230068   4.087   0.730   0.134 -1.0323  0.3731 -3.0893
 9543SOL     OW30069   6.363   0.162   3.863 -0.1567  0.1728  0.0403
 9543SOL    HW130070   6.281   0.156   3.911 -0.6100 -1.0337 -0.8473
 9543SOL    HW230071   6.337   0.176   3.772  0.5886 -0.8129 -0.3431
 9544SOL     OW30072   4.597   5.728   7.915  0.3469 -0.6676  0.4859
 9544SOL    HW130073   4.514   5.716   7.962 -0.7234  0.0670 -1.1096
 9544SOL    HW230074   4.574   5.712   7.823  2.2300 -1.4912  0.1224
 9545SOL     OW30075   4.162   1.183  10.879 -0.2319 -0.1849 -0.2562
 9545SOL    HW130076   4.228   1.236  10.924  1.2359 -1.3582 -0.9291
 9545SOL    HW230077   4.164   1.099  10.924 -0.7257 -0.4801 -0.7720
 9546SOL     OW30078   6.324   1.156   9.418  0.2084 -0.5284  0.3670
 9546SOL    HW130079   6.409   1.141   9.460  1.7361 -1.4977 -2.7575
 9546SOL    HW230080   6.327   1.246   9.386 -0.5383 -0.1245  1.3654
 9547SOL     OW30081   5.898   3.460   2.218 -0.4826  0.2375  0.1407
 9547SOL    HW130082   5.927   3.544   2.182  1.4164  0.2948  1.6410
 9547SOL    HW230083   5.814   3.479   2.258 -2.2766  0.3697 -3.2623
 9548SOL     OW30084   3.846   6.478   1.413 -0.9248  0.3211 -0.1984
 9548SOL    HW130085   3.794   6.557   1.402 -1.9435 -0.4333 -1.0854
 9548SOL    HW230086   3.786   6.406   1.391  0.6723 -0.5606 -2.0077
 9549SOL     OW30087   0.257   2.949   5.172  0.6994 -0.1419  0.1467
 9549SOL    HW130088   0.172   2.990   5.158  1.1034  0.6953  0.0588
 9549SOL    HW230089   0.257   2.925   5.265 -0.1343 -1.3465 -0.1526
 9550SOL     OW30090   5.766   3.631  10.460  0.4124  0.5358 -0.3887
 9550SOL    HW130091   5.783   3.538  10.478  1.9347  0.8942  0.2376
 9550SOL    HW230092   5.697   3.655  10.521  0.0997 -0.1487 -0.4611
 9551SOL     OW30093   2.291   5.468   4.521  0.1338 -0.4124 -0.0968
 9551SOL    HW130094   2.286   5.398   4.587 -0.5067 -0.9217 -0.6631
 9551SOL    HW230095   2.375   5.510   4.537 -0.2421 -0.1691  1.3941
 9552SOL     OW30096   6.444   1.268   3.215  0.8568 -0.1310 -0.1793
 9552SOL    HW130097   6.436   1.243   3.124  0.0443 -0.3055 -0.0663
 9552SOL    HW230098   6.375   1.332   3.229 -0.2096 -1.4230  0.7578
 9553SOL     OW30099   0.136   4.159   1.370  0.0163 -0.2229  0.1328
 9553SOL    HW130100   0.086   4.174   1.290 -0.7603  0.5317  0.7359
 9553SOL    HW230101   0.121   4.238   1.422  1.1675 -0.3497  0.6848
 9554SOL     OW30102   1.320   2.817   5.149 -0.0958  0.3366  0.9543
 9554SOL    HW130103   1.294   2.904   5.179 -1.0498  1.2017 -2.0201
 9554SOL    HW230104   1.403   2.831   5.104 -1.0307  0.0994 -0.9500
 9555SOL     OW30105   3.865   3.796   2.635 -0.5190  0.7716  0.7212
 9555SOL    HW130106   3.911   3.851   2.699  0.7783  2.3575 -1.4480
 9555SOL    HW230107   3.915   3.714   2.633 -0.5660  0.7110  1.6924
 9556SOL     OW30108   1.919   3.155   0.728 -0.4220  0.2066 -0.3167
 9556SOL    HW130109   1.907   3.237   0.681 -2.1109 -0.0447 -0.4217
 9556SOL    HW230110   1.866   3.092   0.679  0.7133 -0.9179 -0.1439
 9557SOL     OW30111   0.018   6.777   6.238 -0.2106 -0.6969  0.0503
 9557SOL    HW130112   0.016   6.774   6.142  0.9564 -0.6324  0.0081
 9557SOL    HW230113  -0.002   6.687   6.265  0.4287 -0.9555 -0.2956
 9558SOL     OW30114   5.772   5.752   9.395  0.6648 -0.2635  0.0504
 9558SOL    HW130115   5.698   5.697   9.421 -0.0282  1.3341  1.6342
 9558SOL    HW230116   5.802   5.713   9.313 -1.5264 -1.3380 -0.3288
 9559SOL     OW30117   3.259   6.824   6.668  0.2394 -0.3793  0.1012
 9559SOL    HW130118   3.253   6.730   6.685  0.5916 -0.5595 -0.6916
 9559SOL    HW230119   3.168   6.854   6.667  0.1419 -0.6487  0.6863
 9560SOL     OW30120   4.727   0.622   4.595  0.0359  0.1309 -0.2628
 9560SOL    HW130121   4.806   0.625   4.648 -0.0827 -0.0598 -0.0746
 9560SOL    HW230122   4.662   0.581   4.651 -0.8200  2.2181  0.3876
 9561SOL     OW30123   2.490   7.175   4.650 -0.2311  0.1429  0.3845
 9561SOL    HW130124   2.421   7.119   4.688  0.0727 -0.6274 -0.1807
 9561SOL    HW230125   2.568   7.153   4.700  0.5224 -1.9720 -1.5740
 9562SOL     OW30126   2.398   2.726   2.455  0.0949  0.6812  0.4733
 9562SOL    HW130127   2.331   2.779   2.500  1.5188  1.7337  1.4567
 9562SOL    HW230128   2.447   2.789   2.403  1.9506  0.4243  1.8120
 9563SOL     OW30129   3.565   3.494  10.853  0.5116 -0.0511 -0.4534
 9563SOL    HW130130   3.611   3.561  10.904  1.3077 -0.6610 -0.3469
 9563SOL    HW230131   3.548   3.536  10.769 -0.4661  0.8327  0.1537
 9564SOL     OW30132   4.998   1.909   2.975 -0.1507 -0.1821  0.3191
 9564SOL    HW130133   4.923   1.868   2.933  1.2623 -3.4233  0.6465
 9564SOL    HW230134   4.968   1.928   3.064 -0.9450 -0.2637  0.0802
 9565SOL     OW30135   2.752   4.525   5.941 -0.2906 -0.1445 -0.0032
 9565SOL    HW130136   2.733   4.442   5.896  1.9874  1.1174 -3.7249
 9565SOL    HW230137   2.796   4.498   6.022 -0.2841 -2.5899 -0.7234
 9566SOL     OW30138   2.797   2.884   0.800  0.1466  0.3296 -0.4487
 9566SOL    HW130139   2.794   2.948   0.728  1.8960 -0.5434 -1.3628
 9566SOL    HW230140   2.854   2.925   0.866 -0.9278  0.8492  0.1731
 9567SOL     OW30141   6.511   2.502  10.125 -0.1070 -0.0784 -0.1083
 9567SOL    HW130142   6.491   2.415  10.088  1.0182 -1.8440  3.0710
 9567SOL    HW230143   6.429   2.551  10.115 -0.5063 -1.0833 -2.8223
 9568SOL     OW30144   1.362   7.521   6.286  0.1153 -0.9353  0.4055
 9568SOL    HW130145   1.396   7.440   6.248  1.1920 -0.3608  0.1229
 9568SOL    HW230146   1.386   7.517   6.378  0.2617 -0.8892  0.3695
 9569SOL     OW30147   2.190   5.017   7.402 -0.0969 -0.2780 -0.5649
 9569SOL    HW130148   2.133   4.951   7.364 -0.5639 -0.9757  1.2727
 9569SOL    HW230149   2.232   4.974   7.476  0.6936  1.0575 -0.1946
 9570SOL     OW30150   7.867   6.251  10.026  0.0394 -0.1985  0.4722
 9570SOL    HW130151   7.800   6.186  10.049 -0.2210 -0.4172 -0.8249
 9570SOL    HW230152   7.900   6.282  10.110 -3.2037  1.5486  1.2456
 9571SOL     OW30153   2.810   4.035  12.224  0.4490 -0.3239 -0.4820
 9571SOL    HW130154   2.753   4.082  12.164  0.2756  0.3661  0.1995
 9571SOL    HW230155   2.846   3.963  12.173 -0.5096 -0.3654 -1.1030
 9572SOL     OW30156   4.296   3.506   8.284  0.2996 -0.1253 -0.2060
 9572SOL    HW130157   4.324   3.415   8.274 -1.2656 -0.7614  0.8237
 9572SOL    HW230158   4.201   3.501   8.294  0.2281  1.5984  0.3145
 9573SOL     OW30159   2.107   5.406   4.945  0.2240 -0.1833  0.0621
 9573SOL    HW130160   2.047   5.476   4.921  0.7027  0.1935 -0.0706
 9573SOL    HW230161   2.100   5.400   5.040 -0.0079 -0.1300  0.0491
 9574SOL     OW30162   7.052   6.281   7.524  0.4056  0.0876  0.4034
 9574SOL    HW130163   7.031   6.302   7.615  0.1792 -1.6280  0.7766
 9574SOL    HW230164   7.007   6.348   7.473  0.2677  0.8887  1.5277
 9575SOL     OW30165   6.704   4.681   5.899 -0.3900 -0.2241 -0.5606
 9575SOL    HW130166   6.799   4.665   5.899 -0.1253  1.1783 -0.7693
 9575SOL    HW230167   6.665   4.594   5.896  0.8984 -0.7981 -1.8786
 9576SOL     OW30168   6.611   6.288   1.199  0.1459 -0.0526 -0.3129
 9576SOL    HW130169   6.617   6.274   1.293  1.2090  1.3078 -0.1331
 9576SOL    HW230170   6.520   6.269   1.177 -0.0999 -0.4399  0.9762
 9577SOL     OW30171   5.402   1.781   0.789 -0.0256 -0.0205 -0.6343
 9577SOL    HW130172   5.350   1.713   0.831  0.8926  0.3393  1.2212
 9577SOL    HW230173   5.371   1.863   0.828  0.8261  0.3354 -0.6725
 9578SOL     OW30174   5.908   0.460   5.197 -0.1376 -0.2806  0.1861
 9578SOL    HW130175   5.961   0.535   5.173  0.3365 -1.0753 -1.3486
 9578SOL    HW230176   5.971   0.392   5.222 -0.4498 -0.8168 -0.4251
 9579SOL     OW30177   7.505   6.717   7.545 -0.1983  0.6360  0.1522
 9579SOL    HW130178   7.460   6.766   7.613  1.6388  1.4641  0.8470
 9579SOL    HW230179   7.564   6.659   7.593 -0.3030 -0.2167 -0.7177
 9580SOL     OW30180   6.058   1.799   4.091 -0.2265 -0.2644 -0.7376
 9580SOL    HW130181   5.984   1.858   4.103  0.0986  0.0356 -0.1635
 9580SOL    HW230182   6.135   1.857   4.087  0.1433 -0.6553  0.2491
 9581SOL     OW30183   4.566   3.315   6.420 -0.5668  0.1195  0.5365
 9581SOL    HW130184   4.553   3.410   6.418  0.8109  0.4083  2.2802
 9581SOL    HW230185   4.643   3.301   6.364 -3.0180 -0.5550 -2.9855
 9582SOL     OW30186   2.871   2.419   2.796  0.0126  0.7763  0.0654
 9582SOL    HW130187   2.813   2.373   2.736  0.6937 -0.7895  0.5506
 9582SOL    HW230188   2.868   2.510   2.767 -1.2871  0.4217 -1.0150
 9583SOL     OW30189   5.300   1.763   3.494 -0.2982 -0.3297 -0.5208
 9583SOL    HW130190   5.387   1.723   3.496  0.1780  0.7162  1.5991
 9583SOL    HW230191   5.314   1.851   3.460 -0.8335 -0.7344 -1.8656
 9584SOL     OW30192   3.466   6.529   9.514  0.4413  0.0830 -0.1991
 9584SOL    HW130193   3.379   6.537   9.473  0.5781 -0.1667 -0.5410
 9584SOL    HW230194   3.508   6.457   9.468  0.6712 -0.0819  0.2631
 9585SOL     OW30195   2.464   3.469   2.323 -0.0196 -0.2911  0.1476
 9585SOL    HW130196   2.493   3.402   2.383  0.8360 -0.7988 -0.8081
 9585SOL    HW230197   2.521   3.460   2.246 -0.2559  1.1474 -0.2336
 9586SOL     OW30198   5.982   7.222  10.677  0.1417  0.5577  0.4158
 9586SOL    HW130199   5.891   7.206  10.701  0.0804 -0.7619 -0.5375
 9586SOL    HW230200   6.032   7.202  10.756 -0.1933 -1.7731  0.1173
 9587SOL     OW30201   3.292   5.120   8.396  0.3367  0.2752  0.6597
 9587SOL    HW130202   3.268   5.027   8.390 -0.3846  0.4966  0.0729
 9587SOL    HW230203   3.379   5.124   8.357  0.7083 -0.2750  1.3936
 9588SOL     OW30204   7.354   4.673  12.002  0.3342 -0.5203  0.3559
 9588SOL    HW130205   7.437   4.627  11.995  0.2336 -0.6494  0.0260
 9588SOL    HW230206   7.342   4.686  12.096  0.4434 -1.0217  0.4433
 9589SOL     OW30207   0.864   5.668   4.552  0.3929 -0.0955  0.6108
 9589SOL    HW130208   0.890   5.579   4.577 -0.4647 -0.6233 -0.3058
 9589SOL    HW230209   0.928   5.694   4.486 -0.3014 -0.6858 -0.3166
 9590SOL     OW30210   6.704   4.006   5.104 -0.0104 -0.1669 -0.0866
 9590SOL    HW130211   6.628   3.970   5.149 -0.2409 -0.0356 -0.3664
 9590SOL    HW230212   6.747   3.931   5.063 -0.5237 -0.1257 -0.7207
 9591SOL     OW30213   4.790   0.160  12.452 -0.0376  0.0168  0.5046
 9591SOL    HW130214   4.754   0.082  12.495  3.9535 -1.6537  1.3271
 9591SOL    HW230215   4.797   0.225  12.522 -1.7731  0.5754  0.2067
 9592SOL     OW30216   6.015   4.091   9.730 -0.0813  0.0281 -0.1181
 9592SOL    HW130217   6.103   4.118   9.705 -0.3755  2.7349  1.3381
 9592SOL    HW230218   6.020   3.997   9.741  2.2839 -0.0512 -1.2694
 9593SOL     OW30219   4.347   7.026   9.491  0.3171 -0.0196 -0.0715
 9593SOL    HW130220   4.291   7.101   9.510 -1.6496 -1.1623 -0.9900
 9593SOL    HW230221   4.340   6.971   9.569 -0.0160 -0.2646 -0.2742
 9594SOL     OW30222   6.757   0.144  10.713 -0.1150 -0.5104  0.1287
 9594SOL    HW130223   6.790   0.068  10.666  0.0361  1.1130 -2.6683
 9594SOL    HW230224   6.682   0.112  10.764 -0.4514 -2.4044 -1.4580
 9595SOL     OW30225   1.319   2.604   1.341 -0.3188 -0.6325 -0.1117
 9595SOL    HW130226   1.411   2.590   1.320 -0.2040 -0.8167  0.4721
 9595SOL    HW230227   1.307   2.699   1.334  0.4880 -0.3200  1.9394
 9596SOL     OW30228   3.716   7.495   3.459  0.0192  0.0134  0.0549
 9596SOL    HW130229   3.809   7.517   3.451  0.8709 -3.2024 -0.3788
 9596SOL    HW230230   3.675   7.537   3.384  1.4331  0.1439 -0.6796
 9597SOL     OW30231   6.934   7.954   3.141 -0.1361 -0.7361  0.0822
 9597SOL    HW130232   6.923   8.035   3.092 -0.0808 -1.3554 -0.9720
 9597SOL    HW230233   6.855   7.948   3.196  0.9677  1.2664  2.0747
 9598SOL     OW30234   5.896   6.864   0.723 -0.2309 -0.1479 -0.2876
 9598SOL    HW130235   5.865   6.945   0.763  0.4930  0.2805 -0.5747
 9598SOL    HW230236   5.991   6.871   0.726 -0.1459 -1.2883  0.2774
 9599SOL     OW30237   4.544   2.656   1.823  0.4066 -0.2877 -0.4248
 9599SOL    HW130238   4.513   2.602   1.751 -1.0469  1.1481 -0.9369
 9599SOL    HW230239   4.580   2.734   1.781  0.1538  0.2661  0.3590
 9600SOL     OW30240   5.525   0.758   2.549  0.0880 -0.1804 -0.3207
 9600SOL    HW130241   5.522   0.691   2.480 -0.6312  0.4599 -0.9366
 9600SOL    HW230242   5.457   0.821   2.524  1.5310  1.4153 -0.4037
 9601SOL     OW30243   1.114   7.246   4.164 -0.1007  0.0169 -0.0555
 9601SOL    HW130244   1.032   7.209   4.132 -1.0745  1.7227  0.3144
 9601SOL    HW230245   1.127   7.325   4.111  1.0276  0.0566  0.2506
 9602SOL     OW30246   2.528   6.926   1.235 -0.0331  0.2098  0.2371
 9602SOL    HW130247   2.610   6.973   1.243  0.4132 -0.6386  0.9248
 9602SOL    HW230248   2.461   6.988   1.265  0.2407  1.1601 -1.0408
 9603SOL     OW30249   6.385   5.569   9.298 -0.0785  0.3934  0.0229
 9603SOL    HW130250   6.319   5.629   9.333 -0.1578  0.3216 -0.0021
 9603SOL    HW230251   6.339   5.519   9.231 -0.0724  0.1626  0.1853
 9604SOL     OW30252   5.721   0.163   7.827  0.4629 -0.3292  0.0092
 9604SOL    HW130253   5.741   0.143   7.918  1.3324 -0.8285 -0.2817
 9604SOL    HW230254   5.792   0.219   7.797 -0.5621  1.0301  0.0289
 9605SOL     OW30255   0.375   6.176   3.971 -0.1770 -0.1338  0.2200
 9605SOL    HW130256   0.402   6.268   3.978 -0.0553 -0.0542 -1.0037
 9605SOL    HW230257   0.280   6.178   3.980 -0.2487  0.2166 -0.4976
 9606SOL     OW30258   5.554   4.622  12.445  0.1745 -0.1350  0.0788
 9606SOL    HW130259   5.497   4.695  12.421 -1.5764 -0.9122  1.5703
 9606SOL    HW230260   5.534   4.607  12.538  1.8472 -1.3339  0.2760
 9607SOL     OW30261   6.468   2.876   7.479 -0.7485  0.4098  0.2642
 9607SOL    HW130262   6.530   2.948   7.490 -0.0023 -0.1158 -0.3167
 9607SOL    HW230263   6.467   2.833   7.565 -1.2249  1.1217  0.6233
 9608SOL     OW30264   7.723   5.069   0.037 -0.1214 -0.1951  0.4846
 9608SOL    HW130265   7.703   4.988   0.083 -0.5129 -0.5892 -0.3561
 9608SOL    HW230266   7.779   5.041  -0.036  0.4871  0.4143  0.7102
 9609SOL     OW30267   1.344   5.367   1.800  0.0716  0.1568  0.1903
 9609SOL    HW130268   1.421   5.325   1.761 -0.6081  0.3728 -1.4983
 9609SOL    HW230269   1.277   5.360   1.732 -1.5730 -0.4661  1.7910
 9610SOL     OW30270   2.992   5.701   0.469 -0.4445 -0.4940 -0.3660
 9610SOL    HW130271   3.025   5.781   0.426 -1.5499  0.2267  0.0766
 9610SOL    HW230272   2.931   5.664   0.405  0.3742 -1.2196 -0.7364
 9611SOL     OW30273   0.149   0.269   6.317  0.2459  0.2346  0.6404
 9611SOL    HW130274   0.208   0.304   6.250 -0.0613 -0.3894  0.0264
 9611SOL    HW230275   0.204   0.212   6.371  0.4613  0.6153  0.8230
 9612SOL     OW30276   1.998   7.484   0.230 -0.3832  0.1365  0.3155
 9612SOL    HW130277   2.048   7.427   0.171 -0.1767  0.3853  0.2453
 9612SOL    HW230278   2.049   7.486   0.311  0.8403  2.0354 -0.4393
 9613SOL     OW30279   4.346   1.862   3.661 -0.4800  0.5733 -0.0027
 9613SOL    HW130280   4.339   1.887   3.569  1.6508 -0.2374 -0.4527
 9613SOL    HW230281   4.425   1.906   3.693  0.4283 -1.3501  0.5967
 9614SOL     OW30282   5.649   0.661  12.039 -0.3621  0.8809 -0.0177
 9614SOL    HW130283   5.594   0.739  12.036 -1.6311  0.0650  1.2778
 9614SOL    HW230284   5.701   0.670  12.119 -0.9983  0.1071  0.5014
 9615SOL     OW30285   7.105   5.720   0.486 -0.0536  0.1122 -0.1939
 9615SOL    HW130286   7.162   5.697   0.413  0.0079  0.1356 -0.1528
 9615SOL    HW230287   7.130   5.660   0.557  0.6020  0.7863  0.1499
 9616SOL     OW30288   0.420   0.685   4.797 -0.1853 -0.6240  0.0692
 9616SOL    HW130289   0.333   0.667   4.833  0.6444 -0.9687  2.0506
 9616SOL    HW230290   0.428   0.780   4.799  0.2603 -0.6492  2.0287
 9617SOL     OW30291   1.004   0.548   1.678  0.5597 -0.1994 -0.0155
 9617SOL    HW130292   1.037   0.591   1.757 -0.6148  1.8705 -0.5677
 9617SOL    HW230293   0.910   0.536   1.695 -0.0250  1.6448 -1.6011
 9618SOL     OW30294   1.146   3.076   4.086  0.0241 -0.1275 -0.1618
 9618SOL    HW130295   1.185   3.016   4.150 -1.2675 -1.1103 -0.2634
 9618SOL    HW230296   1.061   3.098   4.122 -1.0903 -1.3640 -1.8853
 9619SOL     OW30297   2.220   0.232   3.272 -0.0416 -0.3414  0.2741
 9619SOL    HW130298   2.190   0.180   3.197  1.4363 -0.0539 -0.5603
 9619SOL    HW230299   2.301   0.272   3.242  0.3921  0.0856  1.9180
 9620SOL     OW30300   7.556   6.901   0.531 -0.0769  0.5651 -0.8001
 9620SOL    HW130301   7.485   6.853   0.487 -0.3446  1.5566 -1.4714
 9620SOL    HW230302   7.537   6.993   0.515  0.4942  0.9115  0.3845
 9621SOL     OW30303   1.881   6.829  10.961  0.1520 -0.1185  0.0038
 9621SOL    HW130304   1.881   6.759  10.896  0.5177  0.7077 -0.9097
 9621SOL    HW230305   1.970   6.829  10.997 -0.1239 -0.7512  0.7286
 9622SOL     OW30306   1.283   0.915   9.605 -0.1232  0.3975  0.2065
 9622SOL    HW130307   1.288   0.889   9.513 -0.0443 -0.4035  0.4313
 9622SOL    HW230308   1.345   0.857   9.650  0.6623  1.5082  0.6119
 9623SOL     OW30309   5.331   7.952   1.516 -0.1624 -0.3458 -0.2719
 9623SOL    HW130310   5.425   7.937   1.506 -0.2193 -0.8410 -0.0988
 9623SOL    HW230311   5.297   7.869   1.551 -0.4789  0.2142  0.7867
 9624SOL     OW30312   0.556   2.351   6.091 -0.0876  0.2852  0.2468
 9624SOL    HW130313   0.474   2.398   6.105 -0.6724 -0.8597  0.8762
 9624SOL    HW230314   0.530   2.276   6.036  0.4880 -0.2034  0.6355
 9625SOL     OW30315   2.751   1.524   3.539 -0.0821  0.3124  0.1792
 9625SOL    HW130316   2.744   1.594   3.475  1.8858  0.8225  0.4570
 9625SOL    HW230317   2.705   1.450   3.500  1.0037  0.6336 -1.7984
 9626SOL     OW30318   6.127   7.653  10.078  0.0386  0.5025 -0.5082
 9626SOL    HW130319   6.099   7.601  10.003 -0.8360 -0.1595  0.2511
 9626SOL    HW230320   6.196   7.600  10.118 -1.2171 -0.3750  0.5720
 9627SOL     OW30321   6.984   5.211  11.922  0.1839  0.2155  0.1436
 9627SOL    HW130322   6.969   5.188  11.830  0.2485 -1.5270  0.5326
 9627SOL    HW230323   7.079   5.218  11.931  0.1270  1.4981 -0.1557
 9628SOL     OW30324   5.149   3.300  10.010  0.4179 -0.5351 -0.5428
 9628SOL    HW130325   5.207   3.340  10.074 -1.9096  1.8998  0.2514
 9628SOL    HW230326   5.130   3.213  10.046  1.3903 -0.3191  0.5607
 9629SOL     OW30327   0.006   5.986   5.707  0.7746 -0.3233 -0.3334
 9629SOL    HW130328  -0.026   5.930   5.777  0.6107 -0.9884 -0.9234
 9629SOL    HW230329  -0.069   5.996   5.648  0.4474  1.4596  0.3202
 9630SOL     OW30330   6.197   1.919   5.806 -0.2465 -0.1360  0.1136
 9630SOL    HW130331   6.247   1.882   5.879 -0.5860  0.2832  0.5707
 9630SOL    HW230332   6.262   1.966   5.754 -0.4016  2.2046  1.8392
 9631SOL     OW30333   1.853   6.934   1.966 -0.2980 -0.4010 -0.5054
 9631SOL    HW130334   1.885   6.859   1.916 -0.2410 -0.4890 -0.3378
 9631SOL    HW230335   1.896   6.926   2.051  0.8956  0.6495 -0.9744
 9632SOL     OW30336   7.742   6.061   8.842 -0.1812 -0.4126 -0.1217
 9632SOL    HW130337   7.666   6.017   8.804 -0.3618  0.5518 -0.9288
 9632SOL    HW230338   7.714   6.085   8.931 -2.1008  2.7905 -1.4087
 9633SOL     OW30339   2.335   6.126   8.786  0.4165  0.2985  0.0134
 9633SOL    HW130340   2.349   6.118   8.881  0.2517  2.1572  0.2371
 9633SOL    HW230341   2.309   6.218   8.774 -2.8996 -0.7140 -1.4508
 9634SOL     OW30342   6.745   5.755   3.235  0.5286 -0.3193 -0.4230
 9634SOL    HW130343   6.658   5.720   3.213  0.7605 -1.2821  0.1401
 9634SOL    HW230344   6.747   5.841   3.193 -0.6242 -0.3631 -0.6069
 9635SOL     OW30345   1.219   0.882  10.912  0.3690  0.3981  0.0297
 9635SOL    HW130346   1.195   0.823  10.840 -0.7891  2.3884 -1.2872
 9635SOL    HW230347   1.305   0.915  10.887  0.1801  0.7154 -0.2107
 9636SOL     OW30348   0.134   1.249   2.936  0.1116 -0.5565  0.1855
 9636SOL    HW130349   0.096   1.261   3.023 -1.3048  0.7589 -0.5654
 9636SOL    HW230350   0.088   1.173   2.900 -0.9779  0.2947 -0.2597
 9637SOL     OW30351   5.045   4.461   0.859  0.6018  0.0480 -0.2565
 9637SOL    HW130352   5.003   4.458   0.945 -0.7774  1.0247 -0.8486
 9637SOL    HW230353   5.006   4.388   0.811  0.7963 -0.0329 -0.2911
 9638SOL     OW30354   2.863   5.731  12.031 -0.6437  0.1300  0.3488
 9638SOL    HW130355   2.878   5.645  11.992 -0.8157  0.4514 -0.4500
 9638SOL    HW230356   2.819   5.781  11.963 -0.5038  0.8714  0.7871
 9639SOL     OW30357   0.851   3.699   5.357 -0.2342  0.1040  0.0295
 9639SOL    HW130358   0.788   3.636   5.391  0.2389 -1.1505 -1.3086
 9639SOL    HW230359   0.903   3.650   5.293  0.0042  1.8977 -1.2489
 9640SOL     OW30360   4.251   0.111   4.072  0.0628 -0.2530  0.1655
 9640SOL    HW130361   4.158   0.088   4.063 -0.3090  0.6372  1.4663
 9640SOL    HW230362   4.279   0.065   4.151  0.7716 -0.5986 -0.2754
 9641SOL     OW30363   0.617   4.978   0.158  0.2903  0.5955 -0.0641
 9641SOL    HW130364   0.618   4.984   0.253 -1.3602  2.5788 -0.1097
 9641SOL    HW230365   0.556   4.907   0.139 -0.4522  1.1055  0.3690
 9642SOL     OW30366   0.338   5.051  10.495 -0.4674  0.0113  0.2742
 9642SOL    HW130367   0.356   4.965  10.457  0.9883  0.1228  0.6323
 9642SOL    HW230368   0.338   5.111  10.420  1.0923  0.0434  0.2555
 9643SOL     OW30369   7.897   3.287   7.086  0.6337 -0.3960 -0.0401
 9643SOL    HW130370   7.938   3.323   7.164  0.8929  1.1530 -0.8658
 9643SOL    HW230371   7.969   3.246   7.038  0.3876 -1.8304  0.7520
 9644SOL     OW30372   0.375   5.259   0.506  0.0217 -0.0769 -0.1323
 9644SOL    HW130373   0.320   5.245   0.429 -0.5179 -0.2614  0.2812
 9644SOL    HW230374   0.460   5.284   0.470 -0.2762  0.0321 -0.7842
 9645SOL     OW30375   4.880   5.584  10.266 -0.8240  0.0233  0.0719
 9645SOL    HW130376   4.887   5.671  10.304  0.6604  0.0868 -0.2794
 9645SOL    HW230377   4.806   5.589  10.206 -1.7692  0.5591  1.2391
 9646SOL     OW30378   6.337   0.146   3.566  0.5720 -0.1750 -0.5966
 9646SOL    HW130379   6.348   0.157   3.472  0.3538 -0.4846 -0.6610
 9646SOL    HW230380   6.255   0.097   3.575  0.0884  0.6929 -0.2012
 9647SOL     OW30381   2.827   4.628  11.401  0.0619 -0.1340  0.2744
 9647SOL    HW130382   2.743   4.671  11.386 -0.5436 -0.8360  1.4854
 9647SOL    HW230383   2.823   4.598  11.492  1.7450  0.0647  0.4596
 9648SOL     OW30384   7.295   1.614   0.723  0.4435  0.3990 -0.3908
 9648SOL    HW130385   7.311   1.534   0.773 -2.8450 -0.5614 -0.6517
 9648SOL    HW230386   7.378   1.662   0.728  2.3343 -2.6636  0.3365
 9649SOL     OW30387   0.363   4.585  11.066 -0.2242 -0.0046  0.2628
 9649SOL    HW130388   0.420   4.576  11.143  0.0102 -0.3318  0.0542
 9649SOL    HW230389   0.365   4.678  11.046  2.1650 -0.2849 -1.1709
 9650SOL     OW30390   7.009   0.152   0.359  0.0106  0.7226  0.1031
 9650SOL    HW130391   6.986   0.159   0.266  1.3743 -0.4838 -0.3582
 9650SOL    HW230392   6.958   0.221   0.401 -1.8714  0.2572 -1.2982
 9651SOL     OW30393   0.065   3.871   3.608 -0.3453  0.4769 -0.1230
 9651SOL    HW130394   0.129   3.925   3.562 -2.0957  1.9110 -1.0206
 9651SOL    HW230395   0.057   3.913   3.694  0.2967 -0.0258  0.1854
 9652SOL     OW30396   2.235   6.890   7.825  0.3653  0.2545  0.4371
 9652SOL    HW130397   2.202   6.949   7.892  0.7369  0.1771  0.6932
 9652SOL    HW230398   2.292   6.829   7.873  0.7193  0.2655  0.0345
 9653SOL     OW30399   3.067   3.506   7.282  0.6152  0.2786  0.4021
 9653SOL    HW130400   3.010   3.439   7.321  0.9081  0.9846  2.1473
 9653SOL    HW230401   3.034   3.517   7.193  0.3429 -1.9193  0.1800
 9654SOL     OW30402   2.224   2.538   1.101  0.3239  0.2975  0.5928
 9654SOL    HW130403   2.313   2.574   1.098  0.0596  0.9452  0.4312
 9654SOL    HW230404   2.182   2.584   1.174 -0.9668  2.5790 -1.4445
 9655SOL     OW30405   0.596   5.161  11.725  0.4724 -0.0413  0.5404
 9655SOL    HW130406   0.635   5.081  11.688  2.4436  1.0419  0.1620
 9655SOL    HW230407   0.635   5.232  11.674 -2.5941  1.1375 -0.3493
 9656SOL     OW30408   7.593   6.614  10.062 -0.0130 -0.2917 -0.7597
 9656SOL    HW130409   7.608   6.687  10.001  0.2557  0.6959  0.4367
 9656SOL    HW230410   7.679   6.596  10.100 -0.3329 -0.2145  0.0327
 9657SOL     OW30411   7.559   5.464   6.924 -0.1446 -0.1772  0.4489
 9657SOL    HW130412   7.545   5.398   6.855  1.0713 -0.4427  0.4306
 9657SOL    HW230413   7.564   5.547   6.876 -1.8144 -0.0202  0.4847
 9658SOL     OW30414   4.826   5.715   8.289  0.0775 -0.1676 -0.0731
 9658SOL    HW130415   4.820   5.622   8.311  3.3628 -0.6757 -0.9160
 9658SOL    HW230416   4.918   5.730   8.270 -0.2771  3.3758  0.3154
 9659SOL     OW30417   7.777   0.007   7.708  0.5088 -0.1570  0.6187
 9659SOL    HW130418   7.772   0.100   7.733  0.7297 -0.2083  0.8551
 9659SOL    HW230419   7.833   0.006   7.631  0.1681 -0.0470  0.3680
 9660SOL     OW30420   2.457   2.341   4.861 -0.1422 -0.2216  0.5484
 9660SOL    HW130421   2.466   2.246   4.852  1.7947 -0.1246  0.9324
 9660SOL    HW230422   2.483   2.359   4.952  0.9320  0.7805  0.0730
 9661SOL     OW30423   2.632   1.761   3.098  0.0916  0.1069 -0.0473
 9661SOL    HW130424   2.672   1.759   3.011  1.0125 -0.0348  0.3647
 9661SOL    HW230425   2.547   1.801   3.085  0.2814  0.2169 -0.9935
 9662SOL     OW30426   5.103   0.628   2.647 -0.9945 -0.1971  0.0253
 9662SOL    HW130427   5.124   0.548   2.599  0.9014  0.7110 -0.8138
 9662SOL    HW230428   5.041   0.674   2.591 -0.5699 -0.2026 -0.4608
 9663SOL     OW30429   6.469   5.034   2.479  0.7917  0.2973 -0.4650
 9663SOL    HW130430   6.523   5.113   2.475  3.0897 -1.1344  0.3904
 9663SOL    HW230431   6.502   4.978   2.409  0.8439 -0.8552  0.4498
 9664SOL     OW30432   7.518   3.375  11.153  0.3158 -0.4989  0.1148
 9664SOL    HW130433   7.541   3.282  11.155  2.6938 -0.0061 -0.3454
 9664SOL    HW230434   7.590   3.416  11.104 -0.6748  1.5876  0.2902
 9665SOL     OW30435   1.217   5.522  10.529  0.1875 -0.4694  0.2436
 9665SOL    HW130436   1.128   5.502  10.558  0.0414 -0.5823 -0.2670
 9665SOL    HW230437   1.231   5.614  10.553 -0.1940 -0.3501  0.0166
 9666SOL     OW30438   1.235   3.176  10.245 -0.3187 -0.1450  0.0598
 9666SOL    HW130439   1.317   3.179  10.295 -1.0655  0.8398  1.2920
 9666SOL    HW230440   1.243   3.248  10.182 -0.0200 -0.3939 -0.1897
 9667SOL     OW30441   6.357   7.938   9.623 -0.1429  0.4657  0.0062
 9667SOL    HW130442   6.351   7.995   9.546  0.0835  0.0529 -0.3271
 9667SOL    HW230443   6.272   7.894   9.628 -0.5336  1.2825  0.6260
 9668SOL     OW30444   0.182   2.030   5.422 -0.0643  0.6576 -0.0966
 9668SOL    HW130445   0.274   2.005   5.421 -0.3213 -0.4375 -2.3749
 9668SOL    HW230446   0.158   2.030   5.514  2.0872  0.5588  0.5170
 9669SOL     OW30447   4.544   0.581   5.554  0.5186 -0.4225 -0.4844
 9669SOL    HW130448   4.525   0.670   5.585 -1.2661 -1.0278  0.2949
 9669SOL    HW230449   4.546   0.528   5.634 -0.2662 -1.3622 -1.0638
 9670SOL     OW30450   2.370   0.642   0.004  0.1538 -0.1005  0.2797
 9670SOL    HW130451   2.380   0.659   0.098  1.8019 -0.8638  0.2706
 9670SOL    HW230452   2.387   0.549  -0.006 -0.0234 -0.0307 -0.7800
 9671SOL     OW30453   3.119   1.461   6.469 -0.4139 -0.1113 -0.2864
 9671SOL    HW130454   3.207   1.443   6.502 -0.8597 -0.0287  0.9921
 9671SOL    HW230455   3.133   1.491   6.379  0.7756 -1.1184 -0.4634
 9672SOL     OW30456   6.172   5.337   4.858  0.1185  0.3388  0.2654
 9672SOL    HW130457   6.239   5.277   4.827 -0.9536 -0.4037 -0.6924
 9672SOL    HW230458   6.201   5.361   4.946  1.9910  0.6206 -0.3820
 9673SOL     OW30459   5.072   6.320  12.071  0.1502 -0.4214 -0.1170
 9673SOL    HW130460   5.063   6.361  11.985 -3.0862  1.2963  0.8852
 9673SOL    HW230461   5.002   6.255  12.074  2.2653 -2.8925  0.1347
 9674SOL     OW30462   3.304   5.914   8.401  0.5534 -0.3521 -0.4745
 9674SOL    HW130463   3.349   5.986   8.444 -1.3277  0.0739  0.8920
 9674SOL    HW230464   3.281   5.854   8.472 -1.9098 -0.0437 -0.9436
 9675SOL     OW30465   3.827   5.264   1.555  0.1580 -0.7287  0.0116
 9675SOL    HW130466   3.894   5.204   1.587 -0.6954 -1.6250  0.1840
 9675SOL    HW230467   3.787   5.218   1.481 -0.9656 -0.7020  0.5679
 9676SOL     OW30468   1.524   6.958   6.185 -0.5918  0.1990  0.6154
 9676SOL    HW130469   1.526   7.053   6.171 -1.4130  0.0826 -0.4331
 9676SOL    HW230470   1.442   6.930   6.144  0.4813 -1.1947 -0.6589
 9677SOL     OW30471   2.076   1.027   2.657 -0.1456  0.1905 -0.0111
 9677SOL    HW130472   2.099   0.947   2.704 -2.3653 -0.3467  0.2877
 9677SOL    HW230473   2.131   1.095   2.696  2.1395 -1.2288 -0.6101
 9678SOL     OW30474   0.046   2.206   2.092  0.0609  0.4489  0.3293
 9678SOL    HW130475   0.136   2.209   2.125  1.2883 -0.5204 -2.5863
 9678SOL    HW230476   0.004   2.137   2.143  2.6680 -2.9428 -1.6649
 9679SOL     OW30477   7.144   6.964   3.089 -0.1568  0.5703 -0.3480
 9679SOL    HW130478   7.108   6.875   3.083 -0.3789  0.7286 -2.1426
 9679SOL    HW230479   7.239   6.951   3.095 -0.2850  0.2061  1.2511
 9680SOL     OW30480   0.225   7.922   6.558 -0.2778 -0.2763  0.3399
 9680SOL    HW130481   0.241   7.875   6.640  0.3358 -0.7653 -0.0458
 9680SOL    HW230482   0.280   8.000   6.564  0.3051 -0.6572  0.1163
 9681SOL     OW30483   6.997   3.134   9.053 -0.1385  0.3028  0.1584
 9681SOL    HW130484   7.012   3.220   9.014 -1.2921  0.8401  0.8464
 9681SOL    HW230485   6.911   3.108   9.022 -0.1205 -0.2649  0.5607
 9682SOL     OW30486   1.561   3.469   2.963 -0.3878  0.2089 -0.1055
 9682SOL    HW130487   1.630   3.518   3.007  0.8322 -0.6730 -0.9654
 9682SOL    HW230488   1.513   3.535   2.912  0.4455  0.6929 -0.2787
 9683SOL     OW30489   7.248   6.320   8.090  0.1843  0.5527 -0.7484
 9683SOL    HW130490   7.180   6.386   8.102  1.6814  1.9566  0.2482
 9683SOL    HW230491   7.217   6.244   8.140 -0.9472  0.9144 -0.8729
 9684SOL     OW30492   6.576   7.025  12.343 -0.7051 -0.2888  0.4301
 9684SOL    HW130493   6.606   7.005  12.431  0.1556  0.7045  0.3807
 9684SOL    HW230494   6.526   7.107  12.353  1.3072  1.1141 -0.2917
 9685SOL     OW30495   0.317   1.753   3.870 -0.1520 -0.2878  0.2433
 9685SOL    HW130496   0.342   1.671   3.828 -1.0397 -0.1530 -0.5649
 9685SOL    HW230497   0.331   1.820   3.803  2.4427  0.5426  1.4881
 9686SOL     OW30498   3.610   4.154   9.808  0.4917  0.3651  0.0435
 9686SOL    HW130499   3.638   4.240   9.775  0.4502 -0.3048 -1.9203
 9686SOL    HW230500   3.629   4.156   9.901  1.6138  2.0752 -0.1784
 9687SOL     OW30501   0.188   4.640   1.062  0.0997  0.0100  0.7215
 9687SOL    HW130502   0.164   4.558   1.018  1.7212  0.2498 -0.7306
 9687SOL    HW230503   0.108   4.692   1.061 -0.1309 -0.2633 -1.4319
 9688SOL     OW30504   6.360   4.631   8.806 -0.3660 -0.9420 -0.0817
 9688SOL    HW130505   6.355   4.619   8.712 -1.0662 -1.2594 -0.0137
 9688SOL    HW230506   6.433   4.576   8.834 -0.2707 -0.9823 -0.4098
 9689SOL     OW30507   6.705   1.390   8.966  0.1367 -0.0362  0.0674
 9689SOL    HW130508   6.655   1.452   8.913  0.5777 -0.4196 -0.8102
 9689SOL    HW230509   6.776   1.442   9.004  0.8077 -0.0836 -1.0700
 9690SOL     OW30510   0.341   4.114   3.111 -0.0856  0.1041 -0.1281
 9690SOL    HW130511   0.286   4.038   3.130 -0.8868  1.0710  1.6367
 9690SOL    HW230512   0.373   4.099   3.022 -0.0525 -2.3799  0.2482
 9691SOL     OW30513   6.357   1.547   5.887 -0.0122  0.2253 -0.2734
 9691SOL    HW130514   6.414   1.522   5.815  1.0828  2.1410 -0.1303
 9691SOL    HW230515   6.350   1.468   5.940  0.7228 -0.6647 -1.4543
 9692SOL     OW30516   0.285   0.717   6.192  0.2667 -0.1836 -0.3440
 9692SOL    HW130517   0.333   0.777   6.249  0.7489 -1.0571  0.1909
 9692SOL    HW230518   0.350   0.651   6.166 -0.5692 -1.2384  0.1692
 9693SOL     OW30519   2.337   6.288   4.714 -0.3403  0.2918  0.7682
 9693SOL    HW130520   2.328   6.383   4.720 -1.7339  0.4571 -2.1568
 9693SOL    HW230521   2.429   6.273   4.691  0.3736  0.7163  3.1047
 9694SOL     OW30522   4.753   0.844   5.123  0.0790  0.1896 -0.1707
 9694SOL    HW130523   4.768   0.834   5.217 -1.4666  0.0668  0.0946
 9694SOL    HW230524   4.716   0.759   5.096 -1.8803  1.0401 -0.3434
 9695SOL     OW30525   0.477   6.012   3.278  0.2850  0.2372 -0.1552
 9695SOL    HW130526   0.530   6.076   3.325  1.6646 -1.1493  0.2519
 9695SOL    HW230527   0.387   6.043   3.288  1.0370  3.7286 -2.4386
 9696SOL     OW30528   6.919   2.382   1.794  0.9706  0.4803  0.0203
 9696SOL    HW130529   6.997   2.399   1.848 -0.8276  0.2480  2.9186
 9696SOL    HW230530   6.866   2.461   1.804 -0.4158 -0.4889  0.4905
 9697SOL     OW30531   6.090   0.758   8.847 -0.2611  0.0703  0.2270
 9697SOL    HW130532   6.094   0.701   8.924 -1.7575 -0.6020 -0.1620
 9697SOL    HW230533   5.998   0.784   8.841  0.0710  1.1497 -0.6116
 9698SOL     OW30534   7.573   3.832  12.119  0.3156 -0.7969  0.6797
 9698SOL    HW130535   7.563   3.852  12.026  0.9675  1.7849  1.0750
 9698SOL    HW230536   7.642   3.766  12.122  1.9224  0.7041 -0.6126
 9699SOL     OW30537   2.171   3.940  10.381  0.4276  0.1742 -0.3494
 9699SOL    HW130538   2.216   3.941  10.296 -0.3076  0.5601 -0.7468
 9699SOL    HW230539   2.082   3.909  10.360  0.0419  0.9028  0.1735
 9700SOL     OW30540   4.878   7.048   4.681  0.5001  0.1243 -0.0567
 9700SOL    HW130541   4.793   7.007   4.666 -0.1006  0.9601  0.9889
 9700SOL    HW230542   4.941   6.984   4.647 -0.5112 -0.6886 -0.4681
 9701SOL     OW30543   6.811   1.035  11.288  0.2330  0.4251 -0.3307
 9701SOL    HW130544   6.876   1.095  11.326 -1.3325  1.1765  1.3547
 9701SOL    HW230545   6.747   1.022  11.359 -0.2058 -2.2041 -1.0980
 9702SOL     OW30546   0.202   4.658   2.495  0.0084 -0.7238 -0.1404
 9702SOL    HW130547   0.217   4.674   2.402  1.7198 -1.4289 -0.0311
 9702SOL    HW230548   0.286   4.625   2.528 -0.5635 -0.5302  1.6516
 9703SOL     OW30549   2.406   6.135   5.948  0.2447 -0.2607 -0.1982
 9703SOL    HW130550   2.486   6.183   5.929  0.0868  0.9297  1.8428
 9703SOL    HW230551   2.415   6.107   6.039 -0.6692 -2.1743 -0.6471
 9704SOL     OW30552   6.082   1.872   8.080 -0.0240 -0.0264 -0.5925
 9704SOL    HW130553   6.073   1.870   7.985 -0.6382 -2.3596 -0.5292
 9704SOL    HW230554   6.177   1.870   8.095  0.0877  0.7069 -1.1301
 9705SOL     OW30555   6.487   7.302   2.333  0.0571  0.0025  0.4556
 9705SOL    HW130556   6.535   7.226   2.301 -0.2035  0.5023 -1.2220
 9705SOL    HW230557   6.552   7.372   2.337  0.0868 -0.0553  1.0325
 9706SOL     OW30558   3.266   2.928   2.127  0.6115  0.1292 -0.4434
 9706SOL    HW130559   3.296   2.885   2.046  2.0078 -0.1775  0.2068
 9706SOL    HW230560   3.347   2.949   2.174 -0.1335  1.5692  0.2438
 9707SOL     OW30561   7.758   5.537   6.593 -0.1453 -0.3235 -0.1781
 9707SOL    HW130562   7.727   5.471   6.531 -0.2870  0.1839 -0.6528
 9707SOL    HW230563   7.793   5.607   6.538 -1.7570  0.8713  0.2341
 9708SOL     OW30564   3.878   0.124   2.877 -0.0483  0.5291  0.4318
 9708SOL    HW130565   3.888   0.031   2.900  1.0143  0.2142 -1.1280
 9708SOL    HW230566   3.893   0.126   2.782 -0.0835  2.2999  0.4436
 9709SOL     OW30567   3.381   1.809   1.936 -0.5206  0.3352 -0.5379
 9709SOL    HW130568   3.321   1.734   1.935  0.0478 -0.1496  0.3489
 9709SOL    HW230569   3.369   1.850   1.850 -2.7063  0.7400 -0.1150
 9710SOL     OW30570   1.418   6.636   0.761  0.3840 -0.1213 -0.7666
 9710SOL    HW130571   1.326   6.634   0.789  0.5725  1.2637  0.0370
 9710SOL    HW230572   1.443   6.543   0.755 -1.3173 -0.5450 -1.9442
 9711SOL     OW30573   3.194   7.233   2.561  0.0099 -0.5131  0.5502
 9711SOL    HW130574   3.214   7.315   2.607 -0.3696 -0.0975 -0.0157
 9711SOL    HW230575   3.278   7.188   2.557  0.2345 -0.1354  0.8303
 9712SOL     OW30576   6.273   6.627   1.257  0.5620  0.5977 -0.2397
 9712SOL    HW130577   6.195   6.679   1.274  0.0478  0.2707 -1.4732
 9712SOL    HW230578   6.267   6.553   1.318  0.5732  1.2147  0.5295
 9713SOL     OW30579   5.169   0.185   8.324  0.2193  0.1658 -0.0486
 9713SOL    HW130580   5.111   0.252   8.287  0.7350  0.6005 -0.0843
 9713SOL    HW230581   5.126   0.157   8.404  1.9410  3.6029  2.3400
 9714SOL     OW30582   6.625   2.196   0.533  0.2024  0.1521  0.0637
 9714SOL    HW130583   6.604   2.288   0.521  1.5715  0.3793 -0.7273
 9714SOL    HW230584   6.694   2.178   0.469  0.8804 -1.0878  1.0943
 9715SOL     OW30585   6.896   3.378   0.083  0.3811 -0.2129  0.0027
 9715SOL    HW130586   6.865   3.439   0.017  0.5806  0.5314  0.5737
 9715SOL    HW230587   6.847   3.401   0.162  0.1088 -1.1181  0.1012
 9716SOL     OW30588   1.855   2.074   5.611  0.5913 -0.3048  0.2655
 9716SOL    HW130589   1.857   2.153   5.664 -0.1479  0.6876 -1.1286
 9716SOL    HW230590   1.855   2.105   5.520  0.1116 -1.8782 -0.3202
 9717SOL     OW30591   3.519   4.105   7.306  0.0791 -0.9611 -0.2326
 9717SOL    HW130592   3.430   4.069   7.306 -0.3510 -0.0651  1.8187
 9717SOL    HW230593   3.508   4.198   7.285 -0.0070 -0.0234  3.2557
 9718SOL     OW30594   4.180   6.485   8.947  0.2221  0.0557  0.2132
 9718SOL    HW130595   4.149   6.553   9.007  1.3655 -0.3406  1.2988
 9718SOL    HW230596   4.110   6.477   8.882 -0.0066  2.1475  0.1412
 9719SOL     OW30597   3.614   0.646   6.046  0.5220 -0.0133 -0.6644
 9719SOL    HW130598   3.709   0.644   6.044  0.5041 -0.8570 -1.0769
 9719SOL    HW230599   3.587   0.564   6.004 -0.4065  1.2379 -2.6792
 9720SOL     OW30600   7.875   3.821   2.815  0.1722 -0.0681 -0.0714
 9720SOL    HW130601   7.783   3.841   2.798  0.5579  0.6840 -1.4217
 9720SOL    HW230602   7.874   3.764   2.892 -1.3901  0.2381  0.1545
 9721SOL     OW30603   7.308   6.377  11.020 -0.2253 -0.2541 -0.6564
 9721SOL    HW130604   7.301   6.416  11.107 -0.6093 -0.7088 -0.4740
 9721SOL    HW230605   7.329   6.285  11.036  0.5470 -0.1575 -1.0747
 9722SOL     OW30606   3.641   5.026   5.310  0.0317 -0.4430  0.1454
 9722SOL    HW130607   3.698   5.103   5.320 -0.4380  0.2522 -1.9691
 9722SOL    HW230608   3.614   5.004   5.399  3.6919 -0.9242  1.3058
 9723SOL     OW30609   6.443   1.935  12.193 -0.0572  0.1116  0.5565
 9723SOL    HW130610   6.417   1.902  12.107  2.0041 -0.5085  0.1157
 9723SOL    HW230611   6.419   2.028  12.191 -0.7861 -0.0824 -0.3635
 9724SOL     OW30612   1.302   0.746  12.084  0.1767 -0.2097  0.0682
 9724SOL    HW130613   1.329   0.811  12.150 -2.7411  1.1138  0.1333
 9724SOL    HW230614   1.256   0.798  12.018  2.2105 -1.6271 -2.6456
 9725SOL     OW30615   7.771   3.788   3.949 -0.6354  0.0039  0.1512
 9725SOL    HW130616   7.802   3.734   4.021 -1.1269 -1.9223 -1.0235
 9725SOL    HW230617   7.678   3.800   3.966 -0.8708 -0.9311 -0.4378
 9726SOL     OW30618   1.342   3.676   1.369  0.2915  0.1258  0.1480
 9726SOL    HW130619   1.281   3.747   1.389  0.5880  0.3639  0.2294
 9726SOL    HW230620   1.342   3.621   1.448 -0.4619 -0.3555 -0.1791
 9727SOL     OW30621   4.402   6.417   9.567 -0.0414 -0.4101 -0.9629
 9727SOL    HW130622   4.427   6.467   9.489  0.8365 -0.8873 -1.0030
 9727SOL    HW230623   4.442   6.331   9.554  1.0844 -0.1600  0.5105
 9728SOL     OW30624   4.309   0.731   6.334 -0.4615  0.3785 -0.0861
 9728SOL    HW130625   4.398   0.766   6.345 -1.0006  1.3645  1.5317
 9728SOL    HW230626   4.321   0.648   6.289  1.1732  1.0959 -1.0579
 9729SOL     OW30627   6.201   1.348   0.658 -0.0731  0.3554  0.6564
 9729SOL    HW130628   6.232   1.353   0.748 -0.4748 -1.2906  0.9142
 9729SOL    HW230629   6.271   1.301   0.612 -0.3065  0.3181  0.3363
 9730SOL     OW30630   6.643   6.675   5.108 -0.2668 -0.3198  0.0643
 9730SOL    HW130631   6.614   6.758   5.069 -1.7518 -1.3819 -1.1855
 9730SOL    HW230632   6.716   6.647   5.053  2.0315  1.3688  2.0371
 9731SOL     OW30633   4.217   5.292   3.762  0.2214 -0.1017 -0.4412
 9731SOL    HW130634   4.286   5.234   3.728  0.5698 -0.2162  0.4349
 9731SOL    HW230635   4.193   5.253   3.846 -0.2568  0.4726 -0.3082
 9732SOL     OW30636   0.864   6.116  11.513 -0.1237 -0.1266  0.2981
 9732SOL    HW130637   0.831   6.034  11.475 -1.2604  0.0389  0.8698
 9732SOL    HW230638   0.797   6.141  11.577  0.2240  1.2204  0.1749
 9733SOL     OW30639   2.399   1.747   4.095  0.0027  1.1167  0.0584
 9733SOL    HW130640   2.340   1.815   4.062 -1.5820 -0.0717  0.3308
 9733SOL    HW230641   2.482   1.763   4.050 -1.2678  1.2325 -2.4002
 9734SOL     OW30642   0.982   0.123  12.467 -0.4549  0.4289  0.4134
 9734SOL    HW130643   0.974   0.149  12.375  0.1511 -1.2184 -0.1567
 9734SOL    HW230644   0.925   0.047  12.475  0.5243 -0.2773  1.0188
 9735SOL     OW30645   3.190   0.601   4.664 -0.1709  0.0976  0.4649
 9735SOL    HW130646   3.131   0.651   4.608  0.8275  1.6089  0.7231
 9735SOL    HW230647   3.256   0.566   4.604  0.5496  1.2073  0.5833
 9736SOL     OW30648   6.855   7.467   4.597 -0.3764 -0.2725  0.2718
 9736SOL    HW130649   6.925   7.470   4.662 -0.9317 -1.8657  0.9947
 9736SOL    HW230650   6.774   7.469   4.648 -0.8868  1.0356 -0.5290
 9737SOL     OW30651   0.000   7.831   7.889 -0.2164 -0.1121  0.3712
 9737SOL    HW130652  -0.090   7.862   7.892 -0.4444 -0.7981  0.8765
 9737SOL    HW230653   0.049   7.892   7.944 -0.4394  0.0512  0.3853
 9738SOL     OW30654   5.690   5.639  10.393  0.3130  0.1029 -0.5709
 9738SOL    HW130655   5.772   5.591  10.403  0.6201  0.4064 -1.5596
 9738SOL    HW230656   5.687   5.663  10.301 -0.5048  0.7967 -0.3753
 9739SOL     OW30657   2.651   0.147   1.856 -0.0472 -0.3346 -0.2180
 9739SOL    HW130658   2.560   0.120   1.842  0.1682 -1.0427 -0.2678
 9739SOL    HW230659   2.644   0.236   1.891 -0.7414 -0.1970 -0.6944
 9740SOL     OW30660   0.879   6.622   5.392  0.3101  0.1075 -0.1107
 9740SOL    HW130661   0.922   6.669   5.320  1.2163  1.8013  1.4359
 9740SOL    HW230662   0.952   6.583   5.442 -0.2586 -0.5414  0.2316
 9741SOL     OW30663   4.199   7.823   3.797  0.2930 -0.0482 -0.2982
 9741SOL    HW130664   4.124   7.840   3.854  1.3679  0.7713  0.9170
 9741SOL    HW230665   4.213   7.905   3.750  0.1945 -0.3250 -0.8172
 9742SOL     OW30666   6.623   0.601   6.750  0.0699 -0.4182  0.2936
 9742SOL    HW130667   6.674   0.675   6.718 -0.2470 -1.3200 -2.6422
 9742SOL    HW230668   6.533   0.631   6.747  0.0211 -0.5824  0.1018
 9743SOL     OW30669   1.403   5.461   6.223 -0.6446 -0.4613 -0.5668
 9743SOL    HW130670   1.466   5.524   6.188 -1.4370 -0.1255 -1.4326
 9743SOL    HW230671   1.453   5.380   6.234  0.9369  0.7304  2.4548
 9744SOL     OW30672   2.956   2.670   0.351  0.2476  0.3207 -0.3466
 9744SOL    HW130673   2.957   2.705   0.261  2.5869 -0.9486 -0.9056
 9744SOL    HW230674   3.049   2.655   0.371 -0.4253 -3.9916  0.4185
 9745SOL     OW30675   4.719   6.868  10.030 -0.4782  0.3779  0.2827
 9745SOL    HW130676   4.771   6.849   9.952  1.7647  2.8516  1.0394
 9745SOL    HW230677   4.681   6.783  10.054  3.1481 -1.6778 -0.3930
 9746SOL     OW30678   6.160   0.929   1.760  0.7598  0.0658  0.0676
 9746SOL    HW130679   6.065   0.921   1.770  0.8971  0.1544  1.8104
 9746SOL    HW230680   6.187   0.848   1.717 -0.0693 -0.1266 -0.0962
 9747SOL     OW30681   6.057   3.456   9.556  0.6877 -0.1124 -0.3045
 9747SOL    HW130682   6.111   3.533   9.539  1.2249 -0.3808  0.1353
 9747SOL    HW230683   6.118   3.393   9.595  0.1477 -0.5811 -0.2129
 9748SOL     OW30684   5.262   4.722   6.507  0.3494 -0.1901 -0.2888
 9748SOL    HW130685   5.190   4.723   6.570  1.2424 -0.0331  0.7392
 9748SOL    HW230686   5.323   4.656   6.541  1.7047  1.1721  0.0069
 9749SOL     OW30687   6.089   4.022   6.166  0.0635 -0.6935  0.0294
 9749SOL    HW130688   6.128   4.001   6.081 -0.3872  1.6910 -0.8454
 9749SOL    HW230689   6.044   3.942   6.193  1.1048 -1.8313 -1.4483
 9750SOL     OW30690   0.404   4.652   5.673 -0.2606 -0.4912  0.4231
 9750SOL    HW130691   0.437   4.714   5.608  0.5881 -1.0966  0.2583
 9750SOL    HW230692   0.309   4.666   5.674  0.0074  1.6242  1.2437
 9751SOL     OW30693   4.859   7.843   7.394  0.1835 -0.2378  0.6556
 9751SOL    HW130694   4.831   7.926   7.433  1.1726  0.4439 -0.0283
 9751SOL    HW230695   4.819   7.843   7.307 -0.0736 -0.6389  0.7697
 9752SOL     OW30696   4.731   5.854  11.085 -0.2739 -0.1085 -0.0712
 9752SOL    HW130697   4.762   5.794  11.152 -1.2922 -1.5275 -0.8170
 9752SOL    HW230698   4.811   5.891  11.047  0.3079  0.8084  1.9491
 9753SOL     OW30699   3.371   3.482   0.891 -0.3943  0.1259  0.2494
 9753SOL    HW130700   3.281   3.516   0.888 -0.2277  0.4912 -1.1255
 9753SOL    HW230701   3.375   3.417   0.822  0.0545 -0.8404  1.1514
 9754SOL     OW30702   5.024   1.916   7.083 -0.0262 -0.7352 -0.3226
 9754SOL    HW130703   5.017   1.891   7.175  0.8506 -0.3665 -0.1401
 9754SOL    HW230704   4.934   1.914   7.050 -0.3280 -1.0348  0.4973
 9755SOL     OW30705   3.867   2.651   4.203  0.1130  0.9031  0.0660
 9755SOL    HW130706   3.893   2.711   4.273  0.2292  0.0386  0.7759
 9755SOL    HW230707   3.783   2.685   4.171 -0.4864  0.6913  1.3661
 9756SOL     OW30708   4.868   6.913   6.410  0.4813  0.4898 -0.0766
 9756SOL    HW130709   4.833   6.983   6.466  1.6760  1.4634 -0.4815
 9756SOL    HW230710   4.910   6.852   6.471 -1.3653 -0.3961  0.3581
 9757SOL     OW30711   4.113   6.779   5.938  0.1694 -0.3316 -0.5430
 9757SOL    HW130712   4.176   6.849   5.922 -1.4670  0.8160 -2.7047
 9757SOL    HW230713   4.072   6.802   6.021  0.9617  0.2387 -0.3023
 9758SOL     OW30714   4.731   6.682   1.131 -0.3768  0.2869  0.3239
 9758SOL    HW130715   4.787   6.753   1.162  0.1961 -0.2427  0.5131
 9758SOL    HW230716   4.666   6.670   1.200 -1.2736  1.4711 -0.2641
 9759SOL     OW30717   3.645   4.413   1.599  0.0571  0.3385  0.0993
 9759SOL    HW130718   3.700   4.489   1.618 -1.1367  1.0477  0.8425
 9759SOL    HW230719   3.579   4.446   1.539 -0.4482 -0.1250  0.3979
 9760SOL     OW30720   3.950   4.639  11.501 -0.1824  0.2711 -0.2702
 9760SOL    HW130721   3.956   4.671  11.411 -2.9790 -1.0419 -1.0576
 9760SOL    HW230722   4.008   4.562  11.503 -0.8381 -0.2711 -1.2786
 9761SOL     OW30723   0.347   4.285   7.127 -0.0943 -0.5214  0.2287
 9761SOL    HW130724   0.384   4.300   7.041  0.7599  0.2797  0.7211
 9761SOL    HW230725   0.252   4.285   7.113 -0.1904  3.2982 -0.2241
 9762SOL     OW30726   1.159   6.300   9.758 -0.6434 -0.2665 -0.4374
 9762SOL    HW130727   1.092   6.232   9.763  0.0891 -0.9527  2.0790
 9762SOL    HW230728   1.149   6.349   9.840  0.4221  1.0928 -1.0899
 9763SOL     OW30729   4.140   2.867   3.472  0.7102  0.5967 -0.4634
 9763SOL    HW130730   4.150   2.880   3.377  1.6932  0.8545 -0.3395
 9763SOL    HW230731   4.159   2.953   3.509 -1.8567  1.0874 -0.1336
 9764SOL     OW30732   6.851   7.483  11.029 -0.2880  0.0580 -0.1676
 9764SOL    HW130733   6.914   7.433  10.977  0.6996  0.2084  0.8371
 9764SOL    HW230734   6.849   7.569  10.988  2.1846  0.8951  1.2672
 9765SOL     OW30735   5.378   3.592  11.051  0.4220 -0.1844 -0.1266
 9765SOL    HW130736   5.406   3.617  10.962 -2.2173 -0.2150 -1.0690
 9765SOL    HW230737   5.387   3.497  11.053  2.3214 -0.0377  0.3926
 9766SOL     OW30738   1.264   2.053  10.927 -0.0376 -0.6464 -0.8611
 9766SOL    HW130739   1.322   2.114  10.881  0.7806 -1.2346 -0.6424
 9766SOL    HW230740   1.182   2.101  10.938  0.7570  0.6246 -0.2106
 9767SOL     OW30741   1.742   3.785   3.461  0.4957 -0.6172  0.3705
 9767SOL    HW130742   1.763   3.733   3.539  0.3638 -0.6468  0.3860
 9767SOL    HW230743   1.647   3.792   3.462  0.3977 -1.5567 -0.3902
 9768SOL     OW30744   4.330   7.974   4.341 -0.6601 -0.2061  0.1243
 9768SOL    HW130745   4.395   7.905   4.332  1.8538  1.9760  0.1943
 9768SOL    HW230746   4.248   7.929   4.359  0.4307 -3.2127 -1.8272
 9769SOL     OW30747   6.550   6.792   7.691  0.3716 -0.2475  0.1772
 9769SOL    HW130748   6.457   6.769   7.686 -0.1155  1.4901  0.3595
 9769SOL    HW230749   6.587   6.757   7.610 -0.1241 -2.1708  0.7441
 9770SOL     OW30750   7.910   3.217   2.250 -0.1276 -0.4005 -0.0808
 9770SOL    HW130751   7.934   3.192   2.160 -0.3813  0.8428 -0.5236
 9770SOL    HW230752   7.820   3.250   2.242 -0.1193 -0.2045  0.6190
 9771SOL     OW30753   0.610   5.865   7.155 -0.3950  0.4019 -0.3117
 9771SOL    HW130754   0.566   5.793   7.200 -0.2389 -0.7963 -1.9789
 9771SOL    HW230755   0.565   5.871   7.071  0.1631  1.6948 -0.5357
 9772SOL     OW30756   2.596   4.990   5.646  0.1670  0.5502  0.1535
 9772SOL    HW130757   2.540   4.943   5.707 -1.7862  0.1913 -1.7909
 9772SOL    HW230758   2.555   5.076   5.636  1.7946  1.5034  1.0613
 9773SOL     OW30759   4.010   0.737  10.439 -0.4965  0.3489 -0.5585
 9773SOL    HW130760   3.996   0.823  10.399  0.2834  0.7677  0.0477
 9773SOL    HW230761   4.057   0.687  10.372 -1.5190  0.1660 -1.1614
 9774SOL     OW30762   1.957   5.085   7.084  0.0235 -0.3050 -0.1298
 9774SOL    HW130763   1.989   5.165   7.126 -1.1836  1.2394 -1.9337
 9774SOL    HW230764   2.003   5.014   7.128  1.6624  1.4227  1.1104
 9775SOL     OW30765   6.843   1.045   1.307 -0.6351  0.5058  0.2084
 9775SOL    HW130766   6.814   1.136   1.302 -0.0551  0.6451 -0.7903
 9775SOL    HW230767   6.871   1.023   1.219 -0.5462 -0.5794  0.4837
 9776SOL     OW30768   7.585   3.915  11.852 -0.1527  0.0040 -0.1521
 9776SOL    HW130769   7.659   3.951  11.803  1.9125 -0.9726  2.0186
 9776SOL    HW230770   7.512   3.915  11.790  1.5777  1.2609 -2.3340
 9777SOL     OW30771   7.754   7.519   1.017 -0.0314  0.0352  0.3545
 9777SOL    HW130772   7.691   7.575   0.972  0.0299 -1.0562 -1.1369
 9777SOL    HW230773   7.724   7.518   1.108  0.2042  2.8090  0.5573
 9778SOL     OW30774   0.016   2.178  11.696  0.2250 -0.2847  0.0938
 9778SOL    HW130775  -0.012   2.086  11.691  1.2961 -0.5887 -0.6244
 9778SOL    HW230776  -0.060   2.224  11.729 -0.4957 -1.3671 -0.0033
 9779SOL     OW30777   1.918   2.825   8.011  0.2525 -0.7880  0.2998
 9779SOL    HW130778   1.978   2.898   8.028 -1.3646  0.3980  1.1054
 9779SOL    HW230779   1.973   2.759   7.967  2.1739  0.1602  1.1602
 9780SOL     OW30780   7.729   6.918   5.821 -0.9982  0.0203 -0.2636
 9780SOL    HW130781   7.790   6.910   5.748 -3.2614 -0.3771 -2.2376
 9780SOL    HW230782   7.696   6.829   5.834 -0.6890  0.1021  1.2306
 9781SOL     OW30783   3.679   5.744   6.898 -0.1129  0.8964 -0.0398
 9781SOL    HW130784   3.645   5.699   6.975  0.2086 -0.5256 -0.6936
 9781SOL    HW230785   3.620   5.720   6.827 -0.0724  1.7158 -0.3630
 9782SOL     OW30786   2.294   5.443   9.517 -0.2775  0.6479 -0.2870
 9782SOL    HW130787   2.349   5.500   9.570  2.1463 -1.1829 -0.6688
 9782SOL    HW230788   2.249   5.386   9.581  2.2768 -1.2422 -0.0195
 9783SOL     OW30789   6.648   1.228  10.125  0.8419  0.4481 -0.2028
 9783SOL    HW130790   6.655   1.196  10.215  0.2669  0.1293 -0.2622
 9783SOL    HW230791   6.563   1.272  10.122  1.0261  0.7857 -0.4925
 9784SOL     OW30792   2.858   7.226   4.697 -0.7663 -0.1647 -0.1688
 9784SOL    HW130793   2.779   7.175   4.713 -0.5362 -0.4028  0.2276
 9784SOL    HW230794   2.926   7.181   4.747 -0.7148  0.9855  0.8346
 9785SOL     OW30795   4.688   6.038   1.622 -0.0911  0.3617 -0.3133
 9785SOL    HW130796   4.695   5.964   1.683 -1.1027  0.7278  0.2721
 9785SOL    HW230797   4.601   6.075   1.640 -0.3303  0.5923 -1.8506
 9786SOL     OW30798   4.292   0.707   9.886  0.3835 -0.2970 -0.4674
 9786SOL    HW130799   4.376   0.745   9.913  1.4772 -2.2695 -0.8159
 9786SOL    HW230800   4.234   0.721   9.960  0.7250  1.9138 -0.5676
 9787SOL     OW30801   5.035   2.310   1.432  0.0510 -0.2346  0.5319
 9787SOL    HW130802   5.034   2.264   1.516 -1.5196 -1.2667  0.0029
 9787SOL    HW230803   5.076   2.248   1.371  0.8741  0.3753  0.4464
 9788SOL     OW30804   4.831   7.543  11.490  0.5687 -0.2691 -0.2068
 9788SOL    HW130805   4.746   7.533  11.446  1.9874 -0.5345 -3.0675
 9788SOL    HW230806   4.817   7.613  11.553 -2.4710 -2.0622  1.3842
 9789SOL     OW30807   5.790   2.486  11.400  0.1702  0.4294  0.0468
 9789SOL    HW130808   5.749   2.570  11.379 -0.8340 -0.3945 -1.4475
 9789SOL    HW230809   5.806   2.491  11.495 -2.2931  1.2879  0.4963
 9790SOL     OW30810   2.031   1.218  12.313 -0.0765  0.1318 -0.3523
 9790SOL    HW130811   1.993   1.131  12.300  0.3059 -0.2271  0.8219
 9790SOL    HW230812   1.969   1.262  12.372  0.1056  0.3926 -0.3564
 9791SOL     OW30813   2.068   4.313   1.222  0.4921  0.2415  0.1264
 9791SOL    HW130814   2.049   4.324   1.128 -0.7267  2.1612  0.5317
 9791SOL    HW230815   1.999   4.363   1.266  0.7193 -1.0639  2.0942
 9792SOL     OW30816   6.497   3.057   4.613 -0.2902 -0.3354  1.2224
 9792SOL    HW130817   6.573   3.048   4.555 -1.0463 -2.0530  0.4261
 9792SOL    HW230818   6.426   3.015   4.565 -2.1050  2.3589  1.3812
 9793SOL     OW30819   7.320   5.934   9.313  0.0696 -0.5141 -0.5931
 9793SOL    HW130820   7.372   5.934   9.233 -1.4182  0.3871 -1.5890
 9793SOL    HW230821   7.234   5.966   9.287 -0.1412  0.9281  1.5754
 9794SOL     OW30822   1.343   7.207   1.548 -0.1380 -0.5219 -0.2458
 9794SOL    HW130823   1.328   7.195   1.455  0.5114  1.6168 -0.6964
 9794SOL    HW230824   1.371   7.299   1.556  1.9329 -1.2302  1.7685
 9795SOL     OW30825   5.416   4.317   6.495  0.2166  0.2574  0.7054
 9795SOL    HW130826   5.361   4.320   6.573  0.0948  0.3171  0.6179
 9795SOL    HW230827   5.506   4.320   6.528  0.1647  0.3146  0.8415
 9796SOL     OW30828   3.514   0.174   6.340 -0.0886  0.3342 -0.4142
 9796SOL    HW130829   3.437   0.117   6.332 -0.0067 -0.4833  2.9223
 9796SOL    HW230830   3.573   0.125   6.398  1.9228  1.9802 -0.9706
 9797SOL     OW30831   3.275   7.115  12.138 -0.7831  0.2012  0.0867
 9797SOL    HW130832   3.362   7.140  12.106 -0.9047 -0.9128 -1.2103
 9797SOL    HW230833   3.274   7.144  12.229  0.6993  0.8397 -0.0667
 9798SOL     OW30834   7.357   0.722   3.638  0.1801 -0.0276 -0.0146
 9798SOL    HW130835   7.424   0.687   3.581 -0.0631 -0.5621  0.0230
 9798SOL    HW230836   7.284   0.660   3.632  0.1570 -0.1097  0.8836
 9799SOL     OW30837   7.560   5.511  11.508 -0.1862  0.0665  0.4196
 9799SOL    HW130838   7.494   5.579  11.517  0.2843  0.6787 -0.5324
 9799SOL    HW230839   7.632   5.553  11.460  0.1285 -1.0789 -0.1528
 9800SOL     OW30840   6.352   7.064   8.693 -0.2204  0.3251  0.1078
 9800SOL    HW130841   6.369   6.973   8.669  0.7625  0.7885 -1.0775
 9800SOL    HW230842   6.306   7.059   8.777  1.8191 -1.2296  1.2294
 9801SOL     OW30843   3.490   6.076  10.900 -0.1991 -0.0733  0.0116
 9801SOL    HW130844   3.455   6.073  10.811  3.1583 -2.2888 -1.4662
 9801SOL    HW230845   3.523   6.165  10.911  0.3399 -0.0600 -1.4809
 9802SOL     OW30846   3.593   5.756  12.337  0.2203 -0.4203  0.8278
 9802SOL    HW130847   3.552   5.837  12.307  0.4672  0.1337  1.9305
 9802SOL    HW230848   3.569   5.690  12.272 -0.8050  0.3240  0.4456
 9803SOL     OW30849   0.186   2.615  12.195 -0.3185 -0.1464 -0.1869
 9803SOL    HW130850   0.218   2.638  12.282 -2.0190 -0.8241  0.6810
 9803SOL    HW230851   0.108   2.669  12.183 -1.1485 -1.3515 -0.4791
 9804SOL     OW30852   0.671   2.254  10.565 -0.1613  0.4585 -0.5186
 9804SOL    HW130853   0.576   2.267  10.556 -0.0201  0.6959 -1.8341
 9804SOL    HW230854   0.679   2.176  10.620 -1.1105  0.5139 -0.2770
 9805SOL     OW30855   5.481   2.520   3.273  0.1748 -0.0327 -0.1445
 9805SOL    HW130856   5.405   2.486   3.225  0.9984 -0.5329 -1.1173
 9805SOL    HW230857   5.507   2.599   3.226  0.3800  0.0394  0.0835
 9806SOL     OW30858   6.221   3.827   2.306  0.2823  0.4662  0.0107
 9806SOL    HW130859   6.276   3.881   2.362  0.3102 -0.2084  0.6517
 9806SOL    HW230860   6.269   3.745   2.296 -0.9789 -0.4948  1.3519
 9807SOL     OW30861   2.863   5.562   1.016  0.0819 -0.3808  0.1814
 9807SOL    HW130862   2.881   5.470   0.995  0.3856 -0.0974 -0.8207
 9807SOL    HW230863   2.902   5.612   0.944 -2.5464  0.3899 -0.8018
 9808SOL     OW30864   2.400   1.899   2.053  0.5111 -0.0247  0.1419
 9808SOL    HW130865   2.308   1.877   2.068  0.3888  0.7560  0.5653
 9808SOL    HW230866   2.444   1.814   2.049 -0.1849 -0.3962  0.2052
 9809SOL     OW30867   1.759   3.361  10.291 -0.0227 -0.2305  0.2239
 9809SOL    HW130868   1.730   3.435  10.237  1.0567  1.3859  1.7419
 9809SOL    HW230869   1.854   3.357  10.275 -0.3158 -2.6778 -1.4058
 9810SOL     OW30870   6.110   7.481   2.257 -0.0011  0.0884 -0.7394
 9810SOL    HW130871   6.155   7.482   2.342 -0.7300 -2.8162 -0.2131
 9810SOL    HW230872   6.176   7.449   2.195 -0.3696 -0.9838 -0.5985
 9811SOL     OW30873   6.797   0.502   7.522 -0.3154 -0.3553 -0.2474
 9811SOL    HW130874   6.833   0.591   7.520 -0.4279 -0.1918  2.3656
 9811SOL    HW230875   6.708   0.511   7.489 -0.4405  0.5791  0.3057
 9812SOL     OW30876   0.893   3.838   5.982 -0.7621  0.2192  0.9040
 9812SOL    HW130877   0.864   3.749   5.966  0.4744  0.0404 -0.5296
 9812SOL    HW230878   0.986   3.838   5.960 -0.5199  1.6459  1.7626
 9813SOL     OW30879   5.585   4.890   1.944 -0.3970  0.0596 -0.3411
 9813SOL    HW130880   5.514   4.888   2.008  1.4626  2.0039  1.9853
 9813SOL    HW230881   5.620   4.801   1.945 -0.6702 -0.0670  1.1413
 9814SOL     OW30882   0.204   2.319   9.984 -0.0919  0.5796 -0.8004
 9814SOL    HW130883   0.237   2.232  10.007  0.4835  1.2225  1.0166
 9814SOL    HW230884   0.281   2.376   9.987 -0.5843  1.2900 -1.2459
 9815SOL     OW30885   2.810   4.730   1.760 -0.3284  0.8401 -0.2729
 9815SOL    HW130886   2.747   4.802   1.762  0.1462  1.2861  2.2552
 9815SOL    HW230887   2.826   4.710   1.853  1.1752 -1.0942 -0.8929
 9816SOL     OW30888   3.378   1.460   0.797 -0.3403  0.8147 -0.1136
 9816SOL    HW130889   3.460   1.416   0.820 -0.8803  0.3844  1.0683
 9816SOL    HW230890   3.310   1.406   0.838 -1.2642  0.8509 -1.5483
 9817SOL     OW30891   5.875   3.119   2.940 -0.2770 -0.5519 -0.3454
 9817SOL    HW130892   5.849   3.104   2.849 -0.7896 -0.8535 -0.1505
 9817SOL    HW230893   5.867   3.034   2.982 -2.3357  0.0161  0.5490
 9818SOL     OW30894   6.449   1.013   0.862  0.4106  0.9252  0.0054
 9818SOL    HW130895   6.357   0.994   0.842  0.8765  0.2575 -1.6150
 9818SOL    HW230896   6.485   0.929   0.891  0.6062  1.1159  0.3260
 9819SOL     OW30897   7.208   6.946   4.668 -0.1027  0.2537 -0.4056
 9819SOL    HW130898   7.236   7.036   4.656 -1.9379  1.0230  0.6628
 9819SOL    HW230899   7.234   6.924   4.758  0.3501 -0.2984 -0.6642
 9820SOL     OW30900   5.046   6.629   0.448  0.6718  0.2257  0.1581
 9820SOL    HW130901   4.999   6.709   0.425 -1.0945 -0.5829  0.8066
 9820SOL    HW230902   5.086   6.650   0.533 -0.9545  0.0032  1.0176
 9821SOL     OW30903   6.167   2.992   9.319 -0.0965 -0.2485 -0.1693
 9821SOL    HW130904   6.133   3.015   9.405 -0.5549  0.9004 -0.6291
 9821SOL    HW230905   6.095   3.011   9.259  0.2809 -0.8555 -0.8313
 9822SOL     OW30906   4.648   6.698   2.820 -0.3174 -0.2893  0.3441
 9822SOL    HW130907   4.660   6.783   2.862  0.9989  0.7640 -1.9777
 9822SOL    HW230908   4.705   6.639   2.870  1.1453  0.9040  0.1712
 9823SOL     OW30909   6.409   2.959   6.151  0.5035  0.5795  0.5683
 9823SOL    HW130910   6.338   2.939   6.090  1.4395  0.7804 -0.6311
 9823SOL    HW230911   6.412   3.055   6.154  0.1087  0.5742  1.3738
 9824SOL     OW30912   2.639   3.874  11.726  0.1002 -0.7298 -0.3491
 9824SOL    HW130913   2.600   3.840  11.646  1.7776 -1.0217 -1.1003
 9824SOL    HW230914   2.714   3.925  11.696 -0.0617  0.3362  0.9749
 9825SOL     OW30915   7.682   1.299   0.241  0.1797 -0.4746 -0.0593
 9825SOL    HW130916   7.690   1.224   0.300 -0.6709 -0.3779  0.1904
 9825SOL    HW230917   7.767   1.303   0.196  1.7886  0.9226  2.8678
 9826SOL     OW30918   2.538   7.778   4.213  0.5974 -0.4300 -0.2904
 9826SOL    HW130919   2.491   7.805   4.135  1.7406 -0.6130 -1.0668
 9826SOL    HW230920   2.584   7.698   4.187  0.6546 -0.7316  0.6991
 9827SOL     OW30921   7.108   2.025   7.691 -0.0869 -0.0463 -0.2312
 9827SOL    HW130922   7.025   2.045   7.647  0.7087  0.5052 -1.5529
 9827SOL    HW230923   7.172   2.019   7.620  1.5662  2.3904  0.8987
 9828SOL     OW30924   6.540   4.973  10.952  0.2325 -0.3704 -0.3303
 9828SOL    HW130925   6.610   4.914  10.926 -0.1991 -0.4121 -1.4715
 9828SOL    HW230926   6.491   4.989  10.871  1.1103  2.6226 -0.3979
 9829SOL     OW30927   2.056   6.837   3.867  0.2599 -0.4262  0.6383
 9829SOL    HW130928   2.002   6.758   3.869  2.5361 -2.0520  1.4151
 9829SOL    HW230929   2.099   6.838   3.953 -0.3321  2.1693  0.9863
 9830SOL     OW30930   7.897   5.913   6.230 -0.0264 -0.3648 -0.0560
 9830SOL    HW130931   7.899   5.977   6.302  0.1577 -0.9147  0.4427
 9830SOL    HW230932   7.977   5.931   6.181 -0.7968  0.8813 -0.9222
 9831SOL     OW30933   1.859   0.917   7.671 -0.0364 -0.1460 -0.3439
 9831SOL    HW130934   1.863   1.011   7.658 -0.2278  0.0518  0.8603
 9831SOL    HW230935   1.811   0.884   7.595 -0.2099  0.7609 -0.6374
 9832SOL     OW30936   0.030   7.932   4.441 -0.0728 -0.2174  0.1176
 9832SOL    HW130937   0.017   7.914   4.534 -0.8113  2.0848  0.5295
 9832SOL    HW230938  -0.059   7.940   4.405  0.1458  1.5302 -0.1553
 9833SOL     OW30939   0.217   3.594   6.202 -0.2693 -0.3530  0.0015
 9833SOL    HW130940   0.138   3.547   6.229 -1.5504  1.0686 -1.0842
 9833SOL    HW230941   0.240   3.555   6.117 -1.5944  1.1641 -1.1174
 9834SOL     OW30942   3.243   3.180   5.733 -0.3500 -0.2799 -0.4448
 9834SOL    HW130943   3.243   3.253   5.671 -0.2479 -0.0135 -0.1394
 9834SOL    HW230944   3.218   3.220   5.816  1.4592 -0.2350  0.1134
 9835SOL     OW30945   3.762   0.935   2.816 -0.7129  0.3929  0.3987
 9835SOL    HW130946   3.836   0.992   2.838  1.0374 -1.7834  0.5340
 9835SOL    HW230947   3.694   0.994   2.785  1.0641  2.5058  0.3075
 9836SOL     OW30948   7.698   0.831   5.210  0.6981 -0.0445 -0.6412
 9836SOL    HW130949   7.793   0.825   5.200  1.2345  0.4782  2.8802
 9836SOL    HW230950   7.670   0.742   5.231  0.7175  0.0979  0.0282
 9837SOL     OW30951   4.553   5.351  11.506  0.1053  0.1725 -0.2602
 9837SOL    HW130952   4.645   5.377  11.509 -0.5245  2.5376  0.5624
 9837SOL    HW230953   4.513   5.410  11.443 -0.6768 -1.6264 -1.5385
 9838SOL     OW30954   4.638   7.469   4.928 -0.4998 -0.0569 -0.3858
 9838SOL    HW130955   4.620   7.383   4.891 -0.9105  0.4219 -1.3703
 9838SOL    HW230956   4.552   7.501   4.956 -0.4251  0.2040 -0.4459
 9839SOL     OW30957   5.536   5.755   5.324 -0.2355 -0.5035 -0.1204
 9839SOL    HW130958   5.454   5.719   5.358 -1.1690  1.9934  0.5663
 9839SOL    HW230959   5.524   5.758   5.229 -1.2595  0.4027  0.0114
 9840SOL     OW30960   2.830   6.796   9.643  0.3247 -0.2765 -0.3207
 9840SOL    HW130961   2.759   6.763   9.699  0.0651 -0.3076 -0.6671
 9840SOL    HW230962   2.886   6.720   9.628 -0.5922 -0.7295 -1.6101
 9841SOL     OW30963   1.974   4.333   3.536 -0.2655  0.1945 -0.0572
 9841SOL    HW130964   2.054   4.341   3.485 -0.3018  0.8929 -0.0088
 9841SOL    HW230965   2.003   4.325   3.626 -0.1445 -2.2318 -0.2434
 9842SOL     OW30966   6.538   6.108   4.593 -0.6593 -0.0629 -0.1018
 9842SOL    HW130967   6.468   6.043   4.598 -0.6366 -0.3464 -2.3918
 9842SOL    HW230968   6.521   6.168   4.666 -2.4145 -0.9508  0.2669
 9843SOL     OW30969   4.076   2.533   7.783 -1.3707 -0.4828  0.0118
 9843SOL    HW130970   4.004   2.498   7.835 -0.2516  0.3877  2.2499
 9843SOL    HW230971   4.128   2.586   7.844  0.0762  0.5480 -1.9696
 9844SOL     OW30972   3.208   2.309  10.495  0.5393 -0.3039 -0.1100
 9844SOL    HW130973   3.275   2.304  10.563  0.5965 -0.3761 -0.1722
 9844SOL    HW230974   3.213   2.224  10.450 -0.1212 -0.6111  0.3842
 9845SOL     OW30975   2.613   3.702   3.608  0.2597 -0.2550  0.0364
 9845SOL    HW130976   2.624   3.643   3.683 -0.7975 -0.4668  0.0432
 9845SOL    HW230977   2.658   3.782   3.634  1.1847 -0.8313  0.2792
 9846SOL     OW30978   6.111   2.746   3.786  0.2147  0.0597 -0.2135
 9846SOL    HW130979   6.141   2.811   3.722 -2.7504  0.6718 -1.1343
 9846SOL    HW230980   6.074   2.799   3.858 -1.2811 -0.5572 -0.4903
 9847SOL     OW30981   0.102   5.010   5.848  0.6914 -0.6260  0.1409
 9847SOL    HW130982   0.112   5.061   5.768 -0.1222  0.7267  0.8621
 9847SOL    HW230983   0.050   4.934   5.822 -0.4409  0.3192 -0.4281
 9848SOL     OW30984   0.174   1.221   8.212 -0.3133 -1.1993 -0.1169
 9848SOL    HW130985   0.120   1.146   8.188  0.0214 -0.8079 -2.2263
 9848SOL    HW230986   0.234   1.187   8.278 -0.3144 -2.7232 -0.8728
 9849SOL     OW30987   6.666   5.241   2.141  0.1241  0.0884 -0.5264
 9849SOL    HW130988   6.633   5.249   2.231 -0.5080 -3.2289 -0.3405
 9849SOL    HW230989   6.746   5.293   2.141  0.3502 -0.1041  2.0980
 9850SOL     OW30990   7.699   7.263  12.040  0.1545  0.1285 -0.8415
 9850SOL    HW130991   7.739   7.187  12.082 -1.6455 -1.2051 -1.4082
 9850SOL    HW230992   7.770   7.305  11.992  1.6160 -0.0103  1.0529
 9851SOL     OW30993   4.329   6.879   9.736  0.0856 -0.2465 -0.4478
 9851SOL    HW130994   4.399   6.892   9.800  0.4576  0.2715 -0.9450
 9851SOL    HW230995   4.364   6.815   9.674  0.1242  0.0012 -0.6875
 9852SOL     OW30996   1.346   6.228   2.271  0.7863  0.6326 -0.2662
 9852SOL    HW130997   1.437   6.249   2.250  0.7247  1.0969 -0.0881
 9852SOL    HW230998   1.338   6.135   2.254  0.7634  0.9445 -2.2171
 9853SOL     OW30999   0.497   0.859   1.185 -0.2439 -0.0805 -0.7826
 9853SOL    HW131000   0.511   0.887   1.095  0.9906 -0.4894 -0.7403
 9853SOL    HW231001   0.567   0.796   1.202 -0.5254 -0.1025  0.4305
 9854SOL     OW31002   7.955   3.519  10.460 -0.3492  0.3857  0.2616
 9854SOL    HW131003   7.879   3.577  10.462 -0.0097  0.9128 -1.2202
 9854SOL    HW231004   7.924   3.440  10.417 -0.4943 -0.0933  1.2127
 9855SOL     OW31005   6.728   7.935   5.258  0.0494  0.1908 -0.4509
 9855SOL    HW131006   6.658   7.914   5.319  0.4416  0.9199  0.2599
 9855SOL    HW231007   6.690   7.918   5.172 -0.6596 -0.4016 -0.0350
 9856SOL     OW31008   3.632   3.426   1.561  0.7755 -0.0808  0.2034
 9856SOL    HW131009   3.719   3.389   1.577  0.5366 -0.6628  0.2007
 9856SOL    HW231010   3.646   3.491   1.493  1.4709  0.9936  1.3410
 9857SOL     OW31011   5.338   7.717   1.265  0.0111 -0.3521  0.0844
 9857SOL    HW131012   5.246   7.721   1.291  0.2331  1.9034  0.7446
 9857SOL    HW231013   5.384   7.687   1.344  0.0357  0.6708  0.4829
 9858SOL     OW31014   4.555   1.523   4.558 -0.2596  0.0372  0.1315
 9858SOL    HW131015   4.572   1.431   4.540 -1.5729 -0.2662  0.3782
 9858SOL    HW231016   4.466   1.538   4.526  0.1058  1.3382 -0.3235
 9859SOL     OW31017   5.560   6.497  11.866  0.1737  0.2150 -0.2683
 9859SOL    HW131018   5.495   6.467  11.803 -0.7292  0.6751  0.4151
 9859SOL    HW231019   5.594   6.578  11.830 -0.3773  0.5025 -0.1413
 9860SOL     OW31020   1.833   6.671   4.047 -0.0487  0.0762 -0.4544
 9860SOL    HW131021   1.787   6.752   4.022  0.0752  0.3043  0.0527
 9860SOL    HW231022   1.787   6.641   4.125  1.6966  1.2142  1.0748
 9861SOL     OW31023   4.835   2.389   0.063 -0.0558  0.7261 -0.4277
 9861SOL    HW131024   4.760   2.442   0.089 -0.3482  0.1215 -0.0351
 9861SOL    HW231025   4.904   2.412   0.126 -0.1393  0.7446 -0.3431
 9862SOL     OW31026   2.458   7.860   1.042  0.1454 -0.3836 -0.4107
 9862SOL    HW131027   2.364   7.874   1.054  0.2741  0.6830 -0.6118
 9862SOL    HW231028   2.484   7.813   1.121 -0.0169  1.9612  1.1414
 9863SOL     OW31029   6.675   2.392   4.086  0.6055 -0.0189 -0.0212
 9863SOL    HW131030   6.599   2.388   4.028  1.2432  0.0209 -0.8834
 9863SOL    HW231031   6.685   2.485   4.107  0.1094 -0.0807  0.5343
 9864SOL     OW31032   1.791   6.725   0.621 -0.1091 -0.0007 -0.2815
 9864SOL    HW131033   1.869   6.775   0.601  0.6162 -1.7238 -2.0620
 9864SOL    HW231034   1.796   6.709   0.716  1.5688  0.1038 -0.3335
 9865SOL     OW31035   2.297   2.649   1.643 -0.0641  0.5034  0.0008
 9865SOL    HW131036   2.305   2.635   1.737 -0.3297 -1.7415 -0.2636
 9865SOL    HW231037   2.384   2.679   1.616  0.1971  0.5204  0.8457
 9866SOL     OW31038   2.406   0.854   1.237 -0.0992 -0.3709  0.6906
 9866SOL    HW131039   2.413   0.783   1.302  0.1722 -0.0375  1.0330
 9866SOL    HW231040   2.426   0.812   1.154 -0.2977 -0.7752  0.8416
 9867SOL     OW31041   2.730   4.219   6.711 -0.0635 -0.0200 -0.0413
 9867SOL    HW131042   2.714   4.176   6.627 -0.9469 -0.1418  0.1842
 9867SOL    HW231043   2.740   4.311   6.689 -1.7989  0.1730 -0.1323
 9868SOL     OW31044   3.793   5.668   6.458  0.1873  0.2959  0.6965
 9868SOL    HW131045   3.824   5.589   6.504  0.1515  0.3386  0.7933
 9868SOL    HW231046   3.874   5.716   6.437  0.2839 -0.2564 -0.2559
 9869SOL     OW31047   7.956   3.284  10.799 -0.1759  0.3855 -0.2041
 9869SOL    HW131048   8.007   3.360  10.770  1.4502  0.2228  1.9629
 9869SOL    HW231049   7.876   3.287  10.747  1.2229  1.7511 -2.4108
 9870SOL     OW31050   0.099   7.864   5.328 -0.5656 -0.1876  0.1928
 9870SOL    HW131051   0.140   7.795   5.381 -0.5284 -1.3148 -1.2399
 9870SOL    HW231052   0.172   7.918   5.298 -0.4030 -0.5406 -0.0614
 9871SOL     OW31053   0.306   6.633   9.850  0.2630 -0.0898  0.1623
 9871SOL    HW131054   0.281   6.542   9.835  0.2164 -0.0473 -0.0202
 9871SOL    HW231055   0.282   6.650   9.941  0.7195 -0.4050  0.3428
 9872SOL     OW31056   6.122   3.233   4.717  0.1771  0.4029 -0.3176
 9872SOL    HW131057   6.094   3.142   4.704 -1.1368  0.6451  0.5997
 9872SOL    HW231058   6.102   3.251   4.808  0.5241  1.5820 -0.4673
 9873SOL     OW31059   1.384   3.973   9.985 -0.1760 -0.2279 -0.0986
 9873SOL    HW131060   1.473   4.004  10.001 -0.1822  0.2290 -0.8926
 9873SOL    HW231061   1.396   3.894   9.931 -0.1962 -1.1248  1.1749
 9874SOL     OW31062   4.454   2.529  11.228  0.1799  0.1391 -0.0324
 9874SOL    HW131063   4.548   2.518  11.242  0.2461  0.6465 -0.0552
 9874SOL    HW231064   4.444   2.620  11.201 -0.3299  0.1147  0.0573
 9875SOL     OW31065   7.754   0.839   3.197  0.2360 -0.0111  0.4861
 9875SOL    HW131066   7.744   0.747   3.220  0.1488 -0.2139 -0.3312
 9875SOL    HW231067   7.796   0.838   3.111 -1.8568  0.6329 -0.6192
 9876SOL     OW31068   3.419   1.074   4.598 -0.0435 -0.0032 -0.0393
 9876SOL    HW131069   3.404   1.065   4.503 -0.1325  1.7312 -0.2156
 9876SOL    HW231070   3.509   1.107   4.605 -1.0119  2.8038  0.2725
 9877SOL     OW31071   3.531   3.381   1.928 -0.1510  0.2192 -0.0656
 9877SOL    HW131072   3.601   3.360   1.866  0.1134 -1.4569  0.7353
 9877SOL    HW231073   3.577   3.414   2.005 -0.3730  0.7712 -0.1653
 9878SOL     OW31074   0.982   6.606   8.745  0.2689  0.4245 -0.2551
 9878SOL    HW131075   0.922   6.564   8.684  1.2786 -1.8483  0.2247
 9878SOL    HW231076   0.952   6.578   8.832  0.3820  1.5192  0.1499
 9879SOL     OW31077   6.113   2.363   9.495  0.2936 -0.3285 -0.2011
 9879SOL    HW131078   6.103   2.455   9.471  1.9033 -0.2249 -0.5975
 9879SOL    HW231079   6.026   2.336   9.525  0.1525  1.7465  1.4749
 9880SOL     OW31080   3.030   2.818   2.753 -0.2207 -0.4897 -0.6338
 9880SOL    HW131081   2.946   2.780   2.730 -1.2529  0.5793  1.1992
 9880SOL    HW231082   3.009   2.902   2.794  1.8300  0.7488 -1.8705
 9881SOL     OW31083   6.791   1.464   1.517 -0.2236  0.4001 -0.0647
 9881SOL    HW131084   6.824   1.545   1.555 -1.0011  0.1931  1.0958
 9881SOL    HW231085   6.736   1.492   1.444  0.2675  0.8603 -0.2655
 9882SOL     OW31086   4.007   3.169   6.347  0.0632  0.0628  0.2644
 9882SOL    HW131087   4.056   3.216   6.280  1.2320 -0.9542  0.3669
 9882SOL    HW231088   4.021   3.219   6.427 -2.3797  2.0042 -0.4084
 9883SOL     OW31089   0.161   3.534   4.125 -0.0632  0.1182  0.3246
 9883SOL    HW131090   0.097   3.464   4.114  0.5911 -0.4186 -0.1999
 9883SOL    HW231091   0.224   3.500   4.188  0.5150  0.0280 -0.2783
 9884SOL     OW31092   6.807   7.250   4.252  0.4636  0.6145  0.6591
 9884SOL    HW131093   6.902   7.253   4.241  0.1949  1.3429 -2.7618
 9884SOL    HW231094   6.778   7.338   4.229 -1.1612 -0.4235 -1.7168
 9885SOL     OW31095   5.317   6.334  10.984 -0.3807 -0.2758 -0.2910
 9885SOL    HW131096   5.256   6.297  10.920 -0.8170  0.6466 -0.4248
 9885SOL    HW231097   5.353   6.411  10.940  0.8825 -0.7997 -0.2031
 9886SOL     OW31098   6.145   1.190   5.439 -0.1738 -0.1753  0.3400
 9886SOL    HW131099   6.131   1.184   5.345 -1.4108  0.5848  0.4583
 9886SOL    HW231100   6.078   1.251   5.470  0.7277  0.2204  1.5966
 9887SOL     OW31101   7.470   6.458  11.380  0.1664  0.1190  0.2255
 9887SOL    HW131102   7.386   6.502  11.373  0.5293  1.3582  2.5146
 9887SOL    HW231103   7.454   6.369  11.348 -1.5165  0.8470 -1.0919
 9888SOL     OW31104   5.897   2.842  10.527 -0.3266 -0.3817 -0.1576
 9888SOL    HW131105   5.883   2.926  10.571 -1.0308 -0.3544 -0.4251
 9888SOL    HW231106   5.864   2.777  10.589  1.7927 -0.6311  0.8092
 9889SOL     OW31107   2.561   5.004   4.292 -0.3659 -0.4063 -0.5359
 9889SOL    HW131108   2.606   5.076   4.337 -0.6974 -0.6407  0.1722
 9889SOL    HW231109   2.475   5.039   4.270  0.3482  0.2690 -2.4828
 9890SOL     OW31110   7.969   4.202  10.556  0.1295 -0.1187 -0.3974
 9890SOL    HW131111   7.885   4.185  10.598 -0.3410 -0.4426 -1.4487
 9890SOL    HW231112   8.029   4.139  10.596 -0.2180 -0.1785  0.0432
 9891SOL     OW31113   7.512   6.201   5.538 -0.3521  0.2236  0.0046
 9891SOL    HW131114   7.516   6.255   5.617 -0.2858 -0.5410  0.5400
 9891SOL    HW231115   7.545   6.115   5.566 -0.9574 -0.2538 -0.6887
 9892SOL     OW31116   0.934   3.154   3.626  0.1769 -0.0749  0.3040
 9892SOL    HW131117   0.843   3.167   3.652  0.2925  1.0639  0.2087
 9892SOL    HW231118   0.929   3.113   3.540 -0.2286 -1.1472  0.8216
 9893SOL     OW31119   7.748   4.605  10.169  0.2767 -0.1915  0.1575
 9893SOL    HW131120   7.665   4.635  10.132  0.3671 -0.0368  0.0766
 9893SOL    HW231121   7.723   4.548  10.241  0.0958  1.6736  1.6306
 9894SOL     OW31122   3.147   6.509   1.396  0.3656  0.3144  0.6280
 9894SOL    HW131123   3.191   6.583   1.439  1.4016  0.2331 -0.2695
 9894SOL    HW231124   3.218   6.458   1.357 -0.4930 -0.0732 -0.4613
 9895SOL     OW31125   4.396   4.977   2.404  0.1889 -0.2750 -0.2939
 9895SOL    HW131126   4.462   5.002   2.468  0.7986 -1.7154 -0.3036
 9895SOL    HW231127   4.356   4.898   2.440 -0.7061 -0.0914 -0.8523
 9896SOL     OW31128   6.964   1.425   5.360 -0.1757  0.3023 -0.0816
 9896SOL    HW131129   6.929   1.424   5.271 -0.4145  2.5793 -0.0742
 9896SOL    HW231130   6.896   1.469   5.412  0.5172  0.1707  0.9594
 9897SOL     OW31131   7.721   0.199   6.956  0.2176  0.1600 -0.4918
 9897SOL    HW131132   7.632   0.216   6.988  0.4276  0.9471 -0.3323
 9897SOL    HW231133   7.770   0.278   6.977  0.5130  0.4642 -2.2073
 9898SOL     OW31134   4.131   6.581   9.462  0.1924  0.7577 -0.7265
 9898SOL    HW131135   4.105   6.514   9.526  0.7601  1.0004 -0.2328
 9898SOL    HW231136   4.051   6.630   9.445 -0.4252 -0.5121 -1.6805
 9899SOL     OW31137   3.689   3.162  11.248  0.3646  0.4137 -0.4577
 9899SOL    HW131138   3.765   3.218  11.264 -0.8112  2.6020 -2.0733
 9899SOL    HW231139   3.715   3.110  11.172  2.0636 -2.6243  1.9472
 9900SOL     OW31140   1.441   3.808  10.411 -0.0388 -0.6878 -0.4973
 9900SOL    HW131141   1.438   3.771  10.499  1.7507  0.0289 -0.0825
 9900SOL    HW231142   1.474   3.737  10.356  0.8733 -0.5282 -0.1787
 9901SOL     OW31143   6.658   3.268   6.968 -0.3195 -0.4727 -0.0437
 9901SOL    HW131144   6.715   3.280   7.044 -0.0084 -0.2125 -0.3097
 9901SOL    HW231145   6.616   3.353   6.956 -0.5254 -0.5733 -0.0379
 9902SOL     OW31146   5.877   5.481   5.964  0.5528 -0.3043 -0.2923
 9902SOL    HW131147   5.957   5.532   5.961 -0.2732  1.1158  0.8016
 9902SOL    HW231148   5.845   5.490   6.054 -0.4356 -1.4802 -0.4917
 9903SOL     OW31149   2.801   6.562   3.681  0.7702  0.6783  0.1174
 9903SOL    HW131150   2.719   6.585   3.637  0.1755 -2.2963 -0.5364
 9903SOL    HW231151   2.775   6.538   3.770  0.8754 -0.5613 -0.1786
 9904SOL     OW31152   1.803   7.413   8.187 -0.0432 -0.1081  0.2120
 9904SOL    HW131153   1.821   7.372   8.103 -0.4626 -0.5916  0.3457
 9904SOL    HW231154   1.793   7.506   8.168  1.0076 -0.0529 -0.0902
 9905SOL     OW31155   5.122   6.205  10.782  0.0318 -0.5983  0.0786
 9905SOL    HW131156   5.038   6.158  10.776 -0.2993  0.1525 -1.8319
 9905SOL    HW231157   5.184   6.150  10.734 -0.0197  0.1520 -0.8798
 9906SOL     OW31158   3.299   4.728   5.087 -0.1532  0.1383 -0.6568
 9906SOL    HW131159   3.209   4.751   5.062  0.0800  1.3800 -0.3854
 9906SOL    HW231160   3.305   4.634   5.068 -0.6822  0.5384 -3.1544
 9907SOL     OW31161   7.199   7.015   2.174  0.7056 -0.1954  0.1807
 9907SOL    HW131162   7.241   6.958   2.239 -0.1796 -0.6850  0.3247
 9907SOL    HW231163   7.118   6.971   2.151  0.9044  0.0786 -1.1205
 9908SOL     OW31164   1.061   2.537  11.763 -0.3763  0.2907  0.0129
 9908SOL    HW131165   0.976   2.519  11.723 -0.8048 -0.1769  1.0909
 9908SOL    HW231166   1.111   2.456  11.750 -0.6705 -0.0242  0.7814
 9909SOL     OW31167   1.923   3.143   5.004 -0.4611 -0.5342  0.3620
 9909SOL    HW131168   1.945   3.183   5.088 -1.7174  1.7762 -0.3139
 9909SOL    HW231169   2.007   3.135   4.959 -0.1255  1.7851  0.4212
 9910SOL     OW31170   2.374   5.374   1.275 -0.8656 -0.0821  0.0970
 9910SOL    HW131171   2.448   5.345   1.223 -0.7895  0.7164 -0.2659
 9910SOL    HW231172   2.412   5.430   1.342 -1.0989  0.0216  0.1456
 9911SOL     OW31173   7.064   0.589   0.543  0.1005 -0.0976  0.0896
 9911SOL    HW131174   7.139   0.611   0.488 -0.1868 -1.1511 -0.7571
 9911SOL    HW231175   6.989   0.625   0.496  0.0524  1.0626  0.9957
 9912SOL     OW31176   4.599   1.784   5.091  0.0177  0.4033  0.1630
 9912SOL    HW131177   4.645   1.850   5.039  0.2169  0.6716  0.6712
 9912SOL    HW231178   4.668   1.739   5.139  0.0143 -1.0076 -1.0849
 9913SOL     OW31179   7.752   2.896   3.208 -0.3235  0.0689 -0.3773
 9913SOL    HW131180   7.806   2.969   3.238  0.8590  0.1036 -2.4057
 9913SOL    HW231181   7.800   2.860   3.134 -1.6742 -1.7888 -0.4133
 9914SOL     OW31182   0.108   1.758   3.210  0.3572 -0.1707  1.1088
 9914SOL    HW131183   0.041   1.816   3.248 -1.1796 -2.0847  1.4937
 9914SOL    HW231184   0.065   1.718   3.135  1.1547 -1.2798  1.2292
 9915SOL     OW31185   4.459   3.164   5.318  0.0899 -0.2728 -0.2429
 9915SOL    HW131186   4.463   3.196   5.408  0.1599  1.0974 -0.7075
 9915SOL    HW231187   4.537   3.201   5.276 -0.3588 -0.2270 -1.0634
 9916SOL     OW31188   6.921   4.200  11.746 -0.1115  0.0025 -0.4218
 9916SOL    HW131189   6.994   4.151  11.709  0.1410 -0.1195  0.2308
 9916SOL    HW231190   6.897   4.152  11.825 -1.8125 -0.7525 -1.3344
 9917SOL     OW31191   4.819   2.392   8.191 -0.2329  0.9924  0.3886
 9917SOL    HW131192   4.797   2.483   8.173  0.5708  0.8331 -1.7515
 9917SOL    HW231193   4.744   2.342   8.160  0.0999  0.8434 -0.1956
 9918SOL     OW31194   3.257   0.211  11.940 -0.4416 -0.2571 -0.3662
 9918SOL    HW131195   3.308   0.262  12.003  0.5156 -1.8272  0.1908
 9918SOL    HW231196   3.306   0.218  11.858  0.0336 -0.7659 -0.1339
 9919SOL     OW31197   5.035   6.928   9.250  0.2385  0.0574  0.8478
 9919SOL    HW131198   4.957   6.955   9.299 -0.3527 -1.6371  0.9258
 9919SOL    HW231199   5.041   6.833   9.265  0.5241 -0.3993 -1.6609
 9920SOL     OW31200   7.101   1.662  10.797 -0.3745 -0.1014 -0.3761
 9920SOL    HW131201   7.138   1.574  10.793 -0.2202 -0.2054  1.9806
 9920SOL    HW231202   7.111   1.688  10.888 -1.1078  2.0771 -0.8614
 9921SOL     OW31203   2.835   4.636  10.683  0.1698  0.1885 -0.8170
 9921SOL    HW131204   2.778   4.574  10.729  1.9557 -0.5911  0.4632
 9921SOL    HW231205   2.845   4.709  10.744  1.0953 -0.0099 -0.7260
 9922SOL     OW31206   2.907   5.077  11.495 -0.5459  0.4126 -0.2518
 9922SOL    HW131207   2.844   5.004  11.498 -0.6152  0.4745 -0.2012
 9922SOL    HW231208   2.942   5.082  11.583  0.3395 -0.3261 -0.5484
 9923SOL     OW31209   5.742   7.089  10.732 -0.2037 -0.7738 -0.0104
 9923SOL    HW131210   5.796   7.023  10.690  0.0761  0.7973 -2.3081
 9923SOL    HW231211   5.664   7.095  10.677  0.1763  1.3771 -0.4090
 9924SOL     OW31212   4.590   6.531   0.057 -0.3533  0.6154 -0.0627
 9924SOL    HW131213   4.559   6.445   0.085 -0.0076 -0.4273 -2.6032
 9924SOL    HW231214   4.510   6.581   0.040 -0.5691  0.2329 -0.1805
 9925SOL     OW31215   4.122   1.638  11.392  0.8312 -0.1868 -0.0984
 9925SOL    HW131216   4.188   1.695  11.431  0.5586  0.9132 -1.1871
 9925SOL    HW231217   4.076   1.601  11.466  1.3123  0.6634  0.6478
 9926SOL     OW31218   1.906   7.843   3.491  0.1449  0.6372  0.7793
 9926SOL    HW131219   1.920   7.806   3.404  1.2147  0.4511  1.0159
 9926SOL    HW231220   1.969   7.915   3.497 -1.9332  2.6264  0.3036
 9927SOL     OW31221   4.545   6.437   0.781  0.3295  0.0750 -0.3662
 9927SOL    HW131222   4.566   6.347   0.808  0.0306 -0.3010 -1.3066
 9927SOL    HW231223   4.622   6.466   0.733  0.8680  0.7420  0.8855
 9928SOL     OW31224   1.045   6.710   6.668 -0.5852  0.5652 -0.5147
 9928SOL    HW131225   1.126   6.728   6.621 -1.9934  1.1468 -2.9184
 9928SOL    HW231226   1.028   6.618   6.653  0.6723 -0.1453  1.8890
 9929SOL     OW31227   7.220   2.499   2.237  0.8781 -0.1175  0.0536
 9929SOL    HW131228   7.218   2.530   2.146 -2.6041  0.5341  0.2331
 9929SOL    HW231229   7.290   2.551   2.278  1.2462  0.9465 -1.7911
 9930SOL     OW31230   3.269   4.997  11.799 -0.6294  0.1612  0.2227
 9930SOL    HW131231   3.178   5.011  11.771 -0.8303  1.2613  1.3210
 9930SOL    HW231232   3.303   5.085  11.815  0.3358 -0.2880  0.7333
 9931SOL     OW31233   6.507   0.292   7.849 -0.1007  0.2610 -0.1323
 9931SOL    HW131234   6.566   0.274   7.776 -0.2025  0.1689 -0.1930
 9931SOL    HW231235   6.558   0.347   7.908  0.3344 -0.4875  0.2142
 9932SOL     OW31236   1.535   2.453   5.892 -0.2375 -0.3305 -0.6671
 9932SOL    HW131237   1.610   2.448   5.951 -0.3439  0.0844 -0.4982
 9932SOL    HW231238   1.573   2.441   5.805 -0.3809 -3.7754 -0.3977
 9933SOL     OW31239   3.365   4.598   7.000  0.1024 -0.4609 -0.0705
 9933SOL    HW131240   3.379   4.614   7.094 -0.9639 -1.6502  0.3255
 9933SOL    HW231241   3.285   4.545   6.997  0.6843 -1.3089 -1.5943
 9934SOL     OW31242   7.483   2.213   4.433 -0.2222  0.0290  0.0966
 9934SOL    HW131243   7.558   2.261   4.400  0.2350  0.1550  1.2620
 9934SOL    HW231244   7.488   2.127   4.390 -1.6143  1.2518 -2.7793
 9935SOL     OW31245   5.997   7.169   8.497 -0.1901  0.2134  0.0106
 9935SOL    HW131246   6.030   7.256   8.521 -1.5025  1.1909 -1.5168
 9935SOL    HW231247   5.949   7.184   8.416  0.0120 -2.0611 -0.5809
 9936SOL     OW31248   5.005   0.638   5.180  0.3032  0.3202 -0.9673
 9936SOL    HW131249   5.087   0.597   5.154  0.6815  0.2477  0.2914
 9936SOL    HW231250   4.940   0.600   5.121  0.4551 -2.8481  0.6891
 9937SOL     OW31251   4.928   0.777   8.848 -0.0064  0.1743  0.5560
 9937SOL    HW131252   4.840   0.780   8.810  0.1518  0.2944  0.1992
 9937SOL    HW231253   4.968   0.700   8.809  0.9132  1.4803 -1.1997
 9938SOL     OW31254   1.287   5.367   6.654  0.3243 -0.6377  0.5119
 9938SOL    HW131255   1.223   5.322   6.711 -0.9128  1.6273  1.0476
 9938SOL    HW231256   1.234   5.401   6.582  0.8828  1.2556  0.9430
 9939SOL     OW31257   7.033   2.973   1.478 -0.3984  0.1153 -0.1614
 9939SOL    HW131258   6.985   3.006   1.553 -3.4629 -1.9335 -1.0559
 9939SOL    HW231259   7.046   3.050   1.422 -0.5959  1.1206  1.1450
 9940SOL     OW31260   3.169   6.016  10.830 -0.1467 -0.2502  0.5147
 9940SOL    HW131261   3.217   5.983  10.906  1.3756 -0.7029 -0.5966
 9940SOL    HW231262   3.092   5.960  10.824  1.3181 -2.3170 -0.0884
 9941SOL     OW31263   5.411   6.082   8.997 -0.7816 -0.3184  0.4647
 9941SOL    HW131264   5.369   5.998   9.018  1.0740 -1.7346 -1.0825
 9941SOL    HW231265   5.366   6.112   8.919 -0.5080 -0.6163  0.1901
 9942SOL     OW31266   6.749   2.290   4.707  0.2155 -0.1658 -0.0679
 9942SOL    HW131267   6.764   2.198   4.726  1.1224  0.4272  2.4746
 9942SOL    HW231268   6.821   2.336   4.750  0.7784  1.6725 -2.7279
 9943SOL     OW31269   5.265   2.461   9.197  0.1166  0.0215  0.8040
 9943SOL    HW131270   5.306   2.375   9.210 -0.0377 -0.1183  0.3747
 9943SOL    HW231271   5.181   2.455   9.243 -1.2606 -1.0982 -1.6496
 9944SOL     OW31272   3.659   4.366   3.460  0.4735  0.2027  0.2399
 9944SOL    HW131273   3.595   4.294   3.462 -0.7356  1.2534  1.0244
 9944SOL    HW231274   3.606   4.443   3.439  1.7847  0.8502 -0.8400
 9945SOL     OW31275   1.776   7.127   3.764 -0.1827 -0.4624 -0.3950
 9945SOL    HW131276   1.717   7.101   3.694 -1.3133 -1.6672  0.9657
 9945SOL    HW231277   1.824   7.047   3.786  0.0984 -0.1217  0.2562
 9946SOL     OW31278   5.971   6.423   8.096  0.3850  0.0262  0.3374
 9946SOL    HW131279   5.932   6.445   8.012 -1.2426  1.3632  1.3671
 9946SOL    HW231280   5.928   6.341   8.122 -1.4123  1.1574  1.1680
 9947SOL     OW31281   0.047   6.903   4.010  0.4128 -0.3502 -0.2086
 9947SOL    HW131282  -0.000   6.940   4.085 -2.6139  0.6971 -2.4331
 9947SOL    HW231283   0.104   6.974   3.980  1.2189 -0.5882  0.6989
 9948SOL     OW31284   5.970   4.306   5.125  0.2094 -0.4127  0.7612
 9948SOL    HW131285   6.036   4.237   5.134  1.9277  1.1025  0.4358
 9948SOL    HW231286   5.892   4.261   5.092  1.6241 -2.0304 -0.5769
 9949SOL     OW31287   1.603   0.172   3.856  0.4232 -0.0203 -0.2853
 9949SOL    HW131288   1.662   0.245   3.839  0.0366  0.2314 -0.5728
 9949SOL    HW231289   1.539   0.177   3.785  0.6926 -0.9523 -0.6066
 9950SOL     OW31290   3.638   1.953   2.926  0.7314 -0.9571 -0.0467
 9950SOL    HW131291   3.675   1.909   3.003  2.0171  0.1607  0.0049
 9950SOL    HW231292   3.583   2.022   2.963  1.8908  0.0191 -0.1062
 9951SOL     OW31293   2.614   7.306   8.168 -0.3014  0.6380  0.8977
 9951SOL    HW131294   2.630   7.377   8.106  0.2048 -1.9429 -2.2089
 9951SOL    HW231295   2.551   7.249   8.124  1.1161 -2.0699  2.0891
 9952SOL     OW31296   3.163   0.670   3.461 -0.0655  0.4702  0.3656
 9952SOL    HW131297   3.231   0.701   3.401 -1.3118 -0.8027 -1.8659
 9952SOL    HW231298   3.106   0.745   3.474  0.4371  0.8729  0.2567
 9953SOL     OW31299   1.974   2.367   9.119  0.0660  0.1953  0.0987
 9953SOL    HW131300   1.908   2.334   9.058 -2.6532 -0.2654  3.0433
 9953SOL    HW231301   1.987   2.459   9.093 -0.7434 -0.0715 -1.3342
 9954SOL     OW31302   2.292   2.697   4.650  0.3817  0.1339  0.2168
 9954SOL    HW131303   2.203   2.671   4.627  0.7519 -0.0728 -1.0499
 9954SOL    HW231304   2.281   2.762   4.720 -0.7117 -0.5604  0.7181
 9955SOL     OW31305   7.085   0.410  10.273 -0.3296  0.4594 -0.3109
 9955SOL    HW131306   7.151   0.474  10.245 -0.3763  0.4052 -0.5453
 9955SOL    HW231307   7.036   0.389  10.193  1.6228 -2.1838 -0.9642
 9956SOL     OW31308   1.835   6.599   5.171  0.0784 -0.0750 -0.3288
 9956SOL    HW131309   1.780   6.677   5.163 -1.1765 -1.0485 -1.9026
 9956SOL    HW231310   1.915   6.622   5.123  0.3385  0.7192  0.4463
 9957SOL     OW31311   5.432   6.402   3.781 -0.4267  0.6413  0.9623
 9957SOL    HW131312   5.390   6.316   3.779  0.0957  0.3743 -1.6714
 9957SOL    HW231313   5.509   6.393   3.725 -0.2189  2.7581  0.8094
 9958SOL     OW31314   2.948   1.558   0.947 -0.0542 -0.3958  0.5679
 9958SOL    HW131315   3.019   1.617   0.972  0.6296 -0.8394 -0.2672
 9958SOL    HW231316   2.916   1.593   0.864  0.7218 -1.4734 -0.2192
 9959SOL     OW31317   5.472   7.734   8.588 -0.3599 -0.0454 -0.4836
 9959SOL    HW131318   5.430   7.818   8.571  0.7267  0.7483  0.6287
 9959SOL    HW231319   5.554   7.737   8.541  0.5255  0.2920  1.0166
 9960SOL     OW31320   4.225   0.857   1.707 -0.1457 -0.0269 -0.4704
 9960SOL    HW131321   4.286   0.791   1.673  0.8318  0.8881 -0.5647
 9960SOL    HW231322   4.156   0.862   1.642 -0.6550 -1.5127 -0.0748
 9961SOL     OW31323   0.968   0.473  10.019 -0.5374  0.5904 -0.2711
 9961SOL    HW131324   1.045   0.434  10.059  0.0266  1.3188 -0.6136
 9961SOL    HW231325   0.923   0.400   9.977  0.5098  0.2923 -0.9212
 9962SOL     OW31326   0.569   2.464   1.222  0.4752 -0.1325  0.1102
 9962SOL    HW131327   0.652   2.427   1.253  0.0741 -1.1062  0.0408
 9962SOL    HW231328   0.503   2.431   1.283  0.1504  0.7861  0.2759
 9963SOL     OW31329   6.435   2.165   0.038 -0.3410 -0.0358 -0.5201
 9963SOL    HW131330   6.343   2.152   0.014 -0.7359  1.5442  0.0116
 9963SOL    HW231331   6.432   2.185   0.132  0.2728  2.4417 -0.9767
 9964SOL     OW31332   4.789   3.050   4.734  0.1478 -0.2350  0.4737
 9964SOL    HW131333   4.791   3.143   4.712  2.1628 -0.6172 -1.3302
 9964SOL    HW231334   4.871   3.035   4.781 -0.7220 -0.9233  1.8627
 9965SOL     OW31335   5.578   6.041   2.459  0.3156 -0.2004  0.2041
 9965SOL    HW131336   5.563   6.063   2.367  1.3661  1.8543  0.4746
 9965SOL    HW231337   5.490   6.023   2.493 -0.2254  0.1992 -0.9215
 9966SOL     OW31338   7.152   5.006   5.070  0.1626  0.5343 -0.2915
 9966SOL    HW131339   7.076   4.954   5.045  0.6622 -0.3693  0.0545
 9966SOL    HW231340   7.192   4.959   5.143  0.6876  1.3426 -0.0374
 9967SOL     OW31341   3.023   1.310   2.168 -0.3498 -0.0839 -0.2706
 9967SOL    HW131342   3.103   1.345   2.208  0.1701  0.1331 -1.4403
 9967SOL    HW231343   2.953   1.367   2.199 -0.2816 -0.9852  1.7381
 9968SOL     OW31344   2.140   7.025   6.766 -0.4649 -0.2331 -0.5612
 9968SOL    HW131345   2.076   7.019   6.838 -1.2298 -3.6843 -1.3762
 9968SOL    HW231346   2.225   7.022   6.810 -0.9148 -1.0310  0.2944
 9969SOL     OW31347   0.538   2.907   4.066  0.5036  0.3239  0.0364
 9969SOL    HW131348   0.633   2.917   4.064  0.5187  0.5009  1.2145
 9969SOL    HW231349   0.511   2.950   4.147 -0.4371 -0.8942  0.4008
 9970SOL     OW31350   4.926   2.074  10.862  0.2972 -0.0087 -0.1358
 9970SOL    HW131351   4.943   2.001  10.803 -3.0599 -1.0504 -0.0231
 9970SOL    HW231352   4.909   2.032  10.947 -0.2121  1.0472  0.2986
 9971SOL     OW31353   0.519   4.047   9.327  0.3681  0.3274 -0.5564
 9971SOL    HW131354   0.494   3.982   9.262 -0.5665  1.0171 -0.9062
 9971SOL    HW231355   0.613   4.057   9.316  0.7377 -1.7126  0.2196
 9972SOL     OW31356   6.589   5.156   7.968  0.0587 -0.1110 -0.4978
 9972SOL    HW131357   6.574   5.244   7.934 -1.4553 -0.0896  0.1522
 9972SOL    HW231358   6.555   5.098   7.899 -0.3747 -0.1305 -0.2758
 9973SOL     OW31359   6.556   2.953   0.472 -0.0424 -0.3009 -0.2425
 9973SOL    HW131360   6.619   3.002   0.527 -0.0001 -0.7103  0.0764
 9973SOL    HW231361   6.607   2.924   0.397  0.1556 -0.6419  0.0218
 9974SOL     OW31362   5.413   0.965   2.940 -1.0164 -0.1574 -0.0631
 9974SOL    HW131363   5.366   0.900   2.886 -1.3845  1.6311 -2.0239
 9974SOL    HW231364   5.505   0.950   2.921 -1.0856 -0.2911 -0.2949
 9975SOL     OW31365   5.278   1.274   4.616 -0.3308  0.7192  0.8857
 9975SOL    HW131366   5.194   1.310   4.586 -0.2232 -0.3219 -0.8377
 9975SOL    HW231367   5.339   1.347   4.611 -0.0216  0.4233 -2.9351
 9976SOL     OW31368   5.418   7.103   7.671  0.7883 -0.1329 -0.0950
 9976SOL    HW131369   5.358   7.032   7.649  0.8990 -0.2330 -0.0771
 9976SOL    HW231370   5.366   7.163   7.725  0.5838 -0.0052 -0.4261
 9977SOL     OW31371   7.825   5.711   5.862  0.2020  0.6784  0.0329
 9977SOL    HW131372   7.831   5.733   5.769  1.0169  1.7521  0.3172
 9977SOL    HW231373   7.894   5.648   5.877  0.7279  1.2579  0.0992
 9978SOL     OW31374   3.255   1.956   9.002  0.4282  0.3480 -0.0429
 9978SOL    HW131375   3.255   2.042   9.044  0.5015  0.9170 -1.1787
 9978SOL    HW231376   3.220   1.972   8.914  0.1549 -0.8370 -0.1637
 9979SOL     OW31377   4.227   7.438  10.798 -0.0121 -0.0091 -0.2154
 9979SOL    HW131378   4.237   7.507  10.864 -2.7460  0.3128 -0.0419
 9979SOL    HW231379   4.148   7.462  10.750 -0.4202 -2.4536 -0.8665
 9980SOL     OW31380   0.705   7.827   3.128 -0.0492 -0.0862  0.2878
 9980SOL    HW131381   0.682   7.749   3.079  1.8264 -0.5174  0.0067
 9980SOL    HW231382   0.703   7.801   3.220  1.3394 -0.7389  0.1626
 9981SOL     OW31383   7.497   0.594   1.036  0.3929 -0.4581 -0.2653
 9981SOL    HW131384   7.554   0.622   1.108 -0.2011 -0.2549  0.1391
 9981SOL    HW231385   7.489   0.671   0.980  1.3671 -0.8072 -0.8967
 9982SOL     OW31386   3.129   4.850  12.069  0.0631  0.6029  0.0370
 9982SOL    HW131387   3.209   4.879  12.026  0.7819 -0.1044  0.8764
 9982SOL    HW231388   3.093   4.930  12.108  0.2228  0.9653 -0.5458
 9983SOL     OW31389   5.140   2.350   2.173 -0.3846  0.0609  0.1297
 9983SOL    HW131390   5.155   2.406   2.097  0.7784  1.4428  1.3176
 9983SOL    HW231391   5.047   2.328   2.169 -0.7602  1.6514 -0.6737
 9984SOL     OW31392   7.360   1.680   1.131 -0.4296 -0.0899  0.5067
 9984SOL    HW131393   7.311   1.708   1.053  1.6580 -1.8120 -1.5827
 9984SOL    HW231394   7.361   1.584   1.125 -1.8241 -0.4340  3.7979
 9985SOL     OW31395   3.132   1.700   4.500 -0.3883 -0.0059 -0.4501
 9985SOL    HW131396   3.188   1.722   4.574 -0.6865  0.5085 -0.3731
 9985SOL    HW231397   3.100   1.612   4.518 -1.1122  0.4283  0.4378
 9986SOL     OW31398   0.865   1.325   9.116  0.4886  0.1971 -0.0158
 9986SOL    HW131399   0.912   1.310   9.199  2.5967 -0.3275 -1.2147
 9986SOL    HW231400   0.857   1.420   9.110 -0.9287  0.1957  1.4083
 9987SOL     OW31401   6.119   2.978  12.381  0.4842  0.6354 -0.2343
 9987SOL    HW131402   6.098   2.886  12.397  0.2640  0.6160 -0.6263
 9987SOL    HW231403   6.215   2.982  12.389  0.3827  0.6526  1.1727
 9988SOL     OW31404   3.337   6.242   9.149  0.4679  0.3467 -0.7903
 9988SOL    HW131405   3.433   6.246   9.152  0.4916  0.0089 -1.0151
 9988SOL    HW231406   3.308   6.308   9.213  0.8628 -1.7032  1.6764
 9989SOL     OW31407   0.705   0.250  11.488  0.4165  0.0071  0.4242
 9989SOL    HW131408   0.674   0.161  11.504 -0.4692  0.4316  1.0900
 9989SOL    HW231409   0.733   0.282  11.573  0.1506  0.5916  0.2960
 9990SOL     OW31410   1.040   3.060  12.325  0.5567 -0.0993 -1.0078
 9990SOL    HW131411   1.060   3.103  12.408 -0.7968 -2.0261  0.4174
 9990SOL    HW231412   1.055   3.127  12.259  0.4706  1.9030  0.8910
 9991SOL     OW31413   4.909   1.102   3.361  0.4635 -0.3197 -0.0185
 9991SOL    HW131414   4.943   1.020   3.325 -0.5066 -1.4839  1.5980
 9991SOL    HW231415   4.986   1.145   3.399  0.7332 -1.2503  0.5190
 9992SOL     OW31416   0.608   0.030   1.386  0.0463 -0.4963  0.3214
 9992SOL    HW131417   0.670   0.007   1.317 -0.5674 -2.7743  0.4259
 9992SOL    HW231418   0.522   0.030   1.342 -0.2530 -1.1328  0.8762
 9993SOL     OW31419   1.812   7.229   2.951 -0.4105  0.2863 -0.1333
 9993SOL    HW131420   1.753   7.273   2.890  0.9559  0.5992 -1.2911
 9993SOL    HW231421   1.898   7.266   2.932  0.3678 -1.0380  0.6491
 9994SOL     OW31422   2.670   5.954   1.039 -0.0275 -0.0574  0.2429
 9994SOL    HW131423   2.694   5.894   0.969 -0.1108  1.3295 -1.0100
 9994SOL    HW231424   2.582   5.925   1.066 -0.4504  0.0571 -0.9791
 9995SOL     OW31425   1.628   1.255  11.210 -0.0048 -0.4013 -0.2519
 9995SOL    HW131426   1.555   1.316  11.224 -0.8024 -1.1341 -1.0626
 9995SOL    HW231427   1.678   1.258  11.292 -0.6252  0.5398  0.1121
 9996SOL     OW31428   2.922   1.723   1.640 -0.1893 -0.0237  0.0163
 9996SOL    HW131429   2.868   1.765   1.707 -0.0084 -0.8901  0.7256
 9996SOL    HW231430   2.910   1.629   1.655 -1.2019 -0.2723 -2.0216
 9997SOL     OW31431   2.884   2.848   6.177 -0.0505  0.3149  0.1432
 9997SOL    HW131432   2.808   2.826   6.229 -0.1893 -0.5641 -0.4156
 9997SOL    HW231433   2.956   2.854   6.240 -0.0802 -1.3961  0.3666
 9998SOL     OW31434   4.802   3.128   0.428 -0.2290 -0.2057  0.1073
 9998SOL    HW131435   4.788   3.214   0.466 -0.1537  0.3648 -1.1326
 9998SOL    HW231436   4.897   3.121   0.417 -0.0791 -1.0784  1.5886
 9999SOL     OW31437   4.023   1.678   3.847 -0.4070  0.1639 -0.4814
 9999SOL    HW131438   4.022   1.769   3.877 -0.0340  0.3124 -0.9175
 9999SOL    HW231439   4.102   1.670   3.795 -1.9681  0.4349 -3.0422
10000SOL     OW31440   4.698   5.356   8.856  1.2173  0.2074 -0.6563
10000SOL    HW131441   4.678   5.264   8.837  1.6251 -0.5006  1.9796
10000SOL    HW231442   4.616   5.392   8.889  1.1621  0.7287 -1.3300
10001SOL     OW31443   1.378   6.044   5.286  0.1585 -0.7697  0.6753
10001SOL    HW131444   1.313   5.993   5.237  0.6808 -1.7536  0.9707
10001SOL    HW231445   1.411   6.108   5.222 -1.8650  0.5209  0.8253
10002SOL     OW31446   5.871   1.099   8.943  0.0344  0.3885 -0.0188
10002SOL    HW131447   5.842   1.022   8.991  0.1160  0.9179  0.9186
10002SOL    HW231448   5.896   1.067   8.857  2.3563 -1.0529  1.0956
10003SOL     OW31449   7.809   0.110   9.483  0.2699  0.5443 -0.5157
10003SOL    HW131450   7.776   0.191   9.523 -1.5475 -0.0214 -0.7762
10003SOL    HW231451   7.903   0.110   9.503  0.0561  2.0119  0.6905
10004SOL     OW31452   5.302   4.824   5.421  0.3841  0.1017 -0.2059
10004SOL    HW131453   5.232   4.813   5.358 -0.1423  0.6681  0.2663
10004SOL    HW231454   5.355   4.744   5.414  1.4039  0.9168 -2.6460
10005SOL     OW31455   6.953   3.185   5.204 -0.2157  0.9594 -0.3384
10005SOL    HW131456   6.881   3.192   5.267  1.0023  2.6515  0.9816
10005SOL    HW231457   6.998   3.104   5.228 -0.7463  0.7303 -0.1051
10006SOL     OW31458   6.115   3.267   1.920 -0.2963 -0.1201 -0.2670
10006SOL    HW131459   6.156   3.230   1.841  0.3288 -0.6849  0.3097
10006SOL    HW231460   6.024   3.284   1.894  0.5050  2.1174 -1.8878
10007SOL     OW31461   0.840   4.321   2.208  0.2843 -0.1565 -0.1456
10007SOL    HW131462   0.875   4.390   2.152 -1.0209  0.6702  0.0190
10007SOL    HW231463   0.753   4.302   2.172 -0.3475 -0.0119  1.2152
10008SOL     OW31464   3.188   5.963   4.287 -0.3430 -0.1528  0.3900
10008SOL    HW131465   3.147   5.927   4.208 -0.7268  0.1542  0.4413
10008SOL    HW231466   3.233   6.042   4.256 -1.2581  0.4751  0.6226
10009SOL     OW31467   4.575   0.488   7.890  0.3844  0.4599  0.0754
10009SOL    HW131468   4.496   0.457   7.847  0.7862  1.2464 -1.3136
10009SOL    HW231469   4.626   0.409   7.907 -0.2959  0.0327  0.1693
10010SOL     OW31470   0.887   5.042   8.326  1.0389 -0.3426 -0.2005
10010SOL    HW131471   0.856   4.952   8.330  1.5925 -0.5233  0.1656
10010SOL    HW231472   0.878   5.076   8.415  0.2177  0.1871 -0.4686
10011SOL     OW31473   2.248   5.967   9.429 -0.2199 -0.0662 -0.5484
10011SOL    HW131474   2.279   5.901   9.367 -0.8145 -0.7681 -0.1108
10011SOL    HW231475   2.322   5.982   9.488 -0.2892 -0.7891 -0.2792
10012SOL     OW31476   1.454   5.599   3.161  0.3568  0.2300 -0.0860
10012SOL    HW131477   1.441   5.599   3.066 -0.5909 -0.4153  0.0291
10012SOL    HW231478   1.378   5.552   3.195  1.4568 -0.9002  0.8872
10013SOL     OW31479   4.066   5.626   5.986 -0.5225  0.1069 -0.1058
10013SOL    HW131480   3.973   5.612   6.006 -0.7709  1.6419 -0.0246
10013SOL    HW231481   4.091   5.701   6.041  0.1206  1.2060 -1.8031
10014SOL     OW31482   7.616   4.983  10.967 -0.1552  0.0884  0.4413
10014SOL    HW131483   7.598   4.937  11.049  0.0234 -2.3202 -0.7983
10014SOL    HW231484   7.701   4.949  10.939  0.0743  1.3391 -0.4507
10015SOL     OW31485   3.587   4.082   0.334  0.2899  0.5063 -0.5773
10015SOL    HW131486   3.616   4.046   0.418  0.4056  1.0724 -0.3694
10015SOL    HW231487   3.664   4.127   0.299  0.8616 -1.4441 -1.9697
10016SOL     OW31488   0.705   7.197  12.161  0.3986  0.4097  0.0247
10016SOL    HW131489   0.730   7.122  12.107 -0.4798  1.5410 -2.0608
10016SOL    HW231490   0.633   7.165  12.215 -0.2198 -0.1588 -1.1119
10017SOL     OW31491   0.957   6.016  11.816  0.6802 -0.2770  0.3070
10017SOL    HW131492   0.946   5.941  11.756  0.4858  0.4116 -0.5368
10017SOL    HW231493   1.050   6.015  11.838  0.5503 -1.2073  0.9102
10018SOL     OW31494   4.859   7.394   1.975 -0.3667 -0.2738 -0.2417
10018SOL    HW131495   4.830   7.319   1.923 -0.5656 -0.3249 -0.0583
10018SOL    HW231496   4.778   7.439   1.999 -0.2478 -0.0134 -0.3339
10019SOL     OW31497   2.033   4.554   9.224  0.8252  0.2118  0.4981
10019SOL    HW131498   1.962   4.521   9.169 -1.8141  1.1780  3.0785
10019SOL    HW231499   2.010   4.645   9.241  3.4754  0.9959  0.3894
10020SOL     OW31500   0.056   3.609   1.426 -0.7599 -0.0138 -0.1863
10020SOL    HW131501   0.128   3.660   1.462 -0.0593 -0.7206 -0.5530
10020SOL    HW231502  -0.020   3.668   1.430 -0.0534  0.9254 -0.2868
10021SOL     OW31503   1.083   1.604   1.047 -0.0717 -0.6289 -0.3425
10021SOL    HW131504   1.109   1.524   1.001  1.4448 -0.4169  0.0978
10021SOL    HW231505   1.157   1.624   1.104 -0.4209  1.0996 -0.4415
10022SOL     OW31506   6.151   7.796   8.021 -0.2318 -0.2957  0.1632
10022SOL    HW131507   6.188   7.711   8.044 -2.1356 -0.6999  2.0220
10022SOL    HW231508   6.160   7.849   8.101  0.3081  1.0601 -0.7488
10023SOL     OW31509   5.763   4.247  11.278  0.1690 -0.1912  0.0962
10023SOL    HW131510   5.844   4.294  11.297  0.0614 -0.3652  1.0737
10023SOL    HW231511   5.719   4.300  11.212 -0.2162  1.4382  1.5795
10024SOL     OW31512   4.415   2.026  10.982  0.1247 -0.1149  0.8178
10024SOL    HW131513   4.373   2.060  11.062  1.3698  1.1382  0.9801
10024SOL    HW231514   4.397   1.932  10.983 -1.6078  0.1808  1.5124
10025SOL     OW31515   6.096   3.366   0.280  0.2585 -0.3022 -0.5873
10025SOL    HW131516   6.170   3.407   0.235  1.0811 -0.2781  0.7121
10025SOL    HW231517   6.132   3.342   0.366 -1.3854  0.2166  0.2841
10026SOL     OW31518   6.907   4.291   3.106 -0.0342 -0.1502 -0.0180
10026SOL    HW131519   6.877   4.350   3.037 -2.1806  1.4872  2.1529
10026SOL    HW231520   6.988   4.332   3.137 -0.0043  0.0841 -0.3853
10027SOL     OW31521   0.154   5.277   1.118 -0.2651  0.4993  0.3356
10027SOL    HW131522   0.163   5.355   1.062  0.0415  0.6906  0.6491
10027SOL    HW231523   0.077   5.231   1.083  0.0785  0.4802 -0.4085
10028SOL     OW31524   2.595   2.649   5.869 -0.5877 -0.3576 -0.0545
10028SOL    HW131525   2.604   2.694   5.953  1.4136 -1.1207  0.1915
10028SOL    HW231526   2.663   2.687   5.814 -2.0638  0.3545 -1.4993
10029SOL     OW31527   1.494   1.369   2.971 -0.1628  0.3527 -0.0918
10029SOL    HW131528   1.590   1.365   2.961 -0.3641 -1.0119 -1.9611
10029SOL    HW231529   1.462   1.292   2.925 -2.2421  1.1883 -0.1420
10030SOL     OW31530   7.966   4.388   3.337  0.0842 -0.2124  0.3516
10030SOL    HW131531   8.019   4.438   3.275  0.1099  0.6879  1.0643
10030SOL    HW231532   7.890   4.360   3.288  0.6947 -0.5890 -0.4028
10031SOL     OW31533   3.277   1.005  10.228  0.7246  0.5852 -0.0116
10031SOL    HW131534   3.249   0.939  10.165 -0.4148 -0.5293  1.5890
10031SOL    HW231535   3.206   1.009  10.292  1.1927  2.7163  0.4538
10032SOL     OW31536   1.444   2.751   3.085  0.0609  0.5377  0.1344
10032SOL    HW131537   1.457   2.664   3.123 -0.8042  0.5432  0.4752
10032SOL    HW231538   1.529   2.794   3.093  0.6898 -0.5078 -0.6766
10033SOL     OW31539   7.777   6.729   4.152 -0.5668 -0.5591  0.5091
10033SOL    HW131540   7.795   6.698   4.063  0.8627  0.6024  0.3590
10033SOL    HW231541   7.720   6.804   4.141 -0.9223 -0.8099  0.6225
10034SOL     OW31542   1.023   6.393   1.186  0.9169 -0.4676  0.5096
10034SOL    HW131543   0.982   6.311   1.158  1.7474 -1.4004  1.8895
10034SOL    HW231544   1.095   6.365   1.243 -0.2849  1.2777  3.0506
10035SOL     OW31545   3.501   5.398   4.151 -0.2958 -0.4181 -0.0143
10035SOL    HW131546   3.418   5.387   4.198 -1.4330  0.6768 -1.6622
10035SOL    HW231547   3.503   5.323   4.091 -0.4254 -0.0970 -0.4236
10036SOL     OW31548   6.205   5.237   3.340  0.3816 -0.3294  0.1283
10036SOL    HW131549   6.299   5.221   3.348  0.5521 -0.2965 -1.4326
10036SOL    HW231550   6.164   5.165   3.388  1.1991 -0.8222  0.1015
10037SOL     OW31551   4.803   3.152   6.259  0.0371  0.6910  0.5416
10037SOL    HW131552   4.828   3.099   6.184 -1.5612  0.4300  0.1757
10037SOL    HW231553   4.881   3.152   6.315  1.4175  1.2683 -1.2941
10038SOL     OW31554   7.277   5.181  11.979  0.3599  0.1641 -0.0871
10038SOL    HW131555   7.320   5.109  12.026 -1.1432 -0.3665  0.5223
10038SOL    HW231556   7.261   5.247  12.047 -0.8042 -0.1305 -0.0599
10039SOL     OW31557   2.462   3.350   1.358  0.3624  0.7824  0.4922
10039SOL    HW131558   2.469   3.366   1.452  1.7086 -0.6962  0.6747
10039SOL    HW231559   2.377   3.307   1.347  1.4175 -1.7520  1.4952
10040SOL     OW31560   6.433   0.669   1.753  0.1570  0.6710  0.0019
10040SOL    HW131561   6.344   0.667   1.718 -0.1833  1.0782  0.8016
10040SOL    HW231562   6.489   0.643   1.680 -0.6851 -0.3685 -0.2987
10041SOL     OW31563   3.235   1.312   8.011 -0.1589 -0.1741  0.3744
10041SOL    HW131564   3.190   1.393   7.986  0.7219  0.0821 -0.4477
10041SOL    HW231565   3.236   1.259   7.931 -0.1546 -0.7254  0.7369
10042SOL     OW31566   4.187   5.769  11.568 -0.5856 -0.2809 -0.1151
10042SOL    HW131567   4.203   5.861  11.547 -0.0830 -0.0007  1.3757
10042SOL    HW231568   4.209   5.723  11.487  2.0976  0.6528 -0.0312
10043SOL     OW31569   7.543   5.102   5.455 -0.3353 -0.6580 -0.1094
10043SOL    HW131570   7.599   5.169   5.494  1.2321 -2.2802  0.5856
10043SOL    HW231571   7.454   5.137   5.465  0.4227  1.4307 -0.0888
10044SOL     OW31572   4.636   5.645  11.836 -0.0146  0.2994  0.2238
10044SOL    HW131573   4.687   5.694  11.901 -0.9776  1.1764  0.3354
10044SOL    HW231574   4.550   5.634  11.876  0.0978 -1.2995  0.0935
10045SOL     OW31575   0.790   2.826  10.639  0.0803 -0.1648 -0.0993
10045SOL    HW131576   0.842   2.837  10.719  1.1048  0.8090 -0.8686
10045SOL    HW231577   0.847   2.776  10.581  0.0836  0.7130 -0.8738
10046SOL     OW31578   3.656   3.721  12.312 -0.0039 -0.1461  0.3590
10046SOL    HW131579   3.590   3.671  12.360 -1.4388  0.4651 -0.9126
10046SOL    HW231580   3.731   3.724  12.372 -1.0542 -0.9703  1.7956
10047SOL     OW31581   1.056   4.465   3.831  0.5511  0.2974 -0.7968
10047SOL    HW131582   1.131   4.522   3.818 -0.9970  2.5528 -0.5345
10047SOL    HW231583   0.982   4.515   3.795 -0.9114 -1.5631 -0.5296
10048SOL     OW31584   0.067   0.016   6.049  0.1802  0.2362  0.4254
10048SOL    HW131585   0.032   0.102   6.027 -0.7610  0.0454  1.1364
10048SOL    HW231586   0.142   0.035   6.106  1.7137  0.6658 -1.5804
10049SOL     OW31587   4.866   0.356   5.789 -0.2319 -0.0856 -0.4420
10049SOL    HW131588   4.849   0.338   5.696 -0.8733  1.7817 -0.7251
10049SOL    HW231589   4.850   0.450   5.798  0.4524 -0.1221  1.4367
10050SOL     OW31590   2.167   5.872   5.440  0.0224 -0.7037 -0.1910
10050SOL    HW131591   2.120   5.886   5.522 -1.0781  1.4268 -1.1294
10050SOL    HW231592   2.113   5.810   5.391 -0.2694 -0.5520 -0.0604
10051SOL     OW31593   5.743   4.459   0.767 -0.1004  0.2404  0.0062
10051SOL    HW131594   5.749   4.451   0.672  0.3990  1.4074 -0.0802
10051SOL    HW231595   5.802   4.391   0.801 -0.4633 -0.3325 -0.5104
10052SOL     OW31596   6.017   6.136   7.422  0.5655 -0.8747 -0.2818
10052SOL    HW131597   5.964   6.195   7.475  0.6434 -1.2340  0.2047
10052SOL    HW231598   5.971   6.131   7.338  0.7165  0.1034 -0.4318
10053SOL     OW31599   5.817   4.916   2.400 -0.2799 -0.0113  0.2972
10053SOL    HW131600   5.786   4.876   2.319  0.4650  1.3799 -0.7370
10053SOL    HW231601   5.751   4.895   2.465 -1.3638 -0.4134 -0.8989
10054SOL     OW31602   5.853   6.724   5.556  0.1327  0.0714 -0.6428
10054SOL    HW131603   5.888   6.809   5.530  2.1933 -0.4851  0.0675
10054SOL    HW231604   5.851   6.728   5.652  0.7888 -0.8519 -0.5806
10055SOL     OW31605   4.295   0.392  10.698  0.1352  0.4349 -0.8484
10055SOL    HW131606   4.216   0.348  10.728  0.3105  0.9460  0.4799
10055SOL    HW231607   4.305   0.466  10.759  2.0574 -0.0827 -0.4697
10056SOL     OW31608   6.794   3.080  10.726 -0.0088  0.3827 -0.2658
10056SOL    HW131609   6.848   3.079  10.647 -0.1073 -0.8560 -0.3435
10056SOL    HW231610   6.753   3.166  10.726  0.9744  0.8724 -0.8834
10057SOL     OW31611   1.299   1.748   5.843  0.5439  0.6258 -0.2146
10057SOL    HW131612   1.271   1.797   5.766 -0.6037 -0.9701 -0.8726
10057SOL    HW231613   1.304   1.657   5.813  2.7018  0.2954  0.9099
10058SOL     OW31614   2.925   4.349  11.345  0.8295  0.2474  0.6648
10058SOL    HW131615   2.886   4.316  11.426  1.0012  0.2543  0.7520
10058SOL    HW231616   2.937   4.442  11.361 -0.2317  0.4830  0.1870
10059SOL     OW31617   4.001   4.480   9.017 -0.9781  0.0838 -0.2578
10059SOL    HW131618   3.983   4.561   8.970  1.6193 -0.0203 -1.6353
10059SOL    HW231619   4.055   4.507   9.091  1.0964 -0.4335 -1.5046
10060SOL     OW31620   1.764   6.803   1.618  0.3324  0.2068  0.3662
10060SOL    HW131621   1.796   6.765   1.700 -3.9856 -2.8753  1.0047
10060SOL    HW231622   1.715   6.881   1.645  0.6962  0.4236  0.4074
10061SOL     OW31623   1.376   4.947   1.018 -0.5988 -0.2980  0.2983
10061SOL    HW131624   1.405   4.894   1.092  0.2795 -0.7633 -0.3571
10061SOL    HW231625   1.317   4.889   0.969  2.0235 -1.5299 -1.6006
10062SOL     OW31626   4.743   2.881  12.399  0.1568  0.1614  0.2291
10062SOL    HW131627   4.776   2.868  12.311 -1.6746 -0.7065 -0.3764
10062SOL    HW231628   4.814   2.849  12.456  1.8544  1.8523 -0.8238
10063SOL     OW31629   7.373   0.116   6.085 -0.3746  0.2440  0.2464
10063SOL    HW131630   7.467   0.131   6.100 -0.1118  1.2119 -1.9969
10063SOL    HW231631   7.340   0.088   6.170  1.9525 -0.1733  1.0934
10064SOL     OW31632   5.405   4.899   6.340  0.5831  0.2537 -0.4073
10064SOL    HW131633   5.472   4.844   6.301 -1.3654 -1.0861 -2.0413
10064SOL    HW231634   5.360   4.842   6.402  0.3034  0.8253 -0.0772
10065SOL     OW31635   4.244   3.320   0.361  1.0372 -0.0511  0.1447
10065SOL    HW131636   4.334   3.322   0.328  0.4035  1.0079 -1.6903
10065SOL    HW231637   4.196   3.268   0.297  0.4307 -1.0747  1.3973
10066SOL     OW31638   2.761   1.303  10.381  0.3208 -0.3646 -0.2590
10066SOL    HW131639   2.793   1.311  10.291  0.8706  1.1080  0.0456
10066SOL    HW231640   2.671   1.335  10.377  0.3667 -0.2357 -0.2849
10067SOL     OW31641   7.719   1.574   0.518  0.0720  0.4075  0.2570
10067SOL    HW131642   7.635   1.590   0.474  0.5352 -1.0293 -1.2586
10067SOL    HW231643   7.780   1.631   0.472  0.5222 -0.9658 -0.9348
10068SOL     OW31644   3.297   0.236  10.749 -0.3560  0.4329  0.1557
10068SOL    HW131645   3.363   0.236  10.819  2.2386  1.9338 -2.0938
10068SOL    HW231646   3.290   0.144  10.723 -0.0840  0.0881  1.2211
10069SOL     OW31647   4.960   2.845   9.537  0.0683 -0.4009  0.8086
10069SOL    HW131648   5.042   2.856   9.489 -0.5534 -1.9223 -0.7109
10069SOL    HW231649   4.899   2.905   9.494 -0.1976 -0.9465  0.4118
10070SOL     OW31650   6.334   5.885   3.518  0.3853  0.5416 -0.7395
10070SOL    HW131651   6.385   5.814   3.480 -0.7926 -0.8422  0.1541
10070SOL    HW231652   6.283   5.921   3.445  1.2397  0.7024 -1.2623
10071SOL     OW31653   5.324   2.159   2.207 -0.1829 -0.4178  0.0798
10071SOL    HW131654   5.313   2.098   2.133 -0.5088  0.3930 -0.5510
10071SOL    HW231655   5.256   2.225   2.193 -0.0637 -0.1039  0.9649
10072SOL     OW31656   3.218   5.164   0.466  0.3534 -0.0388 -0.4838
10072SOL    HW131657   3.139   5.135   0.512  0.3960 -1.2149 -1.1096
10072SOL    HW231658   3.236   5.251   0.502 -0.5622 -0.2315  0.5018
10073SOL     OW31659   5.433   3.445   6.540  0.0512  0.0839  0.4068
10073SOL    HW131660   5.365   3.433   6.606  0.8196 -1.4197  0.9708
10073SOL    HW231661   5.474   3.359   6.532  3.3819  1.4009  1.7012
10074SOL     OW31662   4.696   2.907   9.014  0.5820  0.1434  0.2252
10074SOL    HW131663   4.684   2.847   8.941  0.5151  0.1851  0.2020
10074SOL    HW231664   4.638   2.980   8.996  0.0447 -0.1663  0.6659
10075SOL     OW31665   3.739   3.511   2.551 -0.0822 -0.2463  1.2519
10075SOL    HW131666   3.704   3.594   2.585  0.2059  0.1318  0.6375
10075SOL    HW231667   3.674   3.482   2.487  0.3113  0.0250  0.7271
10076SOL     OW31668   5.741   2.243   2.216 -0.0294  0.1709  0.6250
10076SOL    HW131669   5.687   2.224   2.293 -2.1973  2.8170 -0.0827
10076SOL    HW231670   5.798   2.314   2.245  0.4756 -0.1018  0.3029
10077SOL     OW31671   1.764   3.138   4.556 -0.0290  0.1333  0.5748
10077SOL    HW131672   1.809   3.081   4.619  0.1348  1.3879  1.6564
10077SOL    HW231673   1.827   3.208   4.539 -0.1379 -0.0954 -0.9059
10078SOL     OW31674   2.256   2.146  10.557 -0.0517 -0.1009  0.2330
10078SOL    HW131675   2.308   2.066  10.549  2.4313  1.3781  0.5719
10078SOL    HW231676   2.318   2.212  10.589 -2.0473  1.9225  0.1696
10079SOL     OW31677   4.447   4.166  10.622  0.2510 -0.2138  0.6488
10079SOL    HW131678   4.383   4.202  10.683 -1.9158 -1.4454 -0.7293
10079SOL    HW231679   4.425   4.072  10.618  0.4712 -0.2223 -1.7337
10080SOL     OW31680   1.162   4.582   0.098  0.1632  0.1053 -0.6066
10080SOL    HW131681   1.240   4.624   0.061  2.1956 -2.4876  0.4261
10080SOL    HW231682   1.120   4.651   0.149  0.1430  2.3398 -3.3861
10081SOL     OW31683   5.265   1.840   5.394  0.1167  0.3496 -0.1668
10081SOL    HW131684   5.295   1.869   5.308 -0.5750 -1.1545 -0.9564
10081SOL    HW231685   5.278   1.745   5.392  0.1997  0.3102  1.4467
10082SOL     OW31686   2.096   7.705   4.517  0.3382 -0.0789  0.1200
10082SOL    HW131687   2.054   7.691   4.432 -0.3846  3.0009 -0.1398
10082SOL    HW231688   2.190   7.692   4.500  0.2585  0.9795 -1.3292
10083SOL     OW31689   5.786   1.484   9.231  0.3492  0.0107 -0.0537
10083SOL    HW131690   5.825   1.423   9.169 -2.4307 -0.1934 -1.7593
10083SOL    HW231691   5.840   1.563   9.224  1.8042 -0.9877 -0.5369
10084SOL     OW31692   4.966   0.700   7.659 -0.2931 -0.2000  0.0800
10084SOL    HW131693   4.916   0.705   7.578  1.1647  0.7364 -0.8182
10084SOL    HW231694   5.041   0.757   7.644  0.7969 -1.1681  1.5326
10085SOL     OW31695   7.280   2.308   9.329 -0.7007  0.1618 -0.1910
10085SOL    HW131696   7.226   2.362   9.271 -1.1572  0.0791  0.1535
10085SOL    HW231697   7.233   2.225   9.336  0.9894 -1.0785 -2.3357
10086SOL     OW31698   2.608   4.822   3.240  0.2878  0.5652  0.2161
10086SOL    HW131699   2.557   4.852   3.165 -1.9488 -1.1019  0.9783
10086SOL    HW231700   2.635   4.734   3.216  0.1379  0.2792  1.0970
10087SOL     OW31701   0.815   7.223  11.343 -0.1803 -0.0027 -0.1776
10087SOL    HW131702   0.770   7.166  11.405  2.6812 -2.1276  0.1608
10087SOL    HW231703   0.858   7.289  11.397 -0.7266  0.4489 -0.2803
10088SOL     OW31704   3.675   3.189   4.985 -0.0943  0.0790  0.4321
10088SOL    HW131705   3.617   3.259   5.016 -0.9985 -0.5869  0.3143
10088SOL    HW231706   3.644   3.111   5.031  0.8092 -0.2728  0.4543
10089SOL     OW31707   3.911   4.966   3.598 -0.3207 -0.0019  0.1388
10089SOL    HW131708   3.926   5.012   3.515 -1.0018  0.4637  0.2636
10089SOL    HW231709   3.998   4.936   3.625 -0.3111 -2.0223 -1.7942
10090SOL     OW31710   4.199   4.056   9.018 -0.2452 -0.1441 -0.1092
10090SOL    HW131711   4.294   4.046   9.007 -0.2034  0.3883 -0.2646
10090SOL    HW231712   4.184   4.041   9.111 -0.0004 -0.1889 -0.0749
10091SOL     OW31713   0.728   5.080   1.672 -0.4936 -0.3578 -0.0232
10091SOL    HW131714   0.759   5.166   1.644 -0.3769 -0.1640  0.6791
10091SOL    HW231715   0.635   5.092   1.691 -0.6031 -0.5193 -0.4603
10092SOL     OW31716   6.766   4.096   5.601  0.3291  0.1472 -0.0549
10092SOL    HW131717   6.841   4.068   5.549 -0.1888 -0.1634 -0.6519
10092SOL    HW231718   6.716   4.015   5.616 -0.3023  0.4681 -0.3606
10093SOL     OW31719   2.978   4.178   3.957  0.1696 -0.5367  0.5156
10093SOL    HW131720   2.938   4.134   4.032  0.0386 -1.0284  0.1676
10093SOL    HW231721   3.021   4.107   3.908 -2.3901 -0.8028 -1.5797
10094SOL     OW31722   1.711   6.984   8.662 -0.7184  0.0961  0.5603
10094SOL    HW131723   1.664   7.027   8.590  0.3366 -2.0560 -1.5597
10094SOL    HW231724   1.802   6.986   8.635 -0.1801 -0.0997  2.2632
10095SOL     OW31725   1.055   5.046   2.931  0.1714 -0.0731 -0.1314
10095SOL    HW131726   1.147   5.024   2.915  0.4429  0.6885  0.3447
10095SOL    HW231727   1.006   4.974   2.891  0.9075  0.2882 -1.7858
10096SOL     OW31728   0.982   0.938   1.122 -0.0936  0.2248 -0.4040
10096SOL    HW131729   0.999   0.977   1.037 -0.3914  1.0224 -0.1032
10096SOL    HW231730   0.997   0.844   1.109 -0.0226  0.3574 -1.2991
10097SOL     OW31731   4.455   4.894   9.429  0.1679 -0.1967 -0.3265
10097SOL    HW131732   4.524   4.837   9.397  1.3096  0.9835 -0.0601
10097SOL    HW231733   4.410   4.924   9.350  0.6250 -0.1606 -0.5740
10098SOL     OW31734   4.397   7.555   1.668 -0.1619  0.1066  0.2614
10098SOL    HW131735   4.420   7.538   1.576 -0.2441  0.0276  0.2542
10098SOL    HW231736   4.316   7.505   1.681  2.0754 -3.5913  1.6169
10099SOL     OW31737   7.167   3.259   3.412  0.0237 -0.3748 -0.1502
10099SOL    HW131738   7.089   3.248   3.466 -1.7011  0.0456 -2.4103
10099SOL    HW231739   7.138   3.237   3.324  1.9834  1.6356 -1.3866
10100SOL     OW31740   1.779   4.234   2.283 -0.2093 -0.5159  0.3306
10100SOL    HW131741   1.834   4.158   2.301 -0.3186 -0.1279  2.7267
10100SOL    HW231742   1.691   4.207   2.311 -0.6872 -0.2158 -0.8496
10101SOL     OW31743   4.037   0.321   2.654  0.3464 -0.6409  0.2816
10101SOL    HW131744   4.114   0.264   2.657  0.2633 -0.8071 -0.5094
10101SOL    HW231745   4.060   0.388   2.590 -0.0056 -0.4431  0.3610
10102SOL     OW31746   0.769   0.996   3.070 -0.0408 -0.4463 -0.7749
10102SOL    HW131747   0.860   0.972   3.051 -0.5244 -1.3904 -2.0286
10102SOL    HW231748   0.749   1.065   3.007 -0.2664 -0.4091 -0.6636
10103SOL     OW31749   4.807   1.751   9.820 -0.3834 -0.2332 -0.1864
10103SOL    HW131750   4.892   1.748   9.776 -0.4944 -1.1491 -0.3570
10103SOL    HW231751   4.818   1.815   9.890  0.5323 -0.5306 -0.0493
10104SOL     OW31752   3.914   5.523   4.705 -0.5600  0.2881  0.3643
10104SOL    HW131753   3.996   5.504   4.659  0.0147 -0.9848  1.8492
10104SOL    HW231754   3.855   5.452   4.680 -1.6520  1.7519 -1.5435
10105SOL     OW31755   4.883   7.659   5.798 -0.5218 -0.0879 -0.2700
10105SOL    HW131756   4.955   7.600   5.776  0.0921  0.4771  0.2033
10105SOL    HW231757   4.918   7.716   5.867 -1.6327 -0.2389  0.4476
10106SOL     OW31758   6.348   1.910   3.395  0.0784  0.7689  0.0265
10106SOL    HW131759   6.312   1.822   3.405 -1.4098  1.4552  0.9379
10106SOL    HW231760   6.315   1.939   3.310  1.3663  0.1181 -0.7273
10107SOL     OW31761   0.414   5.612   6.933  0.3695 -0.0788  0.3655
10107SOL    HW131762   0.326   5.575   6.930 -0.0337  0.9253 -0.8787
10107SOL    HW231763   0.467   5.544   6.974 -0.8214 -1.0129  0.4167
10108SOL     OW31764   3.760   7.342   7.279  0.3401  0.4540 -0.0231
10108SOL    HW131765   3.814   7.267   7.254  1.9672  1.9459 -1.2437
10108SOL    HW231766   3.716   7.368   7.198 -1.2113  0.0934  0.6680
10109SOL     OW31767   6.445   6.763   5.387  0.3634  0.6775 -0.2177
10109SOL    HW131768   6.487   6.688   5.344 -0.5486  0.6704 -1.1325
10109SOL    HW231769   6.392   6.803   5.318 -0.5417  1.1229  0.7210
10110SOL     OW31770   5.405   0.986   7.687  0.1142  0.0168  0.6026
10110SOL    HW131771   5.351   0.960   7.762 -1.2350  0.4557 -0.1823
10110SOL    HW231772   5.360   1.062   7.649  1.2237  0.3229 -0.1579
10111SOL     OW31773   0.065   5.519   9.374  0.5528  0.4484  0.5717
10111SOL    HW131774   0.082   5.443   9.319  0.0811 -0.3987  1.5704
10111SOL    HW231775   0.081   5.594   9.316  0.5738 -0.3998 -0.5593
10112SOL     OW31776   6.394   3.650   5.054 -0.2384  0.3761 -0.0489
10112SOL    HW131777   6.376   3.614   4.967 -2.5706  0.7735  0.2092
10112SOL    HW231778   6.405   3.573   5.110  0.7014  0.1219 -0.5495
10113SOL     OW31779   4.005   0.939  11.447  0.0374 -0.1641  0.4691
10113SOL    HW131780   4.046   0.993  11.515 -2.2472  0.9996  1.0325
10113SOL    HW231781   4.002   0.852  11.485 -1.6224  0.5563  2.1373
10114SOL     OW31782   2.723   1.024   0.522  0.3453  0.0628 -0.6752
10114SOL    HW131783   2.756   1.110   0.496  0.9578  0.0260 -0.0446
10114SOL    HW231784   2.801   0.974   0.545 -0.1385  0.0011  0.9434
10115SOL     OW31785   3.462   3.206   4.426 -0.4463  0.5013  0.4819
10115SOL    HW131786   3.517   3.237   4.354 -1.1784  1.5510  0.3517
10115SOL    HW231787   3.471   3.111   4.423 -1.6298  0.3818 -2.0052
10116SOL     OW31788   1.715   6.593   7.924 -0.0783  0.2228 -0.3289
10116SOL    HW131789   1.669   6.526   7.875  0.3499  0.7150 -1.4337
10116SOL    HW231790   1.689   6.579   8.015 -1.3579 -0.3279 -0.7645
10117SOL     OW31791   3.950   3.565   7.314 -0.4850 -0.2662 -0.3015
10117SOL    HW131792   4.021   3.593   7.256 -0.3482 -2.3366 -1.2069
10117SOL    HW231793   3.891   3.641   7.318  1.3162  1.1879 -0.2108
10118SOL     OW31794   2.761   4.704   0.405 -0.1516  0.0535  0.4730
10118SOL    HW131795   2.670   4.729   0.390 -0.9475 -1.9959  1.5012
10118SOL    HW231796   2.758   4.648   0.483  2.0747  0.3601  0.8441
10119SOL     OW31797   0.206   3.048   9.886  0.1926  0.5569  0.3723
10119SOL    HW131798   0.277   3.110   9.903  0.1457  0.5623  0.5464
10119SOL    HW231799   0.135   3.078   9.942  0.2763  0.1575  0.6928
10120SOL     OW31800   2.876   2.976   6.841 -0.5499  0.4795  0.0517
10120SOL    HW131801   2.896   3.064   6.873 -2.9227  1.7091 -1.5882
10120SOL    HW231802   2.854   2.988   6.749 -0.1476 -1.9893 -0.4302
10121SOL     OW31803   4.729   2.150  11.256 -0.8550 -0.2046 -0.0831
10121SOL    HW131804   4.670   2.092  11.208 -1.0527  1.2791 -1.7197
10121SOL    HW231805   4.796   2.175  11.192 -1.2051  1.9532  0.3205
10122SOL     OW31806   3.412   2.204   4.034  0.4531 -0.5611  0.4366
10122SOL    HW131807   3.460   2.129   3.999 -1.0108 -1.2626 -0.1351
10122SOL    HW231808   3.361   2.168   4.107 -1.7935 -0.6221 -1.0588
10123SOL     OW31809   1.322   4.778   4.990 -0.2899 -0.5245  0.2210
10123SOL    HW131810   1.364   4.699   4.959  0.6978  0.1366 -0.1765
10123SOL    HW231811   1.251   4.795   4.928  0.0426 -0.6303 -0.1891
10124SOL     OW31812   5.400   2.208   7.534 -0.7184 -0.3559  0.6803
10124SOL    HW131813   5.385   2.259   7.455 -0.3923 -0.7578  0.3600
10124SOL    HW231814   5.487   2.171   7.523 -1.5338 -2.2178  0.2263
10125SOL     OW31815   5.164   7.820   3.583 -0.1583 -0.4307 -1.0377
10125SOL    HW131816   5.176   7.871   3.504  1.0876 -0.5695 -0.9596
10125SOL    HW231817   5.142   7.732   3.552  0.0089 -0.4069 -1.2213
10126SOL     OW31818   6.785   6.971   4.265  0.0841 -0.0143 -0.3293
10126SOL    HW131819   6.857   6.932   4.315 -1.8086  0.3615  2.9764
10126SOL    HW231820   6.809   7.063   4.256  0.0960  0.0939  0.6794
10127SOL     OW31821   3.666   1.210  10.276 -0.1735 -0.3865  0.4652
10127SOL    HW131822   3.722   1.287  10.268 -1.2635  0.4874  1.1396
10127SOL    HW231823   3.726   1.140  10.303  1.0142 -0.0588 -1.1316
10128SOL     OW31824   1.960   3.770   5.823  0.0361 -0.0974 -0.6402
10128SOL    HW131825   1.978   3.678   5.800 -0.4147 -0.0027 -1.4028
10128SOL    HW231826   2.001   3.781   5.908 -0.9369 -1.3596  0.0367
10129SOL     OW31827   0.931   6.811   7.766 -0.1746  0.6099  0.2714
10129SOL    HW131828   0.910   6.807   7.673  0.7794 -0.8295  0.0669
10129SOL    HW231829   1.026   6.795   7.769  0.2993  3.2010  1.3482
10130SOL     OW31830   3.761   5.575   3.884 -0.0389  0.3667 -0.0670
10130SOL    HW131831   3.779   5.605   3.973 -0.2228  2.1981 -0.5915
10130SOL    HW231832   3.801   5.489   3.878  0.3606  0.4127  1.6509
10131SOL     OW31833   0.092   4.889   1.394  0.5592  0.0763  0.3924
10131SOL    HW131834   0.175   4.860   1.356 -0.1581 -0.1884 -1.0167
10131SOL    HW231835   0.113   4.971   1.438  1.7992 -0.5663  1.0512
10132SOL     OW31836   4.943   6.330   9.017 -0.2151  0.2945  0.0742
10132SOL    HW131837   4.874   6.364   8.960 -0.1402  0.0735 -0.1509
10132SOL    HW231838   4.928   6.235   9.019  0.2485  0.2110 -0.2055
10133SOL     OW31839   3.561   2.578   1.437 -1.0274 -0.0594  0.2499
10133SOL    HW131840   3.621   2.520   1.484  0.1909  1.2300  0.3715
10133SOL    HW231841   3.537   2.645   1.501 -0.5950  0.8351 -0.4960
10134SOL     OW31842   5.901   1.224   9.398 -0.2062 -1.2552  0.3978
10134SOL    HW131843   5.887   1.311   9.436  1.7756 -1.2465  1.2257
10134SOL    HW231844   5.890   1.237   9.304 -0.8910 -0.3437  0.5833
10135SOL     OW31845   0.672   6.440   0.833  0.0131  0.0942  0.0764
10135SOL    HW131846   0.631   6.403   0.754  0.3613 -1.5487  0.6227
10135SOL    HW231847   0.756   6.474   0.802 -0.0927 -0.0302 -0.3633
10136SOL     OW31848   5.562   6.298   0.716 -0.2144 -0.5818  0.6093
10136SOL    HW131849   5.488   6.251   0.754  0.6667 -1.2558  1.5663
10136SOL    HW231850   5.561   6.273   0.623 -1.4424 -0.2120  0.5127
10137SOL     OW31851   3.364   7.071  11.168  0.3649  0.5880  0.3875
10137SOL    HW131852   3.414   7.125  11.107 -0.3615  0.5757 -0.2233
10137SOL    HW231853   3.306   7.132  11.213 -0.1590  0.3743 -0.0004
10138SOL     OW31854   2.605   7.956   4.427 -0.6714 -0.2673  0.2945
10138SOL    HW131855   2.547   7.898   4.377 -1.2057 -1.0925  1.7982
10138SOL    HW231856   2.546   8.004   4.486 -0.0947  0.9308 -0.0687
10139SOL     OW31857   7.931   3.750   1.744 -0.1531 -0.0305  0.0801
10139SOL    HW131858   7.837   3.761   1.730 -0.2026 -1.4962 -1.0399
10139SOL    HW231859   7.965   3.839   1.755 -1.2134  0.8185 -2.7091
10140SOL     OW31860   4.114   0.314   9.104 -0.9902 -0.6810  0.0193
10140SOL    HW131861   4.162   0.284   9.027 -1.0732  0.2500 -0.4062
10140SOL    HW231862   4.164   0.390   9.135 -1.6136 -0.3323  0.1752
10141SOL     OW31863   7.401   2.170  12.002  0.0856  0.3427 -0.1607
10141SOL    HW131864   7.357   2.251  11.979 -0.3995 -0.0769 -0.7494
10141SOL    HW231865   7.393   2.115  11.924  1.4426  0.1616 -0.2130
10142SOL     OW31866   5.371   0.138   6.434  0.1341  0.1648  0.4344
10142SOL    HW131867   5.339   0.132   6.344 -0.8630 -1.2696  0.8349
10142SOL    HW231868   5.458   0.098   6.431  1.4333  2.8528 -0.4073
10143SOL     OW31869   6.335   4.314   1.442  0.1447 -0.2488 -0.0591
10143SOL    HW131870   6.376   4.378   1.501 -2.6841  1.6916 -0.0013
10143SOL    HW231871   6.407   4.282   1.388  2.4965 -0.5321  2.9833
10144SOL     OW31872   7.824   1.166   4.098 -0.5399  0.3061 -0.3051
10144SOL    HW131873   7.904   1.128   4.135 -1.0023 -0.3283  0.0357
10144SOL    HW231874   7.809   1.117   4.017 -0.9084  0.0437 -0.0752
10145SOL     OW31875   1.227   5.856   2.720 -0.7498  0.2239 -0.0304
10145SOL    HW131876   1.188   5.894   2.799 -1.7448  1.1610 -0.9326
10145SOL    HW231877   1.319   5.883   2.724 -1.1127  1.5336  0.0938
10146SOL     OW31878   1.149   2.700   2.981 -0.5055  0.1103 -0.7235
10146SOL    HW131879   1.127   2.650   3.060 -0.3065  0.4792 -0.4277
10146SOL    HW231880   1.171   2.787   3.014  1.4622 -0.2453 -0.9883
10147SOL     OW31881   1.774   5.384   0.072 -0.3469  0.0445  0.3173
10147SOL    HW131882   1.770   5.387   0.168 -1.3318 -1.3661  0.3499
10147SOL    HW231883   1.701   5.328   0.047 -0.7133  1.1845 -1.3343
10148SOL     OW31884   4.829   4.021  10.851 -0.3690 -0.2109 -0.0210
10148SOL    HW131885   4.755   3.984  10.899 -0.4818 -2.0803 -1.4830
10148SOL    HW231886   4.804   4.011  10.759  0.9761  0.7139 -0.5079
10149SOL     OW31887   7.305   3.815   1.904 -0.2556  0.2935 -0.0900
10149SOL    HW131888   7.358   3.738   1.882 -0.7489 -0.6306  1.7618
10149SOL    HW231889   7.215   3.782   1.906 -0.6260  1.2443 -0.5746
10150SOL     OW31890   1.157   6.492   1.705  0.1710 -0.0960  0.4559
10150SOL    HW131891   1.226   6.434   1.674  0.7568  1.1347 -0.5867
10150SOL    HW231892   1.202   6.570   1.737 -0.7313  1.1752 -1.1949
10151SOL     OW31893   5.810   5.503   2.911 -0.2878 -0.2385  0.5031
10151SOL    HW131894   5.781   5.486   3.001  0.5582 -0.4353  0.7529
10151SOL    HW231895   5.729   5.510   2.860 -0.7691 -0.4135  1.2265
10152SOL     OW31896   3.370   3.316   3.197 -0.2311  0.1015 -0.0281
10152SOL    HW131897   3.362   3.281   3.286  0.6944 -0.7466 -0.2604
10152SOL    HW231898   3.408   3.403   3.209  0.0966 -0.0958  0.3895
10153SOL     OW31899   0.502   0.279   0.361 -0.2166 -0.0404 -0.4179
10153SOL    HW131900   0.547   0.362   0.349  1.5080 -0.9546 -0.5260
10153SOL    HW231901   0.553   0.216   0.310 -1.1011 -1.2987  0.1922
10154SOL     OW31902   7.158   6.562   1.039 -0.5208  0.6904  0.3236
10154SOL    HW131903   7.146   6.489   1.099 -0.3369 -2.3133 -2.9530
10154SOL    HW231904   7.080   6.560   0.983  0.6471  1.3694 -1.4025
10155SOL     OW31905   6.193   6.109   1.792 -0.4249 -0.2986  0.8664
10155SOL    HW131906   6.224   6.032   1.745  0.4288 -0.1639  1.1827
10155SOL    HW231907   6.157   6.166   1.724  0.6598 -0.1666  0.3791
10156SOL     OW31908   1.052   2.238   9.517 -0.3882  0.2549 -0.1193
10156SOL    HW131909   1.130   2.271   9.563  1.7574 -2.7246 -1.2650
10156SOL    HW231910   1.044   2.293   9.439  1.0982  0.1552 -0.3711
10157SOL     OW31911   5.731   3.823   8.302 -0.2605  0.6813  0.6560
10157SOL    HW131912   5.767   3.867   8.380  1.3801 -0.4760  0.6117
10157SOL    HW231913   5.655   3.876   8.278  1.1911  3.0789  1.0136
10158SOL     OW31914   2.147   4.835  11.653 -0.2269  0.2559  0.6566
10158SOL    HW131915   2.187   4.748  11.654 -1.6148 -0.4070  1.2021
10158SOL    HW231916   2.095   4.836  11.572  0.4828  0.9356  0.1897
10159SOL     OW31917   2.737   7.782   2.922 -0.0853 -0.0482  0.5207
10159SOL    HW131918   2.654   7.801   2.966 -0.9879 -0.2650 -1.0390
10159SOL    HW231919   2.758   7.693   2.948 -1.7172 -0.9611 -1.1124
10160SOL     OW31920   7.095   0.897  10.078 -0.2906 -0.0901  0.3743
10160SOL    HW131921   7.131   0.856   9.999  0.7917  0.0880  0.7637
10160SOL    HW231922   7.000   0.890  10.067 -0.1503 -0.4313 -0.7515
10161SOL     OW31923   2.500   3.957  10.901  0.0636 -0.0498  0.1631
10161SOL    HW131924   2.506   3.871  10.943  1.3532 -0.2149 -0.2975
10161SOL    HW231925   2.513   4.019  10.972 -0.8437 -0.2321  0.4943
10162SOL     OW31926   4.602   0.055   1.650 -0.3754 -0.1667 -0.4477
10162SOL    HW131927   4.609   0.135   1.702  1.6928 -0.0880 -0.7560
10162SOL    HW231928   4.536   0.002   1.696 -2.3243  1.9580 -0.6527
10163SOL     OW31929   7.667   6.026   4.234 -0.2976 -0.0651 -0.1060
10163SOL    HW131930   7.591   6.018   4.291 -0.0357 -0.6409  0.1757
10163SOL    HW231931   7.660   6.113   4.195 -2.0146 -0.7418 -1.4155
10164SOL     OW31932   2.699   3.278   3.111 -0.0960 -0.1149  0.2006
10164SOL    HW131933   2.669   3.320   3.031 -1.0904 -0.4767  0.3641
10164SOL    HW231934   2.750   3.346   3.156 -0.2244  0.3527 -0.3484
10165SOL     OW31935   2.999   1.948   9.818 -0.3506 -0.2302  0.0799
10165SOL    HW131936   2.999   2.043   9.803 -2.4478 -0.1141  0.4454
10165SOL    HW231937   2.985   1.939   9.912 -0.2427 -0.9145  0.0358
10166SOL     OW31938   2.201   3.339   5.195 -0.1319 -0.0013 -0.3178
10166SOL    HW131939   2.122   3.370   5.239 -0.6435  0.1055 -1.2915
10166SOL    HW231940   2.192   3.243   5.195  0.8362 -0.1491  1.5487
10167SOL     OW31941   1.405   5.972   7.181 -0.1054 -0.4598 -0.7267
10167SOL    HW131942   1.496   5.984   7.155  0.0042 -0.0291 -0.1675
10167SOL    HW231943   1.355   5.992   7.101  0.2761 -0.4870 -0.9781
10168SOL     OW31944   0.110   6.135   0.208  0.1332  0.0311  0.0185
10168SOL    HW131945   0.180   6.138   0.273  0.0192 -1.6188  0.2776
10168SOL    HW231946   0.030   6.152   0.258  0.0872 -0.8307  0.2500
10169SOL     OW31947   3.982   5.399   5.627 -0.3848  0.5407  0.3245
10169SOL    HW131948   3.890   5.427   5.626 -1.2001 -1.8410 -2.0239
10169SOL    HW231949   3.979   5.308   5.655  1.0158 -0.1228 -1.5041
10170SOL     OW31950   0.795   4.965   4.775 -0.1258 -0.0372  0.2379
10170SOL    HW131951   0.843   4.891   4.811  1.0417  0.8937  0.6555
10170SOL    HW231952   0.710   4.929   4.750  0.5696 -1.6033  0.0295
10171SOL     OW31953   2.658   6.275   2.432 -0.0424 -0.4351  0.4269
10171SOL    HW131954   2.579   6.301   2.479 -0.8792  0.4393 -1.3657
10171SOL    HW231955   2.730   6.302   2.490 -1.0171  0.6581  1.1794
10172SOL     OW31956   0.224   0.763   0.444  0.2769 -0.1054  0.5499
10172SOL    HW131957   0.245   0.698   0.512 -1.9620 -2.8402 -1.1331
10172SOL    HW231958   0.146   0.808   0.478  0.1444 -0.3022  0.5086
10173SOL     OW31959   6.233   2.398   8.769 -0.3129 -0.7329  0.6640
10173SOL    HW131960   6.152   2.350   8.752 -0.7915 -0.2247  1.4222
10173SOL    HW231961   6.268   2.419   8.683 -1.1279 -0.7394  0.3266
10174SOL     OW31962   2.701   6.872   6.687  0.4326 -0.0004 -0.6056
10174SOL    HW131963   2.687   6.875   6.782  2.4203 -2.2550 -0.1108
10174SOL    HW231964   2.655   6.793   6.659  1.4730 -0.4388 -1.1279
10175SOL     OW31965   0.985   4.793   9.589  1.0083 -0.0947  0.4251
10175SOL    HW131966   1.002   4.798   9.683 -0.4765  0.0398  0.7093
10175SOL    HW231967   0.991   4.883   9.558  0.0609  0.0660  0.6783
10176SOL     OW31968   3.129   0.026   1.140 -0.5050 -0.5259 -0.0505
10176SOL    HW131969   3.092  -0.032   1.074 -0.3019  1.7336 -2.3166
10176SOL    HW231970   3.218   0.043   1.110 -0.9437  1.8722 -0.1962
10177SOL     OW31971   5.234   7.391   2.584 -0.1570  0.2026  0.3698
10177SOL    HW131972   5.229   7.401   2.489 -0.3273  0.1518  0.3738
10177SOL    HW231973   5.216   7.299   2.600 -2.6606  0.6626  0.6279
10178SOL     OW31974   6.383   1.096   5.162 -0.1717 -0.1485 -0.8158
10178SOL    HW131975   6.328   1.083   5.240  0.0186  1.0424 -0.4707
10178SOL    HW231976   6.403   1.007   5.133  1.6286 -0.7114  1.7994
10179SOL     OW31977   6.127   7.507   0.661 -0.0514 -0.7175 -0.2219
10179SOL    HW131978   6.077   7.447   0.716  0.2525 -0.1354  0.7053
10179SOL    HW231979   6.210   7.462   0.647  0.0498 -0.6631  0.1917
10180SOL     OW31980   6.986   0.852  11.138  0.2240  0.8499  0.5197
10180SOL    HW131981   6.979   0.766  11.180 -0.6381  0.9990  0.7005
10180SOL    HW231982   6.908   0.899  11.167  0.6614  1.6837  0.3823
10181SOL     OW31983   5.754   4.804   0.640  0.6328 -0.4384 -0.2632
10181SOL    HW131984   5.768   4.892   0.606 -1.8731  1.1372  2.3580
10181SOL    HW231985   5.671   4.775   0.602  0.6333 -1.0014  0.1434
10182SOL     OW31986   1.145   2.708   9.013  0.1973  0.4278  0.7984
10182SOL    HW131987   1.221   2.712   9.071 -0.0375  0.5584  1.1013
10182SOL    HW231988   1.175   2.748   8.931  0.6404 -0.0827  0.7017
10183SOL     OW31989   6.358   3.057   3.390 -0.2636  0.4934  0.1918
10183SOL    HW131990   6.454   3.064   3.387 -0.2678  0.2948 -1.0873
10183SOL    HW231991   6.335   3.020   3.305 -1.4315 -0.1266  0.7658
10184SOL     OW31992   3.868   2.129   7.335  0.1725 -0.2441 -0.4054
10184SOL    HW131993   3.823   2.214   7.335 -0.6774 -0.6538  1.6070
10184SOL    HW231994   3.884   2.110   7.427  1.8784 -1.5087 -0.9144
10185SOL     OW31995   3.236   0.212   1.903  0.3788 -0.5197 -0.8767
10185SOL    HW131996   3.254   0.191   1.995  2.5154  0.0013 -1.1172
10185SOL    HW231997   3.208   0.303   1.904  1.0417 -0.3120 -0.7905
10186SOL     OW31998   4.349   2.688   8.762 -0.2130  0.5929  0.6222
10186SOL    HW131999   4.279   2.661   8.703  0.7647  0.8352 -0.6834
10186SOL    HW232000   4.304   2.709   8.844 -1.5323 -0.3107  0.1605
10187SOL     OW32001   7.200   7.456  10.177  0.5839 -0.2815 -0.2993
10187SOL    HW132002   7.232   7.441  10.266  1.6957 -0.3591 -0.6917
10187SOL    HW232003   7.228   7.546  10.158 -0.6644  0.1476 -0.1631
10188SOL     OW32004   6.567   7.244  11.265  0.0599  0.0635 -0.0041
10188SOL    HW132005   6.637   7.292  11.310 -0.0122  0.8057 -0.6658
10188SOL    HW232006   6.578   7.153  11.293  1.8245  0.0159 -0.7738
10189SOL     OW32007   6.961   1.748   0.308 -0.3073 -0.3935  0.7912
10189SOL    HW132008   6.888   1.788   0.355 -0.9403 -0.0220 -0.4476
10189SOL    HW232009   7.038   1.769   0.361 -0.5845  2.5389  0.2283
10190SOL     OW32010   1.008   3.321   7.636 -0.3575 -0.0735  0.5695
10190SOL    HW132011   0.945   3.370   7.583 -0.0080  1.4250  1.4819
10190SOL    HW232012   0.969   3.234   7.646 -1.3757  0.2487 -0.4297
10191SOL     OW32013   3.774   7.190   0.264 -0.0141 -0.3918 -0.0301
10191SOL    HW132014   3.722   7.191   0.184 -1.1345 -0.5367  0.6789
10191SOL    HW232015   3.712   7.209   0.333  0.6168 -1.8631  0.9921
10192SOL     OW32016   3.603   5.128   9.878 -0.7108 -0.0826 -0.0333
10192SOL    HW132017   3.693   5.114   9.908 -0.4940  2.8433  0.9990
10192SOL    HW232018   3.548   5.110   9.954 -0.9821 -1.2204 -0.4770
10193SOL     OW32019   1.530   1.512   1.127 -0.0556  0.3413 -0.0638
10193SOL    HW132020   1.475   1.571   1.179 -0.0141  0.5878 -0.3020
10193SOL    HW232021   1.585   1.468   1.192  0.0819  0.7414  0.0903
10194SOL     OW32022   6.291   7.841   7.403  0.0324  0.2189  0.4061
10194SOL    HW132023   6.313   7.906   7.336 -2.0270  1.0271  0.4210
10194SOL    HW232024   6.373   7.826   7.450  0.7923  2.0839 -0.2273
10195SOL     OW32025   1.259   5.910   6.237  0.0596  0.0755 -0.1640
10195SOL    HW132026   1.219   5.859   6.307  1.3539 -0.8582 -0.0578
10195SOL    HW232027   1.267   5.999   6.272 -0.3419 -0.1231  0.4360
10196SOL     OW32028   7.173   5.349  10.804 -0.4939 -0.2577 -0.3161
10196SOL    HW132029   7.154   5.406  10.729 -0.0592  0.5239  0.1459
10196SOL    HW232030   7.087   5.316  10.831 -1.0578  1.7960  0.6425
10197SOL     OW32031   5.401   7.522   8.062  1.0236  0.1937 -0.0952
10197SOL    HW132032   5.492   7.525   8.034  1.9571 -1.0656  2.5195
10197SOL    HW232033   5.372   7.433   8.042  1.3925 -0.4014  1.8338
10198SOL     OW32034   5.826   5.400   1.694  0.2988  0.0554  0.1258
10198SOL    HW132035   5.875   5.348   1.758 -0.1128  0.9892  1.2295
10198SOL    HW232036   5.794   5.336   1.630 -0.0531 -1.0300  1.3647
10199SOL     OW32037   7.908   1.559   1.041 -0.2793 -0.1755 -0.3934
10199SOL    HW132038   7.950   1.644   1.051 -2.1017  1.1561 -2.7775
10199SOL    HW232039   7.879   1.534   1.129  0.8140  1.3812  0.4327
10200SOL     OW32040   5.925   5.205   2.149  0.1047  0.3754 -0.4339
10200SOL    HW132041   5.859   5.257   2.197  0.6440  2.0506 -1.4103
10200SOL    HW232042   5.973   5.159   2.217 -2.0737 -0.9414  0.3131
10201SOL     OW32043   5.673   7.255   2.105 -0.1626  0.9001 -0.3160
10201SOL    HW132044   5.768   7.248   2.110 -0.1428  1.0320 -0.4963
10201SOL    HW232045   5.649   7.312   2.178 -0.0313  1.4802 -0.7172
10202SOL     OW32046   3.633   6.237   9.163  0.0457  0.1686 -0.6899
10202SOL    HW132047   3.696   6.168   9.184 -1.2113 -1.1482 -1.1323
10202SOL    HW232048   3.672   6.285   9.090  0.0297 -1.3562 -1.7237
10203SOL     OW32049   2.229   1.001   9.046 -0.1287  0.3573  0.2106
10203SOL    HW132050   2.160   1.025   8.984  1.4857  3.2294 -0.6367
10203SOL    HW232051   2.298   0.963   8.992  0.0583  0.0148  0.6842
10204SOL     OW32052   5.170   2.247   1.839 -0.6560  0.0770 -0.7235
10204SOL    HW132053   5.190   2.326   1.888 -0.5062 -0.3004 -0.1749
10204SOL    HW232054   5.255   2.215   1.808 -0.4745 -0.9985  0.7996
10205SOL     OW32055   7.481   7.187   0.486  0.3350  0.1849  0.0498
10205SOL    HW132056   7.496   7.240   0.564 -0.9481  0.1324  0.3665
10205SOL    HW232057   7.388   7.201   0.466  0.1560 -1.3491 -0.3012
10206SOL     OW32058   4.298   0.404   3.971 -0.1167 -0.9335 -0.3404
10206SOL    HW132059   4.355   0.334   4.001 -1.1242 -1.0957  1.3558
10206SOL    HW232060   4.209   0.369   3.982 -0.5957  0.0171 -0.9988
10207SOL     OW32061   0.850   4.681   4.804  0.0579 -0.5222 -0.7928
10207SOL    HW132062   0.812   4.667   4.891 -1.0209  0.2985 -1.1100
10207SOL    HW232063   0.795   4.630   4.745  1.3581 -1.8490 -0.9158
10208SOL     OW32064   4.948   1.981   5.679 -0.4566 -1.1222  0.1356
10208SOL    HW132065   5.036   1.984   5.642 -0.5252 -2.0876 -0.1283
10208SOL    HW232066   4.958   2.017   5.768 -0.5170  2.4581 -1.1440
10209SOL     OW32067   5.159   5.755  12.242  0.4797 -0.3026 -0.1996
10209SOL    HW132068   5.137   5.697  12.169 -0.0589 -1.4022  0.7837
10209SOL    HW232069   5.251   5.737  12.260  0.5431 -0.2229 -0.4533
10210SOL     OW32070   2.853   6.259   9.579  0.3430  0.1355  0.3341
10210SOL    HW132071   2.817   6.260   9.490  0.0237 -0.0882  0.4620
10210SOL    HW232072   2.787   6.214   9.632  1.1420 -0.9606  0.4283
10211SOL     OW32073   2.573   7.913  11.289 -0.0249  0.5806  0.1715
10211SOL    HW132074   2.546   7.964  11.365  1.0954 -0.1947  1.1291
10211SOL    HW232075   2.585   7.824  11.324 -1.3555 -0.2339 -1.3159
10212SOL     OW32076   1.375   1.729   3.117 -0.0734 -0.5001 -0.1082
10212SOL    HW132077   1.280   1.738   3.116 -0.0348 -0.0382 -0.0285
10212SOL    HW232078   1.397   1.695   3.030 -0.4629 -2.3943  0.4865
10213SOL     OW32079   0.600   2.286   8.381  0.3807 -0.1281 -0.5272
10213SOL    HW132080   0.618   2.349   8.451 -1.3713  1.6434 -1.5614
10213SOL    HW232081   0.641   2.205   8.411 -0.0325  0.6129  2.4313
10214SOL     OW32082   3.064   6.341   6.954  0.9403  0.2848  0.2117
10214SOL    HW132083   3.110   6.371   7.033  0.3084  0.9809  0.3221
10214SOL    HW232084   2.981   6.389   6.954  0.3603 -0.6910 -0.1783
10215SOL     OW32085   0.824   3.509   8.903  0.2611  0.4485 -0.1517
10215SOL    HW132086   0.754   3.447   8.922  2.4275 -2.3201 -0.6365
10215SOL    HW232087   0.830   3.511   8.808  2.3061 -1.2795 -0.1400
10216SOL     OW32088   2.468   1.632   2.293  0.1248  0.1143  0.5583
10216SOL    HW132089   2.402   1.631   2.223  0.1036 -4.5437  0.2807
10216SOL    HW232090   2.417   1.625   2.374  0.2188  0.1404  0.6197
10217SOL     OW32091   1.759   2.762   6.365  0.1294  0.0034 -0.2315
10217SOL    HW132092   1.693   2.709   6.410  0.9181  0.8000  1.9857
10217SOL    HW232093   1.729   2.853   6.375  0.5489  0.2392 -0.9723
10218SOL     OW32094   5.416   6.902   6.622  0.2989 -0.0795 -0.0479
10218SOL    HW132095   5.453   6.828   6.670  0.0900 -1.7447 -2.2949
10218SOL    HW232096   5.342   6.865   6.574  0.0755  1.6277 -1.1002
10219SOL     OW32097   1.611   5.522   1.539  0.7000 -0.0218  0.5541
10219SOL    HW132098   1.629   5.558   1.626  1.6303 -0.2058  0.4478
10219SOL    HW232099   1.519   5.541   1.524  0.2468 -0.8346  2.0007
10220SOL     OW32100   2.147   3.440   8.013 -0.2726  0.3641 -0.1670
10220SOL    HW132101   2.239   3.416   8.025 -0.2938  0.3096 -0.1108
10220SOL    HW232102   2.148   3.533   7.992 -0.1377  0.1841 -1.0057
10221SOL     OW32103   4.825   1.294   9.140  0.0938 -0.1280  0.7006
10221SOL    HW132104   4.842   1.265   9.230  0.3111 -3.3067 -0.2443
10221SOL    HW232105   4.736   1.262   9.122  0.3033 -0.1018 -0.4224
10222SOL     OW32106   3.808   0.746   3.430  0.4956  0.3331 -0.1863
10222SOL    HW132107   3.861   0.817   3.394  0.2201  1.1079  0.8973
10222SOL    HW232108   3.728   0.748   3.379  0.6709  0.5076 -0.4571
10223SOL     OW32109   5.764   4.432   7.875  0.1050  0.6548  0.2083
10223SOL    HW132110   5.825   4.502   7.853  2.5840 -1.0135  1.3194
10223SOL    HW232111   5.798   4.355   7.829 -1.1949 -0.3390  0.8421
10224SOL     OW32112   1.835   4.827   4.762 -0.1623  0.1713  0.4728
10224SOL    HW132113   1.765   4.762   4.763  0.5277 -0.5787  1.4969
10224SOL    HW232114   1.855   4.839   4.669  0.7017 -2.1910  0.2864
10225SOL     OW32115   1.701   7.119  10.334  0.1553  0.5232  0.4294
10225SOL    HW132116   1.753   7.039  10.339  2.6093  1.9243 -0.5314
10225SOL    HW232117   1.646   7.107  10.256 -0.8426 -0.8697  1.2902
10226SOL     OW32118   1.181   5.805  10.572  0.3669  0.3814 -0.3963
10226SOL    HW132119   1.122   5.773  10.640  0.4204  0.9468 -0.0794
10226SOL    HW232120   1.143   5.888  10.545  0.9892  0.7323 -0.2213
10227SOL     OW32121   4.058   0.012   8.754 -0.2370 -0.1593 -0.1846
10227SOL    HW132122   3.988   0.008   8.690  0.2248 -1.9460 -0.6224
10227SOL    HW232123   4.106  -0.070   8.743  1.4586  0.6742  0.6264
10228SOL     OW32124   0.435   7.919   9.251 -0.3878 -0.3151 -0.2778
10228SOL    HW132125   0.364   7.960   9.203 -0.7036 -0.5897 -0.0495
10228SOL    HW232126   0.472   7.855   9.189 -0.0847  0.0985 -0.5293
10229SOL     OW32127   2.620   0.103   9.984  0.1112  0.4699  0.1090
10229SOL    HW132128   2.651   0.137  10.068 -3.1360 -0.4653  1.8414
10229SOL    HW232129   2.578   0.020  10.006  0.5100 -0.5816 -2.7267
10230SOL     OW32130   1.688   0.574   5.199  0.1067 -0.2632 -0.6795
10230SOL    HW132131   1.596   0.549   5.199  0.2182 -1.2296  2.6401
10230SOL    HW232132   1.688   0.666   5.224  0.0443  0.0539 -1.8011
10231SOL     OW32133   6.351   1.944   6.501  0.6020  0.4817 -0.3910
10231SOL    HW132134   6.257   1.952   6.518 -0.3547 -2.2386 -3.2941
10231SOL    HW232135   6.385   1.894   6.575 -0.1147  1.7184  0.8215
10232SOL     OW32136   5.775   1.030   3.351 -0.4888 -0.4880  0.3082
10232SOL    HW132137   5.683   1.057   3.345 -0.3287 -0.0869 -0.5364
10232SOL    HW232138   5.823   1.111   3.364 -0.0282 -0.3208 -1.9594
10233SOL     OW32139   0.891   2.667   9.201  0.4836  0.0398  0.4994
10233SOL    HW132140   0.876   2.626   9.116  3.1685 -0.7720  0.3541
10233SOL    HW232141   0.856   2.604   9.264  0.4459 -0.3453  0.0997
10234SOL     OW32142   1.203   5.954   9.650  0.4230 -0.3345  0.0166
10234SOL    HW132143   1.166   5.950   9.562 -1.8861  0.2544  0.9074
10234SOL    HW232144   1.184   6.042   9.680  2.6753  0.0324  0.5422
10235SOL     OW32145   7.688   4.702   9.621  0.5273  0.5497  0.4303
10235SOL    HW132146   7.751   4.724   9.553  2.2173 -0.4075  1.6153
10235SOL    HW232147   7.677   4.607   9.615 -1.8154  0.7966 -0.5360
10236SOL     OW32148   0.271   1.825   4.120 -0.1555 -0.1724  0.9841
10236SOL    HW132149   0.305   1.813   4.031  0.8600  0.0892  1.3305
10236SOL    HW232150   0.302   1.912   4.146 -1.5341  0.3119  1.1322
10237SOL     OW32151   0.419   1.920   0.939  0.4249  0.2556  0.0103
10237SOL    HW132152   0.426   2.015   0.947  0.5458  0.3017 -0.6379
10237SOL    HW232153   0.469   1.886   1.013 -0.1934  0.7015  0.6511
10238SOL     OW32154   4.567   2.974   1.680  0.1553 -0.1373  0.5174
10238SOL    HW132155   4.591   2.975   1.587 -0.2003  1.2948  0.4150
10238SOL    HW232156   4.495   3.036   1.687 -0.1304 -0.5716  1.6836
10239SOL     OW32157   1.687   7.550   6.585 -0.2414  0.4824  0.1617
10239SOL    HW132158   1.610   7.563   6.528  0.0023  0.2089 -0.2315
10239SOL    HW232159   1.743   7.490   6.537 -0.6719 -0.9003  1.3124
10240SOL     OW32160   4.123   7.464  11.177  0.1928  0.1771 -0.1894
10240SOL    HW132161   4.201   7.414  11.201  0.5406  0.7268 -0.1548
10240SOL    HW232162   4.104   7.438  11.087  0.0048 -0.4747  0.0321
10241SOL     OW32163   5.866   7.096   2.995 -0.2115  0.1594 -0.1333
10241SOL    HW132164   5.776   7.112   2.969  0.3031 -0.1215 -2.2607
10241SOL    HW232165   5.903   7.183   3.010 -0.4768  0.3388 -0.5142
10242SOL     OW32166   3.552   6.658   2.198  0.2393  0.7105 -0.6048
10242SOL    HW132167   3.516   6.572   2.220  0.7026  0.8262  0.7013
10242SOL    HW232168   3.622   6.671   2.262  0.8766  1.6071 -1.4598
10243SOL     OW32169   5.639   6.591   6.446 -0.8005  0.1232 -0.5245
10243SOL    HW132170   5.673   6.589   6.535 -0.7477 -0.6057 -0.5521
10243SOL    HW232171   5.715   6.573   6.391 -0.8886  0.2806 -0.6987
10244SOL     OW32172   6.374   4.248  10.451 -0.3866 -0.2895  0.5191
10244SOL    HW132173   6.453   4.196  10.468  1.6026  2.2416 -0.1709
10244SOL    HW232174   6.341   4.271  10.538  1.1127  0.5747  0.9013
10245SOL     OW32175   0.876   2.883   8.129  0.2082 -0.1795  0.2365
10245SOL    HW132176   0.917   2.902   8.214 -1.0542 -1.2164  1.1285
10245SOL    HW232177   0.803   2.945   8.124  0.1176 -0.3034  0.0381
10246SOL     OW32178   7.199   0.885   4.541 -0.1335 -0.2361  0.1229
10246SOL    HW132179   7.285   0.921   4.561  0.1224 -0.0280 -1.3173
10246SOL    HW232180   7.216   0.812   4.482 -0.8752 -0.9443  0.7472
10247SOL     OW32181   1.529   6.052  10.533  0.0193  0.9243 -0.2551
10247SOL    HW132182   1.502   6.010  10.452 -1.0456 -1.6418  1.3292
10247SOL    HW232183   1.482   6.136  10.534 -2.4183 -0.3564 -0.8790
10248SOL     OW32184   4.415   3.102  12.145 -0.9480  0.1909 -0.3649
10248SOL    HW132185   4.415   3.009  12.122 -0.6011 -0.5931  2.3564
10248SOL    HW232186   4.495   3.114  12.196 -0.9513  2.0206 -0.7151
10249SOL     OW32187   6.158   2.823  10.820  0.1566 -0.0925  0.6762
10249SOL    HW132188   6.231   2.764  10.840 -0.3916 -0.9656  0.1955
10249SOL    HW232189   6.197   2.892  10.767  0.5309 -0.8853 -0.1100
10250SOL     OW32190   0.462   2.294  11.633 -0.7616  0.4030 -0.3809
10250SOL    HW132191   0.449   2.372  11.578 -0.1831  0.7693 -0.0196
10250SOL    HW232192   0.448   2.326  11.722  0.1493  0.2637 -0.1746
10251SOL     OW32193   5.404   1.299   0.152 -0.3293  0.0407  0.0120
10251SOL    HW132194   5.456   1.282   0.231 -1.5742 -0.9608  0.6536
10251SOL    HW232195   5.460   1.270   0.080  0.7106  0.6910  0.5399
10252SOL     OW32196   0.956   3.305   1.548  0.4061 -0.3150  0.3356
10252SOL    HW132197   0.958   3.257   1.631  2.6238 -0.0543  0.4891
10252SOL    HW232198   0.999   3.389   1.568  2.3451 -0.8363 -1.3659
10253SOL     OW32199   4.385   2.335  12.114 -0.6421  0.0160 -0.0121
10253SOL    HW132200   4.326   2.409  12.098 -1.8939 -0.2019  2.9277
10253SOL    HW232201   4.344   2.262  12.068 -2.0002  0.1676  0.8980
10254SOL     OW32202   2.748   3.785   6.391 -0.0710 -0.2810  0.3171
10254SOL    HW132203   2.793   3.867   6.369 -0.3117 -0.4438 -0.8265
10254SOL    HW232204   2.742   3.787   6.487  0.1110  0.9422  0.3276
10255SOL     OW32205   3.168   6.493   4.023  0.0053 -0.1318  0.0575
10255SOL    HW132206   3.083   6.533   4.004  0.2531  0.5025  0.2766
10255SOL    HW232207   3.146   6.413   4.070 -0.4420  0.4846  0.9176
10256SOL     OW32208   0.781   6.680   4.825  0.0724 -0.4403  0.3374
10256SOL    HW132209   0.829   6.609   4.867  1.5015 -0.2185 -0.8551
10256SOL    HW232210   0.821   6.759   4.860 -0.6161 -0.2276  0.6498
10257SOL     OW32211   5.729   0.328   1.308  0.3796  0.1182  0.2799
10257SOL    HW132212   5.666   0.399   1.317  0.6518  0.4837 -0.5506
10257SOL    HW232213   5.675   0.251   1.288  0.0510 -0.0207  1.6050
10258SOL     OW32214   0.344   0.883   1.484 -0.9311  0.1929 -0.1514
10258SOL    HW132215   0.275   0.833   1.528 -2.2427  1.0244 -1.1808
10258SOL    HW232216   0.339   0.855   1.392  0.5306 -0.1729 -0.1438
10259SOL     OW32217   4.697   6.336   1.400  0.1662  0.4885  0.2534
10259SOL    HW132218   4.620   6.285   1.376  0.7210 -0.7701  1.0472
10259SOL    HW232219   4.661   6.414   1.443 -0.6740  0.3092 -0.1026
10260SOL     OW32220   5.974   7.102   7.137 -0.3585  0.6888  0.2094
10260SOL    HW132221   5.943   7.187   7.106  0.2775  0.8697  0.0561
10260SOL    HW232222   5.897   7.061   7.175 -0.2237  2.2363  2.3001
10261SOL     OW32223   1.684   4.051   6.694 -0.8042 -0.5919  0.1383
10261SOL    HW132224   1.779   4.064   6.696 -1.1117  2.2066  0.6860
10261SOL    HW232225   1.664   4.014   6.780 -0.5623  3.0123  1.9377
10262SOL     OW32226   1.080   6.253   3.547  0.5856  0.0747  0.6721
10262SOL    HW132227   1.122   6.334   3.517  0.1461  0.4122  0.9572
10262SOL    HW232228   1.045   6.214   3.467 -0.7643  1.0769  0.7352
10263SOL     OW32229   2.081   1.227   9.079  0.3154  0.2038 -0.4836
10263SOL    HW132230   2.161   1.280   9.077  1.0027 -0.8066 -0.8388
10263SOL    HW232231   2.035   1.251   8.998  0.5465  0.3536 -0.5726
10264SOL     OW32232   7.966   7.666   4.108  0.2187  0.3114 -0.1315
10264SOL    HW132233   7.937   7.591   4.055  0.4193 -0.0102  0.2109
10264SOL    HW232234   7.934   7.742   4.060  0.9870  0.0552 -1.0960
10265SOL     OW32235   3.291   2.333  11.979 -0.2091 -0.0621  0.3467
10265SOL    HW132236   3.246   2.411  11.947  0.3318 -0.6873 -2.1519
10265SOL    HW232237   3.247   2.313  12.062 -2.4027  1.1313 -0.4258
10266SOL     OW32238   0.867   3.103   6.297  0.7711  0.1434  0.2770
10266SOL    HW132239   0.898   3.084   6.208  0.1499  0.0694  0.0705
10266SOL    HW232240   0.848   3.017   6.334  1.6675  0.1253  0.7304
10267SOL     OW32241   3.855   2.860   1.119  0.3152  0.2209 -0.1538
10267SOL    HW132242   3.779   2.828   1.167  0.0401  1.3557  0.2155
10267SOL    HW232243   3.843   2.828   1.030  0.3101 -1.0588  0.2984
10268SOL     OW32244   6.623   6.038   7.315 -0.3028  0.3432 -0.0383
10268SOL    HW132245   6.678   6.021   7.392  0.5639 -0.3898 -0.8016
10268SOL    HW232246   6.645   5.968   7.254 -1.3750  0.6125 -0.7518
10269SOL     OW32247   1.917   4.824  11.830  0.5745 -0.5377  0.3388
10269SOL    HW132248   1.950   4.881  11.759  0.5869  0.9201  1.4543
10269SOL    HW232249   1.969   4.744  11.822  2.5232  0.6368  0.3337
10270SOL     OW32250   2.366   6.215  11.533  0.2213 -0.6380 -0.4969
10270SOL    HW132251   2.442   6.250  11.580  0.9533 -1.2046 -1.2425
10270SOL    HW232252   2.350   6.130  11.573 -0.9142  0.0472  0.6047
10271SOL     OW32253   0.224   7.603  10.129  0.1908  0.1515 -0.1830
10271SOL    HW132254   0.129   7.598  10.138  0.1296 -0.3253 -1.0856
10271SOL    HW232255   0.257   7.549  10.201 -0.2791 -2.2388 -1.6767
10272SOL     OW32256   3.613   4.231   0.820 -0.5988  0.3994 -0.3059
10272SOL    HW132257   3.601   4.284   0.741 -1.9399  0.0974 -0.3294
10272SOL    HW232258   3.643   4.293   0.886  0.5371  0.6562 -1.0299
10273SOL     OW32259   5.633   1.408  11.328 -0.3818  0.5187 -0.3641
10273SOL    HW132260   5.552   1.360  11.344 -0.6009  1.1139  0.3315
10273SOL    HW232261   5.662   1.377  11.242 -0.1864 -1.3378  0.3132
10274SOL     OW32262   7.242   4.866   3.867 -0.1428 -0.4255  0.0944
10274SOL    HW132263   7.290   4.783   3.868  0.4265 -0.1023  0.2174
10274SOL    HW232264   7.152   4.842   3.888 -0.7257 -1.4755 -3.0614
10275SOL     OW32265   6.790   3.875   5.364  0.2145  0.1317  0.0105
10275SOL    HW132266   6.801   3.786   5.331 -1.2373  0.8961 -2.9225
10275SOL    HW232267   6.725   3.868   5.434  0.2777 -1.1307 -0.0492
10276SOL     OW32268   5.876   0.997   7.180 -0.2032 -0.0039 -0.4486
10276SOL    HW132269   5.787   0.963   7.174  0.0978 -1.0319  0.5161
10276SOL    HW232270   5.875   1.053   7.258  0.5784 -2.0400  1.1026
10277SOL     OW32271   4.806   1.512   8.702  0.4831  0.0576  0.0496
10277SOL    HW132272   4.735   1.452   8.720  0.6541  0.3664  1.9657
10277SOL    HW232273   4.882   1.474   8.747  1.1018  0.6355 -0.4729
10278SOL     OW32274   5.102   3.298   3.610 -0.2233  0.1810  0.2667
10278SOL    HW132275   5.115   3.355   3.686 -0.5444  0.1550  0.3448
10278SOL    HW232276   5.190   3.277   3.580 -0.0676  2.3326 -0.9956
10279SOL     OW32277   2.035   6.855   0.582 -0.0396  0.3861 -0.0409
10279SOL    HW132278   2.050   6.898   0.498 -3.4451 -3.6597 -3.1464
10279SOL    HW232279   2.102   6.787   0.587 -0.1877  0.2583  0.2534
10280SOL     OW32280   0.061   6.588   3.211  0.1921 -0.0209 -0.1143
10280SOL    HW132281   0.109   6.543   3.141  2.9657  1.0340  0.9740
10280SOL    HW232282   0.113   6.666   3.229 -0.8298  0.1232  2.6260
10281SOL     OW32283   6.882   2.575   2.633 -0.2892 -0.3001 -0.1752
10281SOL    HW132284   6.847   2.508   2.575 -0.5914 -0.8676  0.6431
10281SOL    HW232285   6.974   2.551   2.645 -0.2490 -0.2322 -0.3522
10282SOL     OW32286   0.010   6.323   9.628  0.3252  0.3279  0.1624
10282SOL    HW132287  -0.015   6.235   9.599  0.9508 -0.2356  1.2600
10282SOL    HW232288  -0.040   6.382   9.572 -0.4722 -0.7352 -0.2806
10283SOL     OW32289   1.078   2.024   1.192  0.2893  0.5534  0.0875
10283SOL    HW132290   1.127   2.028   1.110 -0.4801 -0.4623 -0.4426
10283SOL    HW232291   1.143   2.002   1.258  0.7568  0.4212 -0.4109
10284SOL     OW32292   2.762   2.825  11.506 -0.5336  0.8564  0.2526
10284SOL    HW132293   2.852   2.799  11.487 -0.9914 -0.7915  0.0949
10284SOL    HW232294   2.737   2.879  11.431 -0.4866 -0.8726 -1.0899
10285SOL     OW32295   2.708   6.241   3.890  0.3378  0.0552 -0.5565
10285SOL    HW132296   2.772   6.268   3.825  1.5774 -0.4861  0.4085
10285SOL    HW232297   2.701   6.316   3.949  0.9199 -0.2887 -0.0409
10286SOL     OW32298   2.842   6.058  11.196 -0.3843  0.1771 -0.5324
10286SOL    HW132299   2.813   6.073  11.286 -1.6210  0.6471 -0.9845
10286SOL    HW232300   2.825   5.965  11.180  0.3440 -0.0327 -0.1118
10287SOL     OW32301   0.896   1.046   7.555  0.2135 -1.0144  0.3744
10287SOL    HW132302   0.871   1.057   7.647  0.8179  0.7294  0.3638
10287SOL    HW232303   0.955   1.119   7.537  2.0535 -2.6626 -0.7494
10288SOL     OW32304   4.178   6.311   0.471 -0.1254 -0.3384  0.0259
10288SOL    HW132305   4.221   6.234   0.433 -1.5156 -0.8473 -0.5657
10288SOL    HW232306   4.230   6.331   0.550  0.2934 -1.8313  0.1542
10289SOL     OW32307   4.419   3.870   2.795 -0.3436 -0.1902 -1.0812
10289SOL    HW132308   4.447   3.940   2.855 -0.5898 -0.2308 -0.9162
10289SOL    HW232309   4.477   3.796   2.816 -2.6213 -1.4046  1.5912
10290SOL     OW32310   0.530   6.616   7.541 -0.3373 -0.9747  0.1080
10290SOL    HW132311   0.603   6.555   7.554  0.7361 -0.4591 -2.7064
10290SOL    HW232312   0.568   6.702   7.555 -0.9925 -0.7896  0.7859
10291SOL     OW32313   5.059   5.956   0.106 -0.1451 -0.0423 -0.2066
10291SOL    HW132314   5.122   5.885   0.119  1.2802  1.2506  0.3802
10291SOL    HW232315   4.984   5.933   0.161 -0.0985 -1.4937 -0.7062
10292SOL     OW32316   3.353   5.611   4.740  0.5440  0.5795 -0.5981
10292SOL    HW132317   3.292   5.538   4.752  0.6918  0.7010  1.0901
10292SOL    HW232318   3.320   5.680   4.798  2.0488  0.7831  0.0489
10293SOL     OW32319   1.432   0.466   6.823 -0.5708  0.8809 -0.0730
10293SOL    HW132320   1.494   0.531   6.856  0.3761 -0.9793  2.1502
10293SOL    HW232321   1.385   0.511   6.753  0.4117  3.7268  0.9393
10294SOL     OW32322   3.227   7.035   2.285  0.1746  0.2380 -0.0294
10294SOL    HW132323   3.209   7.122   2.249 -0.9351  0.6401  1.4337
10294SOL    HW232324   3.227   6.978   2.208 -1.5951  1.1419 -0.7709
10295SOL     OW32325   7.372   1.386   3.670  0.3313  0.3613  0.0223
10295SOL    HW132326   7.428   1.363   3.745 -0.6964  1.1119  1.0657
10295SOL    HW232327   7.297   1.431   3.710 -0.0677  1.1035 -1.5079
10296SOL     OW32328   6.546   5.728  11.580 -0.1368  0.2178 -0.4213
10296SOL    HW132329   6.463   5.680  11.576  0.5427 -0.9143 -1.3107
10296SOL    HW232330   6.602   5.685  11.515  1.1853  0.9150  0.2273
10297SOL     OW32331   0.058   2.527   2.560 -0.3687  0.1766  0.1617
10297SOL    HW132332   0.128   2.559   2.503 -0.1104 -0.5936  0.0287
10297SOL    HW232333  -0.015   2.508   2.501 -0.2002 -0.3447  0.1104
10298SOL     OW32334   2.250   0.050   4.577  0.5988 -0.8096  0.1943
10298SOL    HW132335   2.181   0.037   4.512 -0.3915 -2.1825  1.4536
10298SOL    HW232336   2.262   0.145   4.581 -0.8823 -0.5777 -0.3896
10299SOL     OW32337   5.836   2.553   7.087  0.3295 -0.0649 -0.3519
10299SOL    HW132338   5.771   2.486   7.069  0.6374 -0.6845  0.7265
10299SOL    HW232339   5.917   2.505   7.102  0.8346  0.6342 -0.7512
10300SOL     OW32340   7.889   1.239   5.340 -0.0146  0.0862 -0.4928
10300SOL    HW132341   7.827   1.171   5.366 -0.5568  1.3059  1.6900
10300SOL    HW232342   7.834   1.315   5.322  0.6180  0.1401 -2.3040
10301SOL     OW32343   3.933   1.775   7.325 -0.1837 -0.0559 -0.1387
10301SOL    HW132344   3.901   1.699   7.374  1.0507 -0.5722 -0.1075
10301SOL    HW232345   3.996   1.817   7.383  2.0377 -1.2229 -1.5545
10302SOL     OW32346   3.745   6.500   2.616  0.3686 -0.3023  0.1265
10302SOL    HW132347   3.715   6.516   2.706 -0.0007  0.8485 -0.1863
10302SOL    HW232348   3.770   6.407   2.615  1.6530 -0.0272  1.7885
10303SOL     OW32349   1.194   6.433  10.007  0.0359  0.0764 -0.3255
10303SOL    HW132350   1.287   6.451  10.022 -0.2664  0.9180  0.6914
10303SOL    HW232351   1.152   6.519  10.007 -0.7501 -0.2898 -0.7764
10304SOL     OW32352   2.981   0.925   9.622 -0.2473 -0.0155  0.1195
10304SOL    HW132353   3.015   0.940   9.710 -0.9852  0.8647  0.2703
10304SOL    HW232354   3.042   0.973   9.564 -1.5724  2.1965  0.4492
10305SOL     OW32355   6.611   1.627  10.383  0.0334  0.1914  0.1893
10305SOL    HW132356   6.650   1.715  10.380  1.3250 -0.3208  1.0541
10305SOL    HW232357   6.670   1.573  10.330 -3.0227  0.5464 -4.1481
10306SOL     OW32358   4.681   7.624   8.729  0.2738 -0.1440  0.3750
10306SOL    HW132359   4.721   7.550   8.776 -0.4564 -1.9652 -1.6787
10306SOL    HW232360   4.587   7.616   8.748  0.2458  0.6372  0.5926
10307SOL     OW32361   7.588   7.629  10.535  0.4989 -0.6855  0.2703
10307SOL    HW132362   7.550   7.569  10.599 -0.9620 -0.6656 -0.5576
10307SOL    HW232363   7.679   7.639  10.564 -0.0590 -0.8160  2.2454
10308SOL     OW32364   0.081   2.804   2.010 -0.1588 -0.3841 -0.1351
10308SOL    HW132365   0.070   2.779   1.918  1.2259 -0.7590 -0.2290
10308SOL    HW232366   0.111   2.895   2.007  2.1778 -1.0925 -0.2278
10309SOL     OW32367   1.782   4.241  10.137 -1.2744  0.0589 -0.4030
10309SOL    HW132368   1.863   4.194  10.117  0.1601  1.0643  2.4229
10309SOL    HW232369   1.804   4.333  10.121 -1.5274  0.4192  1.1550
10310SOL     OW32370   5.801   6.892   0.463  0.1296  0.0416  0.6200
10310SOL    HW132371   5.826   6.820   0.522  2.4681 -0.1152 -0.4752
10310SOL    HW232372   5.723   6.930   0.504  0.6177 -1.1919  2.8448
10311SOL     OW32373   3.850   6.140  11.076 -0.1900  0.3596 -0.5350
10311SOL    HW132374   3.874   6.051  11.052  1.0773  0.5026  0.1140
10311SOL    HW232375   3.864   6.190  10.995  1.1245  0.3126 -0.3615
10312SOL     OW32376   5.698   0.420   1.976  0.8441 -0.1052 -0.0350
10312SOL    HW132377   5.753   0.468   1.914 -0.4916  1.1381 -0.3268
10312SOL    HW232378   5.611   0.420   1.935  0.0862  0.1373  1.5111
10313SOL     OW32379   5.242   7.490   5.470  0.0054  0.3157  0.1759
10313SOL    HW132380   5.220   7.470   5.561  4.2017  1.7026  1.7008
10313SOL    HW232381   5.206   7.577   5.455 -0.5735  0.1453  0.5449
10314SOL     OW32382   3.840   3.478  10.429 -0.2720 -0.4039 -0.1444
10314SOL    HW132383   3.905   3.542  10.398 -0.6023  0.1159  0.2038
10314SOL    HW232384   3.861   3.397  10.383 -0.6225  0.2819 -1.5617
10315SOL     OW32385   0.047   3.289   5.833 -0.4371 -0.3189  0.4529
10315SOL    HW132386  -0.018   3.223   5.810 -0.8703  0.1070  0.4275
10315SOL    HW232387   0.025   3.315   5.922 -1.4991  1.1870 -0.2035
10316SOL     OW32388   5.195   7.510   9.506 -0.0304  0.1474  0.9626
10316SOL    HW132389   5.221   7.472   9.590 -0.8083 -0.0487  1.1236
10316SOL    HW232390   5.108   7.546   9.522 -0.2216  0.0298  0.2145
10317SOL     OW32391   4.021   0.855   4.424 -0.0593  0.3803 -0.1540
10317SOL    HW132392   4.067   0.883   4.344  1.7695 -0.1805  0.6448
10317SOL    HW232393   4.048   0.917   4.491  0.2777 -0.4901  0.5446
10318SOL     OW32394   4.314   6.372   2.567  0.2119  0.0245  0.3828
10318SOL    HW132395   4.330   6.425   2.489  0.2118 -2.8114 -1.6918
10318SOL    HW232396   4.244   6.418   2.614 -2.1441  0.2687 -2.9983
10319SOL     OW32397   2.735   5.954   0.473 -0.0069 -0.3873 -0.9418
10319SOL    HW132398   2.762   5.920   0.387  0.8029 -2.1229 -0.0564
10319SOL    HW232399   2.677   5.887   0.508  1.9136 -1.1408  1.0269
10320SOL     OW32400   4.938   6.842  11.515 -0.3494  0.2262  0.2362
10320SOL    HW132401   4.867   6.877  11.461 -3.2790 -3.2011  1.3970
10320SOL    HW232402   4.911   6.862  11.605  0.6501 -0.3116  0.6721
10321SOL     OW32403   4.178   0.735   3.844  0.3889  0.1406 -0.7398
10321SOL    HW132404   4.215   0.812   3.888  0.6117  0.0308 -0.7330
10321SOL    HW232405   4.254   0.690   3.806  0.1818  0.2896 -1.3246
10322SOL     OW32406   1.411   4.985   1.582  0.2887  0.1399 -0.3334
10322SOL    HW132407   1.365   4.920   1.530 -2.4899  0.4369  1.4857
10322SOL    HW232408   1.406   4.952   1.672 -0.5077  2.3887  0.5351
10323SOL     OW32409   0.237   2.150  11.521 -0.3515 -0.0442  0.3733
10323SOL    HW132410   0.321   2.185  11.550  0.0914 -1.1462  0.4763
10323SOL    HW232411   0.173   2.185  11.583  0.0204  0.7679  0.3156
10324SOL     OW32412   1.013   5.338  12.365 -0.0722  0.4428 -0.1398
10324SOL    HW132413   0.937   5.352  12.308 -2.0314 -3.3458  1.1987
10324SOL    HW232414   0.978   5.349  12.454  1.5841  0.9130  0.4856
10325SOL     OW32415   1.830   3.661   5.552 -0.4906 -0.0197 -0.6258
10325SOL    HW132416   1.828   3.750   5.586 -1.1749 -0.3435  0.2119
10325SOL    HW232417   1.822   3.671   5.457  0.2330  0.8379 -0.6145
10326SOL     OW32418   4.895   2.233   2.118 -0.4070 -0.5001  0.0135
10326SOL    HW132419   4.883   2.229   2.023  0.1347  0.0504 -0.0870
10326SOL    HW232420   4.823   2.288   2.148 -1.5015 -1.9521  0.1200
10327SOL     OW32421   5.047   1.965  11.609 -0.5032 -0.5681 -0.4652
10327SOL    HW132422   5.038   1.953  11.704  1.6652  1.0987  0.0425
10327SOL    HW232423   4.958   1.965  11.577 -1.4764  0.9344  1.9156
10328SOL     OW32424   1.934   4.645   8.342  0.5848 -0.1220 -0.0680
10328SOL    HW132425   1.847   4.625   8.378  1.1800 -1.5054  0.6769
10328SOL    HW232426   1.981   4.688   8.413  0.2637  1.3922 -0.7401
10329SOL     OW32427   3.062   7.173   5.416  0.2623  0.3320 -0.6936
10329SOL    HW132428   3.101   7.092   5.384  0.6039  0.8965 -1.7509
10329SOL    HW232429   3.123   7.242   5.388  0.3590  0.9033  0.8272
10330SOL     OW32430   2.743   3.644  12.464  0.0744  0.2699 -0.0798
10330SOL    HW132431   2.724   3.578  12.398  0.2366  0.4850 -0.3446
10330SOL    HW232432   2.673   3.708  12.455  0.2861  0.4792 -0.2877
10331SOL     OW32433   5.253   0.775   4.006 -0.7347 -0.7124  0.8318
10331SOL    HW132434   5.290   0.797   4.091 -1.2840 -1.0373  1.1612
10331SOL    HW232435   5.262   0.855   3.954  0.7889 -0.9060  0.7664
10332SOL     OW32436   0.131   1.316   7.619  0.2196  0.1712  0.9150
10332SOL    HW132437   0.078   1.396   7.620 -1.7996 -1.0625 -0.2614
10332SOL    HW232438   0.085   1.256   7.678 -0.0906 -1.1390 -0.5876
10333SOL     OW32439   4.069   0.437  11.090 -0.5703 -0.4997 -0.2531
10333SOL    HW132440   4.056   0.530  11.103 -0.3279 -0.6465  1.3274
10333SOL    HW232441   4.165   0.426  11.091 -0.5761 -0.6757 -1.1953
10334SOL     OW32442   6.764   7.612   3.387 -0.7488  0.5273 -0.0630
10334SOL    HW132443   6.743   7.519   3.384 -4.0200  1.1437 -0.1884
10334SOL    HW232444   6.744   7.644   3.299  0.3633  1.3656 -0.0259
10335SOL     OW32445   1.295   6.680   9.834  0.2612 -0.2326  0.2315
10335SOL    HW132446   1.332   6.594   9.856  1.5888  0.4841  0.9411
10335SOL    HW232447   1.271   6.717   9.919  0.5219  0.4502  0.0104
10336SOL     OW32448   0.411   2.690   5.366  0.0730 -0.1106 -0.0515
10336SOL    HW132449   0.452   2.774   5.344 -1.8299  1.1027  0.7903
10336SOL    HW232450   0.317   2.708   5.364 -0.4462 -2.5413 -0.9516
10337SOL     OW32451   4.052   2.211   8.351 -0.5194 -0.9318  0.1530
10337SOL    HW132452   4.100   2.287   8.318  1.5626 -1.7418  1.1338
10337SOL    HW232453   3.964   2.221   8.316 -0.2063  1.7215 -0.0496
10338SOL     OW32454   0.806   6.669  10.222 -0.2385 -0.6835 -0.1572
10338SOL    HW132455   0.846   6.582  10.232  1.6920  0.1170 -0.4644
10338SOL    HW232456   0.720   6.651  10.183  0.1101 -2.4504 -0.2063
10339SOL     OW32457   5.619   2.824  10.617 -0.1792  0.0467  0.1346
10339SOL    HW132458   5.588   2.734  10.626  0.1591 -0.0691  0.1415
10339SOL    HW232459   5.666   2.825  10.534  0.6511 -0.0222  0.5968
10340SOL     OW32460   0.675   4.072   5.425  0.2803 -0.1086 -0.8833
10340SOL    HW132461   0.727   4.089   5.346 -2.0074 -0.7948 -2.6569
10340SOL    HW232462   0.613   4.144   5.430 -1.1729 -1.2808 -1.1590
10341SOL     OW32463   7.363   4.620   2.919 -0.3786 -0.0525  0.4018
10341SOL    HW132464   7.304   4.694   2.904  0.7262  0.9616  0.9332
10341SOL    HW232465   7.448   4.660   2.935  0.0592 -1.3991  1.6690
10342SOL     OW32466   6.620   2.316   9.675 -0.3561  0.2113 -0.2992
10342SOL    HW132467   6.565   2.382   9.634  1.2670  0.5574 -2.0728
10342SOL    HW232468   6.703   2.322   9.629  0.1026 -2.5732 -0.0461
10343SOL     OW32469   2.602   2.190  11.499 -0.2641  0.2432 -0.6478
10343SOL    HW132470   2.669   2.138  11.543  0.2608  0.4827 -1.1349
10343SOL    HW232471   2.526   2.132  11.492 -0.6266  0.4561  1.2334
10344SOL     OW32472   7.028   5.563   7.508  0.3287  0.0358  0.4841
10344SOL    HW132473   7.078   5.560   7.590  1.0816  0.2578  0.0387
10344SOL    HW232474   7.067   5.494   7.454  0.2971  0.3536  0.0538
10345SOL     OW32475   7.923   5.221   0.943  0.8740  0.7096  0.4999
10345SOL    HW132476   7.856   5.273   0.897  0.7330 -0.4699 -0.6870
10345SOL    HW232477   7.999   5.223   0.884  1.1616  0.2731  0.8510
10346SOL     OW32478   4.518   7.410  10.853  0.1020 -0.5302  0.0285
10346SOL    HW132479   4.559   7.458  10.781  0.0712 -1.9217 -0.9742
10346SOL    HW232480   4.424   7.413  10.833 -0.2543  1.6910  1.7111
10347SOL     OW32481   0.779   7.917  12.468 -0.0105 -0.2083 -0.4728
10347SOL    HW132482   0.766   7.872  12.384  0.3414 -0.7158 -0.2601
10347SOL    HW232483   0.692   7.917  12.508  0.1979 -1.8220  0.0649
10348SOL     OW32484   2.855   7.006   8.574  1.0886  0.5322  0.6054
10348SOL    HW132485   2.768   6.983   8.605  1.2611  0.4959  1.0713
10348SOL    HW232486   2.843   7.028   8.482  0.1956  2.6895  1.1797
10349SOL     OW32487   7.929   0.859   5.500 -0.2594  0.4665 -0.3088
10349SOL    HW132488   7.929   0.874   5.406 -1.9164  4.1531  0.0761
10349SOL    HW232489   7.874   0.781   5.512 -1.0382  0.6476 -2.3182
10350SOL     OW32490   5.336   7.354   7.138  0.1329  0.4312 -0.2791
10350SOL    HW132491   5.389   7.290   7.184  0.7501 -0.3873 -2.0442
10350SOL    HW232492   5.352   7.336   7.045 -1.0850  1.9741 -0.8281
10351SOL     OW32493   7.348   5.229   4.834 -0.1759 -0.0159  0.2848
10351SOL    HW132494   7.383   5.289   4.767  0.5379 -0.9626 -0.2279
10351SOL    HW232495   7.271   5.190   4.793  0.8162 -1.3297 -0.4231
10352SOL     OW32496   4.699   6.410  11.287  0.3422  0.9024  0.3604
10352SOL    HW132497   4.662   6.398  11.199 -0.2881  0.7429  0.6426
10352SOL    HW232498   4.675   6.331  11.334  1.0803  0.7818  0.5478
10353SOL     OW32499   6.163   3.610   7.014  0.4345  0.2732  0.2839
10353SOL    HW132500   6.222   3.536   7.000 -1.0230 -1.0156  0.6731
10353SOL    HW232501   6.143   3.607   7.108 -1.4931 -0.3321 -0.1113
10354SOL     OW32502   4.105   0.232  10.814  0.3314  0.4363 -0.0944
10354SOL    HW132503   4.093   0.144  10.777  1.0116 -0.6728  2.0995
10354SOL    HW232504   4.017   0.257  10.843  0.4522 -0.4851  1.1646
10355SOL     OW32505   3.905   2.453   5.763  0.0331 -0.1408 -0.2039
10355SOL    HW132506   3.935   2.409   5.842 -1.9982 -1.7668 -0.2731
10355SOL    HW232507   3.954   2.411   5.692  2.1680  1.6041  0.1249
10356SOL     OW32508   7.283   6.385  10.582  0.0476 -0.2212  0.2752
10356SOL    HW132509   7.274   6.411  10.674  0.7814 -0.7048  0.4945
10356SOL    HW232510   7.268   6.466  10.533  0.2131  0.1632  0.8459
10357SOL     OW32511   1.653   1.905   1.846  0.2013  0.4220  0.0989
10357SOL    HW132512   1.669   1.999   1.854 -1.7351  0.7629  0.6452
10357SOL    HW232513   1.688   1.868   1.927  0.0622  0.8242  0.3487
10358SOL     OW32514   3.855   0.353  10.940 -0.5063  0.3028  0.1323
10358SOL    HW132515   3.938   0.379  10.979 -0.8747  0.1491  1.0505
10358SOL    HW232516   3.788   0.394  10.996 -1.0495  1.2008 -1.1249
10359SOL     OW32517   2.643   6.012   1.636  0.0909 -0.3197  0.5101
10359SOL    HW132518   2.653   6.105   1.616  1.6198  0.0460  2.6177
10359SOL    HW232519   2.729   5.984   1.667  0.4417 -3.1439 -2.4284
10360SOL     OW32520   2.103   4.557   4.628  0.3277  0.0643  0.1572
10360SOL    HW132521   2.191   4.583   4.654  1.1101 -0.4736 -1.7640
10360SOL    HW232522   2.106   4.461   4.627  0.2752  0.0566 -1.5607
10361SOL     OW32523   5.627   6.812  10.133 -0.0572  0.6059 -0.2286
10361SOL    HW132524   5.551   6.803  10.191  0.7631  1.4857  1.0477
10361SOL    HW232525   5.607   6.889  10.079 -0.6168  0.0679 -0.8060
10362SOL     OW32526   5.098   5.405   6.444  0.7392 -0.2985  0.1228
10362SOL    HW132527   5.067   5.329   6.395 -5.0632  0.3187  2.1057
10362SOL    HW232528   5.120   5.469   6.376  2.5612 -2.4938 -1.5385
10363SOL     OW32529   2.353   2.637   4.360 -0.4272  0.1565 -0.0937
10363SOL    HW132530   2.269   2.599   4.336 -0.5701  0.2677  0.2374
10363SOL    HW232531   2.349   2.649   4.455 -0.3531  0.9250 -0.1839
10364SOL     OW32532   7.670   1.876  11.551 -0.7554  0.3050  0.5146
10364SOL    HW132533   7.756   1.839  11.528 -0.6736 -0.1438  1.4816
10364SOL    HW232534   7.672   1.966  11.518 -0.6753 -0.3044 -1.2453
10365SOL     OW32535   6.108   6.793   7.239  0.0790 -0.0591  0.4218
10365SOL    HW132536   6.072   6.796   7.151  1.9639  1.4057 -0.3624
10365SOL    HW232537   6.171   6.721   7.237 -0.5874 -0.6723  0.8987
10366SOL     OW32538   1.604   5.055  11.013 -0.0167 -0.4805  0.0085
10366SOL    HW132539   1.614   4.983  11.075 -0.2531  0.8765  1.6665
10366SOL    HW232540   1.682   5.109  11.026 -0.4655  0.2532 -0.3068
10367SOL     OW32541   3.113   6.974  10.089  0.3377 -0.5147 -0.3215
10367SOL    HW132542   3.123   6.887  10.127  1.7397  0.3983  1.5389
10367SOL    HW232543   3.199   7.015  10.097 -0.4287  1.2794 -0.5662
10368SOL     OW32544   5.067   1.370   3.592  0.2460  0.1939 -0.3387
10368SOL    HW132545   5.063   1.291   3.646 -0.4386  0.9390  0.7413
10368SOL    HW232546   5.159   1.376   3.566  0.3339 -0.8758 -0.3227
10369SOL     OW32547   1.817   2.512   2.419 -0.3203  0.5280  0.6145
10369SOL    HW132548   1.883   2.581   2.412  0.0135  0.1310 -0.2496
10369SOL    HW232549   1.809   2.496   2.513  0.9774  0.4197  0.7264
10370SOL     OW32550   7.656   1.060   0.380 -0.1634 -0.5345 -0.0163
10370SOL    HW132551   7.703   0.989   0.336 -0.6753 -1.2585  0.5704
10370SOL    HW232552   7.683   1.054   0.471  1.3163  1.3037 -0.2838
10371SOL     OW32553   4.508   7.755   4.290  0.3628  0.0082 -0.0983
10371SOL    HW132554   4.552   7.705   4.222 -0.6024 -0.3507 -0.4813
10371SOL    HW232555   4.482   7.689   4.355  0.4515  0.2241  0.1588
10372SOL     OW32556   3.546   7.471   9.880 -0.0491  0.0138  0.7422
10372SOL    HW132557   3.472   7.501   9.827 -0.4200  1.0423  1.8007
10372SOL    HW232558   3.545   7.376   9.870 -0.6257  0.1253 -0.4097
10373SOL     OW32559   5.911   6.579   3.920 -0.0343 -0.1690  0.2642
10373SOL    HW132560   5.871   6.495   3.943 -2.1760  0.4789 -0.8387
10373SOL    HW232561   5.837   6.636   3.898  1.3961  1.8120  0.2978
10374SOL     OW32562   3.921   4.608   3.112  0.0339 -0.2322 -0.1955
10374SOL    HW132563   3.930   4.561   3.195 -1.2744  0.7278  0.5097
10374SOL    HW232564   4.003   4.588   3.065  2.2101  1.5483  2.5069
10375SOL     OW32565   6.009   4.981   1.684 -0.2695  0.1525  0.3438
10375SOL    HW132566   6.075   5.050   1.694  0.4483 -0.0095 -2.4037
10375SOL    HW232567   5.927   5.023   1.710  0.1970  1.9812 -0.8983
10376SOL     OW32568   5.490   1.430   9.167  0.3307  0.4910  0.6858
10376SOL    HW132569   5.551   1.499   9.140  1.0824 -0.9708 -1.6294
10376SOL    HW232570   5.514   1.354   9.114 -4.7008  0.3155 -1.9753
10377SOL     OW32571   1.093   7.377   5.576 -0.1398  0.4775 -0.6164
10377SOL    HW132572   1.044   7.391   5.495 -0.1204 -1.4905 -1.0356
10377SOL    HW232573   1.164   7.317   5.551  0.4123  0.5694  0.6660
10378SOL     OW32574   6.034   3.090   0.211  0.4227 -0.3491 -0.0287
10378SOL    HW132575   6.112   3.094   0.155 -0.9630  1.5056 -1.9715
10378SOL    HW232576   6.042   3.168   0.267 -0.6086  0.5538 -1.1036
10379SOL     OW32577   6.106   2.659   6.552  0.3212  0.3125  0.7850
10379SOL    HW132578   6.050   2.726   6.591 -0.3202  0.1770  0.1261
10379SOL    HW232579   6.046   2.604   6.502  1.0745  0.3276 -0.1776
10380SOL     OW32580   2.136   0.380  11.814  0.0557 -0.1550 -0.1810
10380SOL    HW132581   2.111   0.448  11.875  0.6993  0.8066 -0.9435
10380SOL    HW232582   2.169   0.309  11.869  0.7379  0.7320  0.5900
10381SOL     OW32583   1.960   0.227   0.509  0.3160  0.3053 -0.2862
10381SOL    HW132584   1.935   0.294   0.573 -0.5120  0.4653 -0.7563
10381SOL    HW232585   2.025   0.270   0.454 -0.9020  1.0765 -1.1805
10382SOL     OW32586   3.250   0.295  12.273  0.5715 -0.0305  0.0376
10382SOL    HW132587   3.264   0.203  12.252 -0.4018 -0.2658  0.3929
10382SOL    HW232588   3.323   0.340  12.231  1.0119 -0.9486 -0.2123
10383SOL     OW32589   3.100   1.914   0.598 -0.3292  0.5415 -0.0498
10383SOL    HW132590   3.150   1.927   0.517 -0.0853 -0.5984 -0.1055
10383SOL    HW232591   3.161   1.937   0.668  0.1392 -0.3807 -0.1353
10384SOL     OW32592   4.798   6.499   9.550 -0.2103 -0.3741  0.3881
10384SOL    HW132593   4.874   6.539   9.592 -0.8650  0.4259  0.8385
10384SOL    HW232594   4.814   6.510   9.456  0.0518  0.1444  0.4877
10385SOL     OW32595   1.446   7.477  10.197  0.3475  0.1592  0.6448
10385SOL    HW132596   1.364   7.452  10.154  1.5537 -1.8490 -0.6193
10385SOL    HW232597   1.426   7.472  10.291 -1.2466  0.7345  0.3617
10386SOL     OW32598   1.676   7.069   6.946  0.0387  0.3739  0.0585
10386SOL    HW132599   1.743   7.001   6.953 -1.9094 -1.6372  0.4307
10386SOL    HW232600   1.643   7.079   7.035 -0.8700  0.5277 -0.2813
10387SOL     OW32601   5.257   4.949   9.026  0.4060 -0.2253  0.0312
10387SOL    HW132602   5.288   5.032   9.063  2.9997 -0.6962 -0.8638
10387SOL    HW232603   5.260   4.888   9.099  1.8605 -0.2759 -0.0269
10388SOL     OW32604   6.073   3.548   3.249  0.3896 -0.3781  0.2923
10388SOL    HW132605   6.018   3.504   3.185 -0.7446  0.7070  0.4878
10388SOL    HW232606   6.140   3.483   3.271 -1.0007 -1.8774  0.3200
10389SOL     OW32607   2.336   6.873   9.628  0.3991  0.2868  0.1946
10389SOL    HW132608   2.388   6.953   9.629 -0.3613  0.7785  0.4239
10389SOL    HW232609   2.385   6.813   9.686  1.9026 -0.0462 -1.3301
10390SOL     OW32610   4.737   6.719   1.724  0.2543 -0.0367  0.5538
10390SOL    HW132611   4.753   6.628   1.698  0.3103  0.3068 -0.6679
10390SOL    HW232612   4.643   6.731   1.712  0.1134 -0.1545  1.4802
10391SOL     OW32613   1.089   3.752   6.470  0.0303  0.2809  0.3501
10391SOL    HW132614   1.002   3.761   6.431 -0.2321 -0.0660  0.8458
10391SOL    HW232615   1.142   3.818   6.426 -0.2134 -0.2234 -0.7193
10392SOL     OW32616   2.183   2.186   1.660 -0.0475  0.0975 -0.2006
10392SOL    HW132617   2.143   2.204   1.744 -1.6727  1.1617 -1.1534
10392SOL    HW232618   2.249   2.119   1.679 -1.1889 -0.5646  1.7035
10393SOL     OW32619   5.500   2.038  10.181 -0.4223  0.1437 -0.2007
10393SOL    HW132620   5.497   1.989  10.263 -2.1657  1.0988  0.3411
10393SOL    HW232621   5.579   2.091  10.187  0.5006 -1.1920 -0.0075
10394SOL     OW32622   6.402   3.488   7.136 -0.1376 -0.0174  0.2538
10394SOL    HW132623   6.359   3.433   7.072 -2.4712  1.0959  0.7535
10394SOL    HW232624   6.441   3.427   7.199  0.7486 -1.0804 -1.2737
10395SOL     OW32625   1.494   2.092  11.563 -0.1508  0.0131  0.1711
10395SOL    HW132626   1.585   2.116  11.579  0.4599 -0.5462 -2.1796
10395SOL    HW232627   1.497   2.000  11.537 -1.5984 -0.4734  1.5220
10396SOL     OW32628   4.503   5.742   3.898 -0.0440 -0.2666  0.1431
10396SOL    HW132629   4.449   5.779   3.968 -0.1112 -0.7198  0.3369
10396SOL    HW232630   4.453   5.666   3.868  1.6622 -2.3089  2.1284
10397SOL     OW32631   5.848   0.519   1.743 -0.4024 -0.0292  0.3828
10397SOL    HW132632   5.936   0.491   1.717 -0.3945 -0.0492  0.4299
10397SOL    HW232633   5.798   0.523   1.662 -0.4422 -0.3181  0.3946
10398SOL     OW32634   5.958   0.462   2.863  0.0967 -0.1247 -0.4263
10398SOL    HW132635   6.034   0.510   2.830  0.0100 -0.0862 -0.5701
10398SOL    HW232636   5.916   0.522   2.924 -1.0113  0.6704 -1.9131
10399SOL     OW32637   5.105   4.266   8.735  0.2750  0.3923  0.2383
10399SOL    HW132638   5.190   4.266   8.692 -0.1660 -0.2461 -0.6810
10399SOL    HW232639   5.042   4.269   8.663 -0.4858 -0.1893  0.8572
10400SOL     OW32640   6.355   0.170   9.936  0.2911  0.0148  0.3570
10400SOL    HW132641   6.291   0.240   9.925  0.2869 -0.2125 -1.4300
10400SOL    HW232642   6.307   0.099   9.979 -0.5503  0.0233 -0.5342
10401SOL     OW32643   0.941   6.782   5.178 -0.3792 -0.5620 -0.2817
10401SOL    HW132644   0.910   6.780   5.087  0.5347 -0.7866 -0.5972
10401SOL    HW232645   0.949   6.875   5.198 -1.5131 -0.4900 -0.0953
10402SOL     OW32646   7.178   7.030   2.763 -0.4839  0.0605  0.5088
10402SOL    HW132647   7.122   7.107   2.765 -0.1941  0.4055 -1.7059
10402SOL    HW232648   7.242   7.044   2.833 -2.0008  0.5385  1.8400
10403SOL     OW32649   4.380   2.686   0.711 -0.9847 -0.1207  0.1594
10403SOL    HW132650   4.302   2.679   0.765  0.3468 -1.6032  2.0586
10403SOL    HW232651   4.402   2.595   0.689  1.1838  0.0568  1.2691
10404SOL     OW32652   7.592   4.786  11.864  0.3616  0.7053  0.3157
10404SOL    HW132653   7.655   4.852  11.834  1.7063 -0.4932  0.4249
10404SOL    HW232654   7.512   4.807  11.816  1.0999  1.6889 -0.5480
10405SOL     OW32655   7.416   3.323   4.224 -0.0933 -0.1638 -0.0671
10405SOL    HW132656   7.376   3.404   4.191 -1.4255 -0.5539  0.5130
10405SOL    HW232657   7.385   3.255   4.165  1.2660 -0.2268 -0.7286
10406SOL     OW32658   0.610   1.568   4.121  0.0796  0.3470 -0.3402
10406SOL    HW132659   0.522   1.529   4.115 -0.5404  1.6767 -0.0951
10406SOL    HW232660   0.630   1.567   4.214  0.2436  0.2273 -0.3770
10407SOL     OW32661   1.369   5.788   8.334  0.0090 -0.0133  0.7667
10407SOL    HW132662   1.368   5.872   8.380 -0.4264 -0.0063  0.7457
10407SOL    HW232663   1.449   5.746   8.364  1.0911  1.0830 -0.4278
10408SOL     OW32664   4.437   5.012   4.566 -0.2185  0.4295  0.6071
10408SOL    HW132665   4.461   4.922   4.541 -0.7565 -0.0914  1.8938
10408SOL    HW232666   4.455   5.064   4.487 -0.6381 -0.9293 -0.4321
10409SOL     OW32667   5.982   1.558  12.475  0.1361 -0.0405 -0.3581
10409SOL    HW132668   5.942   1.627  12.422 -0.2363  1.0152  1.2413
10409SOL    HW232669   6.076   1.570  12.462  0.0705 -1.6001 -2.9534
10410SOL     OW32670   6.637   7.171  11.823  0.2328  0.1701 -0.5973
10410SOL    HW132671   6.614   7.210  11.907  0.1707 -0.9518 -0.0807
10410SOL    HW232672   6.660   7.246  11.768  1.0070  0.8825  0.6315
10411SOL     OW32673   6.692   4.837   9.639 -0.2460  0.2801 -0.1170
10411SOL    HW132674   6.681   4.922   9.681  0.7781  1.0818 -1.3887
10411SOL    HW232675   6.772   4.846   9.587 -0.6295 -1.1595 -1.0187
10412SOL     OW32676   4.545   1.674   9.763  0.4620  0.0754  0.3252
10412SOL    HW132677   4.634   1.709   9.768  0.6894 -0.4821  0.2497
10412SOL    HW232678   4.520   1.683   9.671  0.7820 -0.5767  0.1647
10413SOL     OW32679   5.703   2.255  10.829 -0.1019 -0.1149 -0.6127
10413SOL    HW132680   5.710   2.308  10.909  1.4730  1.0422 -1.4559
10413SOL    HW232681   5.609   2.245  10.815 -0.4189  0.0206  1.1357
10414SOL     OW32682   4.293   0.586   5.782 -0.3521  0.3705  0.6543
10414SOL    HW132683   4.241   0.663   5.757  0.1709  0.5226 -0.0038
10414SOL    HW232684   4.265   0.517   5.722 -0.6138  0.1235  1.0553
10415SOL     OW32685   2.963   5.232   1.535  0.1914  0.0399 -0.5623
10415SOL    HW132686   2.981   5.324   1.553 -0.0265  0.2256 -1.2775
10415SOL    HW232687   2.940   5.195   1.620  2.3739  0.1512  0.1489
10416SOL     OW32688   2.482   3.141   3.862  1.1819  0.8901 -0.4434
10416SOL    HW132689   2.544   3.068   3.856 -0.1688 -0.3601  0.1824
10416SOL    HW232690   2.478   3.175   3.772  1.7259  0.0890 -0.7901
10417SOL     OW32691   0.172   7.824   1.317  0.2931  0.3198  0.4792
10417SOL    HW132692   0.080   7.846   1.336  0.3077  0.0891  0.8155
10417SOL    HW232693   0.191   7.750   1.375  0.5665  0.0996  0.1053
10418SOL     OW32694   0.492   5.934   6.571 -0.2647  0.2580  0.1549
10418SOL    HW132695   0.566   5.979   6.610 -0.3204  1.0338 -0.6202
10418SOL    HW232696   0.437   6.003   6.534 -1.4357 -0.2856  0.7983
10419SOL     OW32697   0.445   2.911   1.445 -0.4268  0.0310  0.1472
10419SOL    HW132698   0.476   2.831   1.487 -1.5299  0.5214  2.0035
10419SOL    HW232699   0.518   2.940   1.391  0.0463 -2.1160 -0.4299
10420SOL     OW32700   5.901   2.982   2.134  0.2240 -0.2850  0.1173
10420SOL    HW132701   5.900   3.015   2.044 -1.7341  0.3003  0.3031
10420SOL    HW232702   5.919   3.060   2.187 -1.1309 -0.1130  0.3579
10421SOL     OW32703   4.162   4.745   9.476 -0.4270  0.5900 -0.0833
10421SOL    HW132704   4.229   4.799   9.518 -1.8910  1.1551  1.6250
10421SOL    HW232705   4.081   4.768   9.520 -1.6418 -0.6887 -1.5308
10422SOL     OW32706   2.636   6.494  10.869  0.0752  0.0721 -0.3488
10422SOL    HW132707   2.714   6.549  10.877  1.1732 -1.3782 -0.5762
10422SOL    HW232708   2.663   6.410  10.906 -0.7995 -1.0102 -2.0300
10423SOL     OW32709   4.776   5.826   0.590  0.0493  0.2723 -0.3784
10423SOL    HW132710   4.843   5.884   0.554  0.6299  0.4409  0.9233
10423SOL    HW232711   4.706   5.828   0.525  1.6159 -0.5940 -2.2247
10424SOL     OW32712   6.891   7.617   7.217  0.0300 -0.0272 -0.2891
10424SOL    HW132713   6.892   7.543   7.156  0.7291  0.6692 -1.1590
10424SOL    HW232714   6.953   7.679   7.179 -0.2197  0.8174  0.6599
10425SOL     OW32715   0.867   4.095  10.608 -0.1040 -0.4676 -0.0284
10425SOL    HW132716   0.885   4.080  10.515 -0.0751  0.2848 -0.1577
10425SOL    HW232717   0.927   4.037  10.654 -0.1557 -0.8899 -0.4780
10426SOL     OW32718   7.900   2.004   5.343 -0.0365  0.3897  0.2661
10426SOL    HW132719   7.988   2.027   5.373  0.2383  1.5442 -1.2845
10426SOL    HW232720   7.906   2.006   5.247 -1.7359  0.4550  0.1327
10427SOL     OW32721   6.891   2.198   5.030  0.2745  0.1292 -0.2907
10427SOL    HW132722   6.813   2.219   4.980  0.5573 -0.9059 -1.2238
10427SOL    HW232723   6.924   2.117   4.990 -0.6616 -2.0250  2.9154
10428SOL     OW32724   3.417   2.858   5.291 -0.2859  0.7464 -0.1575
10428SOL    HW132725   3.327   2.890   5.287 -0.6857 -0.0770  1.4406
10428SOL    HW232726   3.438   2.858   5.384  1.5922  1.4945 -0.5555
10429SOL     OW32727   2.030   3.130   9.523  0.4942 -0.4061 -0.1079
10429SOL    HW132728   1.937   3.106   9.532  0.6788 -0.5875  1.7683
10429SOL    HW232729   2.077   3.061   9.569  1.4729  0.3501  0.0628
10430SOL     OW32730   7.357   1.135   7.021 -0.4887 -0.2352 -0.3782
10430SOL    HW132731   7.421   1.179   7.077  1.1668 -0.2902 -2.1040
10430SOL    HW232732   7.281   1.193   7.021 -0.0984  0.3112  0.9878
10431SOL     OW32733   4.223   0.949   0.270 -0.0573 -0.2589  0.3130
10431SOL    HW132734   4.141   0.912   0.236  0.5842 -0.5852 -0.9123
10431SOL    HW232735   4.292   0.895   0.231  0.8158  0.9993  0.0641
10432SOL     OW32736   4.773   1.876   4.867 -0.3781 -0.1124 -0.1390
10432SOL    HW132737   4.732   1.850   4.785  0.7829 -1.1189 -0.4248
10432SOL    HW232738   4.799   1.793   4.908  1.5040  0.4758 -0.0587
10433SOL     OW32739   6.145   5.119   8.533 -0.1073  0.2017  0.1492
10433SOL    HW132740   6.057   5.119   8.571 -1.2436 -2.0546 -2.1371
10433SOL    HW232741   6.130   5.138   8.440  2.0035  1.0346 -0.0671
10434SOL     OW32742   7.642   5.590   2.660  0.6155  0.3724  0.2318
10434SOL    HW132743   7.577   5.521   2.652 -0.5513  1.4156  0.4430
10434SOL    HW232744   7.672   5.605   2.570 -1.1478  1.4402 -0.2316
10435SOL     OW32745   4.873   0.526   6.083 -0.4935  0.5806  0.4791
10435SOL    HW132746   4.814   0.529   6.008  1.3923  2.2674 -1.0362
10435SOL    HW232747   4.933   0.455   6.064 -0.3650  0.6347  0.6770
10436SOL     OW32748   2.431   5.158   0.287  0.3763 -0.2816 -0.0780
10436SOL    HW132749   2.514   5.195   0.317  0.5430 -0.6975 -0.0252
10436SOL    HW232750   2.407   5.213   0.212  0.8291 -0.3198 -0.2576
10437SOL     OW32751   6.030   3.189  10.981 -0.2420 -0.2412 -0.0115
10437SOL    HW132752   6.113   3.234  11.000  0.0812 -0.3279 -1.1732
10437SOL    HW232753   5.975   3.255  10.940 -0.1889 -0.5944 -0.6550
10438SOL     OW32754   7.841   7.375   3.088 -0.1237 -0.1819 -0.6492
10438SOL    HW132755   7.831   7.456   3.038 -0.1277  0.1996 -0.0460
10438SOL    HW232756   7.913   7.329   3.045 -0.4841 -0.1236 -1.3352
10439SOL     OW32757   7.674   2.178   6.720  0.0364  0.0485 -0.5173
10439SOL    HW132758   7.646   2.173   6.812 -0.0945  2.1275 -0.3878
10439SOL    HW232759   7.753   2.124   6.716 -1.1734 -1.8788  0.2643
10440SOL     OW32760   4.740   4.567   0.234 -0.0543  0.4727  0.0174
10440SOL    HW132761   4.712   4.574   0.143 -0.4101  2.0400  0.2189
10440SOL    HW232762   4.671   4.515   0.277 -0.7183  1.1109 -0.2715
10441SOL     OW32763   7.301   3.445   2.812  0.0678  0.1216 -0.0096
10441SOL    HW132764   7.247   3.459   2.890 -0.3211 -2.1829  0.2010
10441SOL    HW232765   7.244   3.468   2.739 -0.6984 -0.7773  0.2823
10442SOL     OW32766   4.606   1.489  12.463  0.4046  0.4103 -1.0532
10442SOL    HW132767   4.687   1.512  12.507 -0.4893 -0.5207  1.2672
10442SOL    HW232768   4.576   1.571  12.422 -0.0683  2.1768  2.4814
10443SOL     OW32769   1.512   6.832   7.986 -0.2687 -0.6721 -0.7782
10443SOL    HW132770   1.574   6.763   7.963 -0.0674 -1.0764  0.9140
10443SOL    HW232771   1.459   6.795   8.057 -0.2504  0.8599  0.0770
10444SOL     OW32772   0.270   1.997   6.003  0.0707  0.4550 -0.5200
10444SOL    HW132773   0.323   1.919   6.017 -1.0892 -0.3715 -0.5431
10444SOL    HW232774   0.212   2.001   6.079  0.0520  1.2313 -0.5711
10445SOL     OW32775   4.899   6.554  10.547  0.6539 -0.2724 -0.1201
10445SOL    HW132776   4.937   6.623  10.492  1.1408  0.0702  0.6391
10445SOL    HW232777   4.901   6.590  10.636 -0.3443 -0.7308  0.0986
10446SOL     OW32778   4.266   2.831   0.515  0.0185  0.6406  0.3723
10446SOL    HW132779   4.343   2.880   0.484 -0.7637  1.3757 -0.4553
10446SOL    HW232780   4.300   2.777   0.586  1.7099 -0.4080 -1.1177
10447SOL     OW32781   6.240   0.474   8.287  0.2919  0.1093  0.6376
10447SOL    HW132782   6.190   0.413   8.342 -0.0754  0.0457  0.2376
10447SOL    HW232783   6.331   0.463   8.315  0.1334 -0.0741  1.0869
10448SOL     OW32784   6.770   0.596   1.269 -0.3633 -0.5953 -0.1506
10448SOL    HW132785   6.845   0.600   1.209 -0.2139 -2.3788 -0.1134
10448SOL    HW232786   6.699   0.558   1.217 -0.6488 -0.8473  0.4138
10449SOL     OW32787   2.285   5.808  11.956 -0.8754 -0.2299 -0.5793
10449SOL    HW132788   2.235   5.729  11.977 -1.3036  0.7246  2.5053
10449SOL    HW232789   2.361   5.803  12.014 -0.9450  1.6340 -0.2941
10450SOL     OW32790   6.665   6.858   8.285 -0.0650  0.0138 -0.2281
10450SOL    HW132791   6.662   6.824   8.375  0.3202  0.8640  0.1180
10450SOL    HW232792   6.611   6.797   8.235 -1.1444  0.0966  0.7722
10451SOL     OW32793   0.459   6.744  12.127 -0.0665 -0.1868  0.3807
10451SOL    HW132794   0.383   6.791  12.093 -0.1676 -1.7355 -1.7663
10451SOL    HW232795   0.429   6.654  12.136  1.4541 -0.8149 -0.4462
10452SOL     OW32796   5.879   0.173   4.400 -0.0538 -0.3045 -0.2416
10452SOL    HW132797   5.873   0.184   4.305 -0.2950  2.9218  0.0370
10452SOL    HW232798   5.789   0.177   4.431  0.1598  1.2943  0.2710
10453SOL     OW32799   0.922   3.125   6.729 -1.0456  0.4254  0.3701
10453SOL    HW132800   0.880   3.107   6.813 -0.6888  1.8495  0.8979
10453SOL    HW232801   0.896   3.215   6.709 -1.9946 -0.2307 -1.6063
10454SOL     OW32802   1.908   7.588   3.765 -0.5391  0.1931  0.4044
10454SOL    HW132803   1.884   7.518   3.826 -2.2636  1.7318  1.5821
10454SOL    HW232804   1.825   7.614   3.725  0.0346  1.7098  0.1556
10455SOL     OW32805   7.526   3.796   0.293  0.0184  0.8993 -0.1513
10455SOL    HW132806   7.493   3.862   0.233 -0.4600  0.1945 -0.6761
10455SOL    HW232807   7.489   3.820   0.378  0.5598  1.7994 -0.1513
10456SOL     OW32808   1.804   6.331   8.824  0.2510  0.1985  0.0802
10456SOL    HW132809   1.800   6.243   8.862  1.1763 -0.0722 -0.4056
10456SOL    HW232810   1.741   6.382   8.875 -0.0174 -0.6489  0.6239
10457SOL     OW32811   1.476   0.698   8.999  0.2582 -0.0881  0.6107
10457SOL    HW132812   1.523   0.773   9.036 -0.2954  1.2695 -1.2740
10457SOL    HW232813   1.487   0.708   8.904 -0.0319 -2.2958  0.3079
10458SOL     OW32814   3.932   0.869   4.116  0.7022  0.6052 -0.3998
10458SOL    HW132815   4.011   0.909   4.152  1.6808 -0.8757 -0.8081
10458SOL    HW232816   3.962   0.786   4.079 -1.3083 -0.7353  0.8158
10459SOL     OW32817   4.943   5.821   9.173 -0.1665 -0.5942  0.9889
10459SOL    HW132818   4.874   5.757   9.153  0.7250 -1.8708  1.8535
10459SOL    HW232819   5.009   5.771   9.221  2.1476  0.1663 -1.1652
10460SOL     OW32820   0.736   5.432   6.527  0.6285 -0.1227 -0.5463
10460SOL    HW132821   0.666   5.368   6.514  0.4744 -0.0783  0.0540
10460SOL    HW232822   0.691   5.511   6.557  1.0438 -0.4458  0.9761
10461SOL     OW32823   2.384   4.096  11.666  0.9642  0.4609  0.6429
10461SOL    HW132824   2.424   4.082  11.580  1.0621  2.7490  0.2553
10461SOL    HW232825   2.291   4.082  11.651  0.9634  0.9812  0.1199
10462SOL     OW32826   1.703   0.210   9.138  0.4261 -0.1224  0.2492
10462SOL    HW132827   1.673   0.237   9.225  0.2056  0.4038  0.0086
10462SOL    HW232828   1.638   0.245   9.078 -0.0148 -1.4076 -0.0514
10463SOL     OW32829   0.591   2.625  10.275 -0.1996 -0.1991 -0.1183
10463SOL    HW132830   0.614   2.717  10.287 -0.8997 -0.1002  0.5739
10463SOL    HW232831   0.638   2.598  10.196  1.3245  0.2938  0.5996
10464SOL     OW32832   5.797   6.902   6.012 -0.1054 -0.1446 -0.2818
10464SOL    HW132833   5.771   6.994   6.019 -1.0712 -0.3258 -1.2241
10464SOL    HW232834   5.881   6.897   6.058 -0.1306  1.1640 -0.0584
10465SOL     OW32835   4.115   0.044   1.672  0.1334 -0.9122 -0.0191
10465SOL    HW132836   4.056   0.116   1.651 -0.9160 -1.4740  0.8974
10465SOL    HW232837   4.057  -0.028   1.698  1.2313 -1.3084  1.4545
10466SOL     OW32838   2.811   4.334  11.619 -0.3216 -0.4508 -0.2520
10466SOL    HW132839   2.856   4.254  11.644  1.2446  0.4371 -0.1041
10466SOL    HW232840   2.823   4.393  11.694  0.3798  0.6208 -1.1598
10467SOL     OW32841   3.108   4.092  11.669 -0.3419 -0.2504 -0.6786
10467SOL    HW132842   3.090   4.175  11.712 -2.1584 -0.4721 -0.9274
10467SOL    HW232843   3.121   4.115  11.577  2.0310  0.0470 -0.3256
10468SOL     OW32844   3.238   2.503  12.345  0.6348 -0.3457  0.4191
10468SOL    HW132845   3.251   2.485  12.438 -0.2501  0.7481  0.7726
10468SOL    HW232846   3.301   2.573  12.325 -0.0107  0.2675  0.5009
10469SOL     OW32847   2.073   1.388  10.241 -0.1548  0.2119 -0.0457
10469SOL    HW132848   2.135   1.397  10.314  0.5580 -0.2492 -0.5804
10469SOL    HW232849   2.057   1.294  10.236 -0.6370  0.2973 -0.1356
10470SOL     OW32850   2.499   6.684   9.747  0.1155  0.4758 -0.0176
10470SOL    HW132851   2.424   6.628   9.766 -0.1020  0.4945 -0.7763
10470SOL    HW232852   2.573   6.642   9.790 -0.1315 -0.1414 -0.1872
10471SOL     OW32853   0.516   6.083   2.325 -0.3439 -0.6673 -0.4629
10471SOL    HW132854   0.448   6.135   2.366  0.7378  0.0241  0.5242
10471SOL    HW232855   0.586   6.146   2.306  1.1648 -1.7662  1.1148
10472SOL     OW32856   4.882   6.324   0.372  0.1289  0.0722  0.3784
10472SOL    HW132857   4.930   6.406   0.359 -2.0160  1.2831 -0.4434
10472SOL    HW232858   4.889   6.279   0.287  0.9480 -0.4303  0.6984
10473SOL     OW32859   1.360   3.382   4.310  0.4655  0.5232 -0.1928
10473SOL    HW132860   1.419   3.379   4.234  0.8567  1.3103  0.0680
10473SOL    HW232861   1.272   3.386   4.272  0.5920 -0.2452 -0.5903
10474SOL     OW32862   3.791   1.130  11.110 -0.4172 -0.3424 -0.3550
10474SOL    HW132863   3.818   1.222  11.098 -2.2816  0.4614  1.1436
10474SOL    HW232864   3.764   1.102  11.023  1.6339 -0.0200 -1.1654
10475SOL     OW32865   7.605   2.746   7.800 -0.2302  0.3856 -0.2248
10475SOL    HW132866   7.613   2.830   7.845  0.4481 -0.0828  0.5517
10475SOL    HW232867   7.590   2.682   7.870  0.7751 -0.3441 -0.6521
10476SOL     OW32868   0.697   0.881   0.507  0.1979  0.2902 -0.3995
10476SOL    HW132869   0.636   0.810   0.528 -0.6282  0.8863 -0.7298
10476SOL    HW232870   0.722   0.866   0.416  0.5640  0.0359 -0.2587
10477SOL     OW32871   5.586   5.204   1.622 -0.0248  0.0543 -0.0518
10477SOL    HW132872   5.499   5.242   1.635  0.7993  1.6521  1.0652
10477SOL    HW232873   5.618   5.244   1.541 -0.1338 -0.1756 -0.2102
10478SOL     OW32874   2.139   4.613   2.304 -0.0987 -0.5398 -0.9588
10478SOL    HW132875   2.170   4.557   2.233 -1.1057 -1.6497 -0.5598
10478SOL    HW232876   2.057   4.573   2.332 -0.1707  0.3806  0.2396
10479SOL     OW32877   3.315   6.538  10.943 -0.0022  0.1868  0.1836
10479SOL    HW132878   3.405   6.557  10.919 -0.1069  1.7199  0.8817
10479SOL    HW232879   3.296   6.454  10.901  0.9705  0.9589 -1.9175
10480SOL     OW32880   4.775   2.984  11.769 -0.1491 -0.3893  0.4322
10480SOL    HW132881   4.796   3.053  11.831 -1.1024  1.1910 -0.9193
10480SOL    HW232882   4.843   2.918  11.783 -0.3896 -0.1786  3.1858
10481SOL     OW32883   0.591   0.757   6.016 -0.4375  0.2233 -0.1560
10481SOL    HW132884   0.562   0.671   6.048 -0.7256 -0.2552 -1.6201
10481SOL    HW232885   0.551   0.765   5.930 -0.1497  1.7101 -0.1780
10482SOL     OW32886   3.469   1.718   0.573  0.2131  0.2647 -0.1944
10482SOL    HW132887   3.521   1.710   0.653  0.5935 -2.0042 -0.6062
10482SOL    HW232888   3.389   1.668   0.591  1.0138 -1.7194 -1.7220
10483SOL     OW32889   1.961   5.038   9.245  0.0770  0.0095 -0.6678
10483SOL    HW132890   1.912   4.962   9.275  1.1484 -0.6021 -0.4087
10483SOL    HW232891   1.938   5.047   9.152  1.9633 -2.3404 -1.4863
10484SOL     OW32892   2.900   2.444   7.122 -0.4230 -0.1615 -0.4792
10484SOL    HW132893   2.814   2.482   7.142  0.3801  1.6803 -0.3015
10484SOL    HW232894   2.941   2.432   7.208  0.2561  0.9098 -0.6356
10485SOL     OW32895   6.148   7.661   6.942  0.0272 -0.4206  0.3855
10485SOL    HW132896   6.084   7.632   7.007  0.6291  1.1423  1.7497
10485SOL    HW232897   6.214   7.708   6.993 -0.2423  2.1935 -1.5015
10486SOL     OW32898   3.021   5.137  11.755 -0.3537  0.1867 -0.2936
10486SOL    HW132899   2.955   5.126  11.824  0.6973  0.2028  0.7449
10486SOL    HW232900   3.054   5.226  11.768  0.1385  0.0433 -0.5626
10487SOL     OW32901   2.127   6.925   4.936  0.3951  0.2267  0.8178
10487SOL    HW132902   2.096   6.997   4.881  1.8567  0.5764  0.4124
10487SOL    HW232903   2.205   6.959   4.979  1.0502 -1.0668  0.7081
10488SOL     OW32904   3.645   5.551  11.403  0.2331  0.1853 -0.5324
10488SOL    HW132905   3.557   5.573  11.374  1.0885  1.8723 -2.0646
10488SOL    HW232906   3.676   5.629  11.448  0.4425 -0.9490  1.4471
10489SOL     OW32907   4.719   5.525   3.740  0.0163  0.2760 -0.0456
10489SOL    HW132908   4.694   5.608   3.782  1.1890  0.3614  0.5134
10489SOL    HW232909   4.654   5.513   3.671  0.2443  2.0334 -0.6208
10490SOL     OW32910   5.079   0.632   1.745  0.1093  0.0770  0.3712
10490SOL    HW132911   5.059   0.680   1.826  1.7671  0.9272  0.3257
10490SOL    HW232912   5.048   0.543   1.761 -2.0150  0.8545  0.9017
10491SOL     OW32913   5.140   5.245  11.561  0.0980 -0.3133 -0.3616
10491SOL    HW132914   5.099   5.320  11.604  1.8674  0.8354 -0.5775
10491SOL    HW232915   5.106   5.247  11.472 -0.1546 -0.0099 -0.2603
10492SOL     OW32916   1.827   6.756   4.868  0.6178 -0.0754  0.2394
10492SOL    HW132917   1.892   6.697   4.830  0.2656 -0.4394  0.2074
10492SOL    HW232918   1.758   6.699   4.902 -0.3202  0.3409 -0.8746
10493SOL     OW32919   2.657   0.263   4.185  0.1497 -0.5237 -0.5625
10493SOL    HW132920   2.678   0.191   4.125 -0.7065 -0.8702 -0.4517
10493SOL    HW232921   2.576   0.236   4.228  1.2678 -0.7584  1.5238
10494SOL     OW32922   5.769   1.210   9.749 -0.0708  0.3856 -0.3583
10494SOL    HW132923   5.835   1.271   9.783  1.0409  0.2908 -2.1818
10494SOL    HW232924   5.750   1.242   9.661 -1.7083 -0.2150 -0.2577
10495SOL     OW32925   3.690   2.273   8.529 -0.1252 -0.3647 -0.5831
10495SOL    HW132926   3.682   2.335   8.602  0.5168 -0.0832 -0.7423
10495SOL    HW232927   3.601   2.242   8.514 -0.2218 -0.6910  0.5488
10496SOL     OW32928   1.921   1.060   0.929 -0.5294  0.0429  0.2867
10496SOL    HW132929   1.995   1.121   0.937  0.8404 -1.1076 -2.2878
10496SOL    HW232930   1.845   1.111   0.956  0.7171  2.4954 -0.4880
10497SOL     OW32931   4.765   6.775   0.872 -0.2060 -0.4115 -0.8753
10497SOL    HW132932   4.782   6.729   0.955 -0.2267 -0.1362 -0.7168
10497SOL    HW232933   4.825   6.849   0.873 -1.3874  0.5749 -0.3148
10498SOL     OW32934   5.541   0.274   7.430  0.1494 -0.0855 -1.0180
10498SOL    HW132935   5.574   0.189   7.457  0.4721 -0.4647 -2.5308
10498SOL    HW232936   5.600   0.337   7.472 -1.0936 -0.4811  1.4988
10499SOL     OW32937   5.651   6.635   7.668 -0.3162  0.9527  0.1031
10499SOL    HW132938   5.561   6.667   7.665 -2.2665 -3.7873 -0.1774
10499SOL    HW232939   5.664   6.590   7.585  2.2599  1.2457  0.2634
10500SOL     OW32940   2.127   3.043   0.911  0.3451  0.1080 -0.0150
10500SOL    HW132941   2.067   3.083   0.848  0.4777  0.5338  0.1275
10500SOL    HW232942   2.119   2.949   0.895 -2.1614 -0.0527  1.5802
10501SOL     OW32943   1.119   5.324   8.745 -0.0129  0.4745 -0.4538
10501SOL    HW132944   1.164   5.338   8.829 -1.1037 -0.3076  0.2903
10501SOL    HW232945   1.171   5.374   8.682 -0.4877  3.1026  1.0702
10502SOL     OW32946   5.650   2.793  12.142 -0.4117  0.2077 -0.1023
10502SOL    HW132947   5.572   2.749  12.107 -0.2040  0.0855 -0.4162
10502SOL    HW232948   5.671   2.744  12.221 -0.3472 -0.0852 -0.2999
10503SOL     OW32949   3.400   2.916   9.862 -0.4672  0.1317  0.3972
10503SOL    HW132950   3.357   2.954   9.939 -1.6229 -2.8503  1.3815
10503SOL    HW232951   3.330   2.907   9.798 -0.6111 -1.5905  0.7446
10504SOL     OW32952   4.872   5.866   9.456  0.0480 -0.3166 -0.0408
10504SOL    HW132953   4.787   5.833   9.429 -0.5924  0.9551  0.3757
10504SOL    HW232954   4.920   5.880   9.374 -1.5019  2.5064 -0.5917
10505SOL     OW32955   1.814   5.178   3.799  0.2217  0.3402 -0.1384
10505SOL    HW132956   1.793   5.101   3.745  1.6514  0.3898 -0.8101
10505SOL    HW232957   1.752   5.173   3.871 -0.7023 -0.6216 -0.9467
10506SOL     OW32958   2.826   7.922   2.555 -0.1350 -0.2118 -0.3532
10506SOL    HW132959   2.822   7.833   2.589  1.7308  0.0651  0.7432
10506SOL    HW232960   2.756   7.969   2.601 -0.0653 -0.7345  0.2959
10507SOL     OW32961   2.071   6.583   0.019  0.1789 -0.2575 -0.1568
10507SOL    HW132962   2.099   6.560  -0.069  0.6826  1.5084 -0.4972
10507SOL    HW232963   2.099   6.510   0.073  0.7413 -0.9276 -1.3181
10508SOL     OW32964   7.006   5.004  11.442  0.3627  0.0067  0.7859
10508SOL    HW132965   6.930   5.058  11.462  0.4534  0.6193 -0.4455
10508SOL    HW232966   6.979   4.915  11.467 -0.8342  0.1818  0.1991
10509SOL     OW32967   1.838   5.858   0.210 -0.1554 -0.5867 -0.5292
10509SOL    HW132968   1.847   5.782   0.153 -0.5881 -1.4579  0.5227
10509SOL    HW232969   1.759   5.840   0.262 -1.1958  1.3302 -1.3542
10510SOL     OW32970   1.661   1.155   1.587 -0.1219 -0.7421 -0.4836
10510SOL    HW132971   1.723   1.087   1.612  0.5551 -0.6417 -1.8102
10510SOL    HW232972   1.645   1.140   1.494 -1.0183  0.0845 -0.4800
10511SOL     OW32973   1.422   4.902  10.871  0.2823 -0.0788 -0.2627
10511SOL    HW132974   1.490   4.958  10.908  0.0811  1.2149 -1.7277
10511SOL    HW232975   1.466   4.854  10.801  0.0881 -0.5690 -0.0504
10512SOL     OW32976   3.669   1.292   2.240  0.8954  0.3803  0.6943
10512SOL    HW132977   3.647   1.265   2.151 -2.3492  1.8659  0.9205
10512SOL    HW232978   3.626   1.227   2.296  0.4643  1.0420  1.1550
10513SOL     OW32979   4.056   5.235  10.878 -0.5171  0.4785  0.2106
10513SOL    HW132980   3.996   5.284  10.933 -1.3612  1.0236 -1.1309
10513SOL    HW232981   4.041   5.270  10.790  0.1307 -0.9762 -0.5148
10514SOL     OW32982   3.621   5.099   7.686  0.0211 -0.1197  0.6884
10514SOL    HW132983   3.696   5.142   7.644  0.6642 -1.4190  0.4576
10514SOL    HW232984   3.660   5.035   7.745 -0.8127 -2.8553 -1.5053
10515SOL     OW32985   2.407   4.377  11.625 -0.4557 -0.1679 -0.3670
10515SOL    HW132986   2.411   4.281  11.618  0.0015 -0.1946  0.1678
10515SOL    HW232987   2.474   4.399  11.690 -0.2851  0.5528 -0.7803
10516SOL     OW32988   4.241   5.667   2.956 -0.0874  0.2789  0.1983
10516SOL    HW132989   4.308   5.624   3.009 -0.8669  0.9318  1.8080
10516SOL    HW232990   4.251   5.630   2.868  1.8550 -0.1865  0.5835
10517SOL     OW32991   1.268   5.191   6.893  0.2063 -0.0905  0.2042
10517SOL    HW132992   1.334   5.173   6.960  1.1540 -1.8199 -1.1106
10517SOL    HW232993   1.295   5.138   6.818 -1.7894  0.4201 -0.9477
10518SOL     OW32994   1.388   6.810   3.084 -0.2683  0.0837  0.3020
10518SOL    HW132995   1.440   6.794   3.162  1.2643 -2.9821 -1.1653
10518SOL    HW232996   1.348   6.726   3.064 -0.1457  0.5800 -2.4657
10519SOL     OW32997   0.300   0.933   5.399  0.6259  0.1837 -0.4022
10519SOL    HW132998   0.328   0.931   5.307  0.1437  0.3571 -0.5522
10519SOL    HW232999   0.239   1.006   5.405  1.4730  0.8523  0.3009
10520SOL     OW33000   4.210   2.787   3.907 -0.2314 -0.3238  0.3370
10520SOL    HW133001   4.244   2.832   3.984  0.9440 -1.4285  0.4901
10520SOL    HW233002   4.247   2.834   3.833  0.9843 -0.9832  0.4979
10521SOL     OW33003   7.743   1.986   8.886 -0.2112 -0.1592  0.3130
10521SOL    HW133004   7.656   1.974   8.848  0.5596 -1.7624 -1.0707
10521SOL    HW233005   7.746   1.924   8.959  0.1524 -0.9697 -0.3730
10522SOL     OW33006   4.036   3.621   0.045  0.3849  0.6625  0.0435
10522SOL    HW133007   4.111   3.575   0.008  0.8281 -0.8827  2.6194
10522SOL    HW233008   3.981   3.642  -0.030  1.2204 -2.1699 -1.4922
10523SOL     OW33009   6.603   4.462   5.442 -0.5448 -0.6753 -0.0345
10523SOL    HW133010   6.604   4.376   5.400 -0.1998  0.1678 -1.8199
10523SOL    HW233011   6.612   4.524   5.370 -0.4243  0.8556  1.2577
10524SOL     OW33012   1.293   2.010   3.146 -0.4828 -0.1978 -0.0213
10524SOL    HW133013   1.261   2.058   3.222 -0.6525  0.9823 -0.8216
10524SOL    HW233014   1.237   1.932   3.142  2.0757 -2.5419  3.4431
10525SOL     OW33015   1.449   1.600   6.056  0.5402  0.1782 -0.0165
10525SOL    HW133016   1.403   1.635   5.980 -0.0638 -0.4073  0.0703
10525SOL    HW233017   1.509   1.670   6.082  0.2331  0.6609 -0.5863
10526SOL     OW33018   0.159   7.178  10.051  0.3049  0.0760  0.3007
10526SOL    HW133019   0.175   7.097  10.001  0.1088 -0.1578  0.6101
10526SOL    HW233020   0.243   7.198  10.092  0.7456  0.8335 -0.9237
10527SOL     OW33021   6.218   1.642   7.706 -0.2688 -0.1389 -0.1128
10527SOL    HW133022   6.207   1.562   7.757 -0.6285 -0.4477 -0.6673
10527SOL    HW233023   6.241   1.612   7.618 -0.9787  0.3389 -0.4788
10528SOL     OW33024   7.551   0.176   2.481 -0.1443  0.2309  0.2381
10528SOL    HW133025   7.576   0.232   2.555  0.3797  0.9378 -0.4534
10528SOL    HW233026   7.556   0.234   2.405  1.3427 -1.0021 -0.6381
10529SOL     OW33027   5.957   6.241   2.256  0.3493  0.4121 -0.1962
10529SOL    HW133028   5.922   6.322   2.220  0.0286  0.9134  1.1843
10529SOL    HW233029   6.029   6.217   2.197  0.3470  1.6192 -0.7039
10530SOL     OW33030   5.683   6.381   5.326  0.0234 -0.5691 -0.1130
10530SOL    HW133031   5.753   6.315   5.324 -0.1030 -0.6976 -0.2820
10530SOL    HW233032   5.608   6.338   5.285  0.2120 -0.0090 -1.0812
10531SOL     OW33033   0.112   7.557   0.390  0.1984  0.0664 -0.1108
10531SOL    HW133034   0.111   7.573   0.484 -0.3873 -1.1423  0.1165
10531SOL    HW233035   0.203   7.568   0.364 -0.0836  3.4086 -0.0115
10532SOL     OW33036   6.970   2.172   9.428  0.8327 -0.0431 -0.6837
10532SOL    HW133037   6.902   2.189   9.363 -0.4975 -0.2588  0.6059
10532SOL    HW233038   6.978   2.255   9.476 -1.3956 -1.0740  1.7099
10533SOL     OW33039   1.716   5.521   9.673 -0.7534  0.1833 -0.2482
10533SOL    HW133040   1.681   5.459   9.737  1.2351  0.1211  0.8522
10533SOL    HW233041   1.734   5.468   9.596 -0.5120 -0.3140  0.1453
10534SOL     OW33042   0.796   4.604   6.892 -0.0821  0.0701  0.0471
10534SOL    HW133043   0.835   4.653   6.819 -0.0341  2.7429  1.7054
10534SOL    HW233044   0.860   4.613   6.962 -1.5949  0.5291  1.4125
10535SOL     OW33045   5.234   2.767   4.908 -0.0135  0.0046 -0.3139
10535SOL    HW133046   5.284   2.848   4.913  0.1292 -0.0378 -0.9358
10535SOL    HW233047   5.245   2.738   4.817 -0.0823 -0.6963 -0.1049
10536SOL     OW33048   2.976   4.613   1.517 -0.3580  0.2133  0.7294
10536SOL    HW133049   3.032   4.543   1.551 -0.3875 -0.1575  0.0460
10536SOL    HW233050   2.944   4.658   1.594 -0.4752 -0.6414  1.1913
10537SOL     OW33051   7.337   5.493   2.237 -0.4901 -0.0525 -0.6678
10537SOL    HW133052   7.383   5.576   2.250 -1.6155  0.7005 -1.2716
10537SOL    HW233053   7.401   5.426   2.259  0.1628  0.9833  0.7473
10538SOL     OW33054   5.382   3.149   5.486 -0.1479  0.1905 -0.4537
10538SOL    HW133055   5.311   3.201   5.525  0.0209  0.0390  0.0635
10538SOL    HW233056   5.337   3.085   5.430 -0.6025 -1.4402  1.6510
10539SOL     OW33057   7.654   5.384   6.413  0.3339 -0.1066 -0.0669
10539SOL    HW133058   7.691   5.305   6.375 -1.6077 -0.9734 -0.2360
10539SOL    HW233059   7.638   5.442   6.338 -0.6214 -0.5865 -0.2417
10540SOL     OW33060   5.919   2.788  10.927 -0.4527  0.2124  0.0134
10540SOL    HW133061   5.996   2.814  10.876 -0.9883 -0.9715 -1.4883
10540SOL    HW233062   5.904   2.697  10.902 -2.2820  0.3913  0.3376
10541SOL     OW33063   7.702   6.543   4.355  0.0964  0.0716  0.0726
10541SOL    HW133064   7.684   6.598   4.279 -0.3553 -0.6305 -0.3370
10541SOL    HW233065   7.694   6.603   4.430  0.1349  0.6759 -0.4021
10542SOL     OW33066   5.668   2.005   4.663 -0.2938 -0.1724 -0.1177
10542SOL    HW133067   5.680   1.935   4.598  0.5880 -1.0413  0.9437
10542SOL    HW233068   5.688   1.964   4.747  1.0227  1.5478  0.4752
10543SOL     OW33069   5.043   1.173   8.337  0.5658 -0.2219 -0.2772
10543SOL    HW133070   5.036   1.125   8.254  3.0021 -1.5855  0.1947
10543SOL    HW233071   5.073   1.260   8.311  0.4700 -0.3609 -0.8834
10544SOL     OW33072   7.188   4.793   9.134  0.5761  0.1098 -0.0222
10544SOL    HW133073   7.212   4.746   9.214 -1.9660 -1.7849 -0.2659
10544SOL    HW233074   7.236   4.748   9.065 -0.0389 -0.6603  0.0338
10545SOL     OW33075   6.711   0.489   6.286  0.1884 -0.0008  0.0866
10545SOL    HW133076   6.749   0.576   6.282  0.3893 -0.1156 -0.8022
10545SOL    HW233077   6.783   0.432   6.314  0.0715  0.1042  0.6130
10546SOL     OW33078   2.499   0.685   4.215  0.2417  0.1243 -0.0503
10546SOL    HW133079   2.478   0.605   4.167 -0.3039  0.0322  0.3315
10546SOL    HW233080   2.490   0.755   4.151 -0.4820  0.0015 -0.0856
10547SOL     OW33081   6.425   6.194   9.237 -1.0155  0.5293 -0.2096
10547SOL    HW133082   6.365   6.177   9.164 -1.3919 -1.7836  0.5622
10547SOL    HW233083   6.370   6.234   9.304 -0.9337  1.5293 -0.7264
10548SOL     OW33084   6.866   4.548   4.023 -0.3413 -0.2726  0.4595
10548SOL    HW133085   6.878   4.518   4.113  0.1251 -0.1003  0.4560
10548SOL    HW233086   6.791   4.608   4.028 -0.2072 -0.1271  0.7629
10549SOL     OW33087   6.389   4.045  12.139 -0.4454 -0.3113  0.3531
10549SOL    HW133088   6.434   3.999  12.210 -0.2694 -0.1856  0.3237
10549SOL    HW233089   6.387   3.981  12.067  1.5051  0.3502 -0.3555
10550SOL     OW33090   0.161   0.399   5.972  0.0581 -0.1344 -0.2654
10550SOL    HW133091   0.151   0.494   5.979 -2.0949 -0.3145 -0.4024
10550SOL    HW233092   0.244   0.380   6.016 -0.6593  1.5294  1.9404
10551SOL     OW33093   2.301   3.965  11.993 -0.0006  0.0716  0.3998
10551SOL    HW133094   2.309   4.058  11.972 -1.4102 -0.2606 -1.9479
10551SOL    HW233095   2.257   3.927  11.918  0.6904 -2.5664  1.2153
10552SOL     OW33096   1.503   6.551   6.402 -0.6591  0.1969  0.2603
10552SOL    HW133097   1.565   6.558   6.474 -1.4846  2.0115  0.8631
10552SOL    HW233098   1.455   6.469   6.419 -0.0495  0.0057  1.0961
10553SOL     OW33099   2.536   1.539   5.132  0.1274  0.1749 -0.0601
10553SOL    HW133100   2.563   1.586   5.211 -0.1060 -1.6538  1.1476
10553SOL    HW233101   2.617   1.510   5.091  0.1908 -0.4364  0.4963
10554SOL     OW33102   7.049   2.537   1.185 -0.2063 -0.0024 -0.0927
10554SOL    HW133103   7.079   2.496   1.266  0.5722 -0.2752 -0.5099
10554SOL    HW233104   6.962   2.500   1.170  0.3010 -1.1580 -0.2231
10555SOL     OW33105   3.000   4.027   4.432 -0.1889 -0.0454 -0.2418
10555SOL    HW133106   3.011   4.086   4.507 -0.2526  0.1237 -0.3658
10555SOL    HW233107   3.087   3.991   4.417 -0.2438 -0.3426  0.1324
10556SOL     OW33108   3.637   0.109   1.455  0.1693 -0.2441  0.0012
10556SOL    HW133109   3.630   0.097   1.550  1.3222 -0.3533  0.0821
10556SOL    HW233110   3.705   0.047   1.427  1.0393  0.9501 -0.6393
10557SOL     OW33111   7.257   6.239  11.614  0.0359 -0.5482 -0.2078
10557SOL    HW133112   7.351   6.225  11.605 -0.0723  0.0553 -3.1702
10557SOL    HW233113   7.217   6.171  11.559 -1.1689  0.4589 -0.6275
10558SOL     OW33114   0.713   3.737   0.732 -0.2132 -0.2341 -0.0947
10558SOL    HW133115   0.795   3.746   0.683 -0.0454  1.5674  0.4459
10558SOL    HW233116   0.740   3.701   0.817 -0.4162 -2.6500 -0.9736
10559SOL     OW33117   2.729   0.960   1.264 -0.1111  0.6199 -0.2552
10559SOL    HW133118   2.791   0.911   1.210  0.0164  1.1187 -0.5646
10559SOL    HW233119   2.698   0.896   1.329  1.1693  0.5228  0.2893
10560SOL     OW33120   1.230   7.952   6.020 -0.4141 -0.0784 -0.4692
10560SOL    HW133121   1.270   7.875   5.980 -1.0668 -0.4442 -0.4390
10560SOL    HW233122   1.225   8.016   5.949 -0.0316 -0.1202 -0.5386
10561SOL     OW33123   5.860   7.882   9.227  0.4699 -0.0023  0.0857
10561SOL    HW133124   5.837   7.873   9.134 -1.9583  0.9311  0.5334
10561SOL    HW233125   5.836   7.972   9.249  1.2534 -0.1287  1.5927
10562SOL     OW33126   6.344   4.012   8.478  0.2211  0.8108 -0.1500
10562SOL    HW133127   6.249   4.023   8.477 -0.2186 -2.2717  0.2763
10562SOL    HW233128   6.373   4.063   8.554 -1.1438  1.2495  0.0985
10563SOL     OW33129   1.437   5.112   8.575 -0.1212  0.2589  0.1225
10563SOL    HW133130   1.397   5.088   8.658 -0.1337 -0.3258 -0.0500
10563SOL    HW233131   1.480   5.196   8.593 -0.8505  0.5596  0.4817
10564SOL     OW33132   7.848   5.111   9.962  0.7153  0.0339  0.1465
10564SOL    HW133133   7.802   5.194   9.954 -0.9323 -0.7517  0.9026
10564SOL    HW233134   7.835   5.068   9.877  2.4408  0.9271 -0.6118
10565SOL     OW33135   5.566   4.612   2.952 -0.0121  0.0730  0.2630
10565SOL    HW133136   5.645   4.581   2.997  1.6951  0.1603 -2.4422
10565SOL    HW233137   5.553   4.700   2.986 -0.9867 -1.0800  3.1564
10566SOL     OW33138   2.013   6.000   9.740 -0.2295  0.4562  0.5780
10566SOL    HW133139   2.050   5.916   9.765  2.2763  1.6123  1.0467
10566SOL    HW233140   1.923   5.998   9.774 -0.3923 -2.1354  0.2138
10567SOL     OW33141   6.380   3.457   6.689  0.5735 -0.4950 -0.0018
10567SOL    HW133142   6.392   3.376   6.639 -0.1888 -1.4262  1.2508
10567SOL    HW233143   6.326   3.512   6.632  1.3892 -0.7162 -1.0158
10568SOL     OW33144   0.850   4.598   0.999  0.5179  1.4967  0.3380
10568SOL    HW133145   0.783   4.609   1.067 -1.0280 -0.9086 -0.6535
10568SOL    HW233146   0.933   4.598   1.047 -0.3817  1.8253  1.9614
10569SOL     OW33147   2.932   6.445   1.253  0.4083 -0.0032  0.0073
10569SOL    HW133148   3.007   6.477   1.303 -0.3014  1.1530  0.3602
10569SOL    HW233149   2.957   6.457   1.162  1.3342 -1.2471  0.0732
10570SOL     OW33150   0.496   1.121   4.495 -0.5456 -0.4707  0.1971
10570SOL    HW133151   0.401   1.124   4.500 -0.5250  0.2749  0.2385
10570SOL    HW233152   0.515   1.099   4.403 -0.7521 -0.8133  0.2328
10571SOL     OW33153   7.008   7.226  12.025  0.3522 -0.2824 -0.1916
10571SOL    HW133154   7.066   7.299  12.050  0.7883 -0.0492 -1.7978
10571SOL    HW233155   6.948   7.264  11.961 -1.0698 -0.7391  0.8405
10572SOL     OW33156   4.256   0.526  12.115 -0.0872  0.0883  0.4113
10572SOL    HW133157   4.169   0.502  12.081 -0.1443 -0.2469  0.7905
10572SOL    HW233158   4.276   0.459  12.180  1.1313 -0.7493 -0.7509
10573SOL     OW33159   0.438   7.463   4.455  0.0864 -0.0980  0.5625
10573SOL    HW133160   0.425   7.531   4.388 -0.7688  0.5588  1.3678
10573SOL    HW233161   0.525   7.429   4.438 -0.2665 -0.2505 -1.1650
10574SOL     OW33162   4.002   0.400  11.385  0.2703  0.1882 -0.5616
10574SOL    HW133163   4.042   0.347  11.316 -1.3582 -2.1104  0.1600
10574SOL    HW233164   3.926   0.350  11.413 -1.0727  2.6950  0.5817
10575SOL     OW33165   7.407   7.938   4.983 -0.0260  0.7469  0.0382
10575SOL    HW133166   7.432   7.965   4.894  1.2850  0.3601  0.2731
10575SOL    HW233167   7.335   7.876   4.969  0.7573 -0.0088 -0.8166
10576SOL     OW33168   6.992   7.395   8.472 -0.3090 -0.0534 -0.4640
10576SOL    HW133169   6.970   7.337   8.399 -0.1526 -0.4584 -0.1868
10576SOL    HW233170   6.984   7.341   8.550 -1.2007  0.5679 -0.1040
10577SOL     OW33171   6.798   3.046   3.732  0.1940  0.1531  0.1445
10577SOL    HW133172   6.709   3.075   3.754  0.1715  1.1373 -1.1488
10577SOL    HW233173   6.785   2.971   3.674  0.2401 -0.6954  1.1996
10578SOL     OW33174   5.930   1.469   0.716  0.0730  0.5099  0.2087
10578SOL    HW133175   6.010   1.422   0.692 -0.0579 -0.8363  2.2070
10578SOL    HW233176   5.864   1.439   0.653 -0.1379 -2.4896  1.6960
10579SOL     OW33177   7.076   7.456  12.224  0.2383 -0.2910 -0.3809
10579SOL    HW133178   7.034   7.535  12.191  0.8204  0.9587  1.6901
10579SOL    HW233179   7.119   7.484  12.305  2.4716 -2.2015 -0.8149
10580SOL     OW33180   7.386   0.525   8.466 -0.1215  0.3246  0.0763
10580SOL    HW133181   7.422   0.560   8.547 -0.5770  0.3103  0.2859
10580SOL    HW233182   7.390   0.430   8.477  0.9975  0.2968 -0.4418
10581SOL     OW33183   6.121   7.218   9.036 -0.7298 -0.1922 -0.2597
10581SOL    HW133184   6.201   7.236   9.087 -0.8550 -1.3590  0.3778
10581SOL    HW233185   6.123   7.283   8.966  0.7390 -0.1312 -0.2054
10582SOL     OW33186   1.010   6.867   8.084  0.5194  0.0594  0.2586
10582SOL    HW133187   1.066   6.944   8.083  0.7466 -0.0965 -0.9893
10582SOL    HW233188   0.987   6.853   7.992 -1.8312  0.2887  0.7482
10583SOL     OW33189   2.097   6.327   8.631  0.7835 -0.3823 -0.1623
10583SOL    HW133190   2.041   6.405   8.630  0.0102 -0.9304 -0.9943
10583SOL    HW233191   2.163   6.346   8.698  0.3845  0.8244 -0.0844
10584SOL     OW33192   5.340   4.234  10.536  0.5430  0.1680  0.0559
10584SOL    HW133193   5.272   4.189  10.487  1.2628 -2.3531  1.1893
10584SOL    HW233194   5.357   4.314  10.486 -1.2812 -0.4628 -1.7256
10585SOL     OW33195   0.386   7.834   7.168  0.6183  0.0747  0.3814
10585SOL    HW133196   0.333   7.880   7.233  0.0893  0.2291 -0.1508
10585SOL    HW233197   0.323   7.779   7.121  0.9631  0.0991 -0.1171
10586SOL     OW33198   5.112   3.975   4.414  0.2618 -0.4161 -0.1887
10586SOL    HW133199   5.112   4.067   4.443  2.2395 -0.7583  1.0775
10586SOL    HW233200   5.123   3.979   4.319  1.1034  0.6590 -0.0628
10587SOL     OW33201   0.956   2.701  10.486  0.1429 -0.2449 -0.2049
10587SOL    HW133202   0.961   2.671  10.395 -1.1508 -2.7842  0.4527
10587SOL    HW233203   0.947   2.620  10.537  0.6799  1.1181  2.1857
10588SOL     OW33204   3.958   3.735   8.239 -0.1955  0.2307 -0.0087
10588SOL    HW133205   3.867   3.751   8.261 -0.0138  0.0157  0.9476
10588SOL    HW233206   3.972   3.642   8.258  0.5216  0.5260  1.0183
10589SOL     OW33207   4.263   7.146   5.598  0.4703 -0.4456 -0.4790
10589SOL    HW133208   4.258   7.219   5.536 -0.2419 -0.7753 -0.8240
10589SOL    HW233209   4.349   7.154   5.638  0.9552 -0.2442 -1.5353
10590SOL     OW33210   2.748   7.441   7.728  0.2659 -0.4694 -0.1369
10590SOL    HW133211   2.710   7.528   7.744  0.3832 -0.3305 -0.6026
10590SOL    HW233212   2.804   7.425   7.804 -0.1268 -0.3467  0.1830
10591SOL     OW33213   3.000   4.283  12.192 -0.0622 -0.1315 -0.2209
10591SOL    HW133214   2.940   4.239  12.252  0.6722 -0.4589  0.2831
10591SOL    HW233215   3.028   4.361  12.239 -0.6976  0.4452 -0.7741
10592SOL     OW33216   7.294   1.621   8.971 -0.7231  0.4613  0.1594
10592SOL    HW133217   7.292   1.708   9.011  0.6383  0.7319 -0.2913
10592SOL    HW233218   7.317   1.638   8.880  0.9754 -0.4439  0.3868
10593SOL     OW33219   7.606   2.102   4.761 -0.0089 -0.1043 -0.4638
10593SOL    HW133220   7.662   2.077   4.687 -1.3817  0.5337 -1.7530
10593SOL    HW233221   7.651   2.176   4.801  1.5269 -1.3976  0.3330
10594SOL     OW33222   5.287   0.837   8.777 -0.3172  0.2497  0.1790
10594SOL    HW133223   5.246   0.751   8.777  3.7365 -1.9339 -0.3689
10594SOL    HW233224   5.336   0.841   8.860  1.3486  1.0140 -0.7922
10595SOL     OW33225   0.929   4.899  11.252  0.0465 -0.5622 -0.0740
10595SOL    HW133226   0.838   4.889  11.222 -0.5104  2.2334  0.4291
10595SOL    HW233227   0.922   4.903  11.348  0.6644 -0.0923 -0.0455
10596SOL     OW33228   7.567   5.028   6.627  0.2797  0.2878 -0.5899
10596SOL    HW133229   7.652   5.055   6.592  1.2883 -1.3012  0.5393
10596SOL    HW233230   7.573   4.933   6.635 -1.0975  0.2861  0.8319
10597SOL     OW33231   0.770   1.919   7.510 -0.2300  0.6152 -0.1625
10597SOL    HW133232   0.854   1.952   7.542  0.0552 -0.2217 -0.0272
10597SOL    HW233233   0.725   1.888   7.589 -0.1773 -0.0041 -0.3679
10598SOL     OW33234   7.133   0.620   6.231  0.2236 -0.0297  0.2986
10598SOL    HW133235   7.182   0.641   6.310 -0.8456 -1.3459  1.3610
10598SOL    HW233236   7.146   0.526   6.218 -0.1919  0.0318 -0.6829
10599SOL     OW33237   3.444   0.187   8.550 -0.2171  0.2752 -0.0850
10599SOL    HW133238   3.452   0.246   8.625  0.7193 -0.9468  0.8057
10599SOL    HW233239   3.353   0.157   8.552 -0.0322 -0.2243  0.9283
10600SOL     OW33240   3.057   1.767   0.006  0.0529 -0.1584 -0.3991
10600SOL    HW133241   2.962   1.767  -0.002  0.0912  1.1364 -1.1716
10600SOL    HW233242   3.084   1.679  -0.021 -0.8797 -0.3528 -0.7235
10601SOL     OW33243   1.720   3.939  10.528 -0.1951 -0.3621 -0.0734
10601SOL    HW133244   1.746   4.017  10.480  0.3359  0.2260  1.1346
10601SOL    HW233245   1.628   3.954  10.551  0.5965  1.1633  2.4359
10602SOL     OW33246   1.044   0.023   1.157  0.0692 -0.0579 -0.6149
10602SOL    HW133247   1.047   0.103   1.208  1.2569  0.3366 -1.2744
10602SOL    HW233248   1.122  -0.026   1.184 -0.8937 -1.2455  0.1498
10603SOL     OW33249   5.205   6.270   4.719  0.1074 -0.4000 -0.6710
10603SOL    HW133250   5.126   6.298   4.673  0.2662  0.5730 -0.3828
10603SOL    HW233251   5.175   6.205   4.783 -0.6112  0.5736  0.0151
10604SOL     OW33252   0.060   5.579  11.254  0.8436 -0.1008 -0.4570
10604SOL    HW133253   0.126   5.508  11.252  0.3853 -0.5395 -0.2462
10604SOL    HW233254   0.078   5.625  11.336 -1.3644 -2.4466  1.5416
10605SOL     OW33255   1.874   5.507   4.691  0.1628 -0.0001  0.3485
10605SOL    HW133256   1.866   5.576   4.625 -2.8087  0.2628  0.8313
10605SOL    HW233257   1.926   5.548   4.761 -0.1383  1.1949 -0.0920
10606SOL     OW33258   0.490   1.101   6.212 -0.2503 -0.2314 -0.1903
10606SOL    HW133259   0.472   1.190   6.243 -0.8082 -0.1955 -0.5965
10606SOL    HW233260   0.582   1.103   6.187 -0.4120  0.4099 -0.7726
10607SOL     OW33261   1.002   7.045   0.786 -0.2422 -0.3260 -1.3636
10607SOL    HW133262   0.918   7.087   0.766 -0.1430  0.7758  0.3718
10607SOL    HW233263   1.068   7.104   0.750 -0.1410  0.4663  0.0585
10608SOL     OW33264   4.849   6.884   3.032  0.1156 -0.2216  0.1376
10608SOL    HW133265   4.767   6.865   3.077  0.4336  0.3653  1.0138
10608SOL    HW233266   4.824   6.936   2.956 -0.2378  1.2074  1.1846
10609SOL     OW33267   0.505   5.570  11.214 -0.6967 -0.5676  0.0749
10609SOL    HW133268   0.579   5.535  11.165 -1.8016 -4.2582  0.7184
10609SOL    HW233269   0.534   5.569  11.305 -0.5404  1.0276  0.0776
10610SOL     OW33270   6.193   1.356   1.506 -0.7500  0.1267 -0.5563
10610SOL    HW133271   6.287   1.340   1.512 -0.6496  0.0125 -2.0982
10610SOL    HW233272   6.184   1.450   1.521 -0.1543  0.4993 -2.3328
10611SOL     OW33273   1.584   0.501  10.836  0.3431  0.4455  0.3963
10611SOL    HW133274   1.489   0.509  10.843  0.2250  1.6057 -1.8466
10611SOL    HW233275   1.615   0.591  10.824  1.2736 -0.2200 -3.0484
10612SOL     OW33276   7.550   1.073  10.988 -0.3845 -0.3881  0.1714
10612SOL    HW133277   7.611   1.090  11.060 -0.6499 -0.6891  0.4710
10612SOL    HW233278   7.593   1.006  10.935 -0.6126 -0.8664  0.5833
10613SOL     OW33279   3.618   4.042   2.020  0.4680  0.0805 -0.3366
10613SOL    HW133280   3.566   4.100   1.964 -0.9764  0.5803  1.4493
10613SOL    HW233281   3.609   3.956   1.978 -2.0939  0.0782  0.0095
10614SOL     OW33282   6.523   1.115  10.740  0.2340 -0.5971  0.2537
10614SOL    HW133283   6.477   1.031  10.749 -0.5131 -0.1445  0.7552
10614SOL    HW233284   6.573   1.124  10.821  1.9234 -1.4884 -0.6458
10615SOL     OW33285   0.028   1.984   3.847  0.4486 -0.0964  0.1724
10615SOL    HW133286   0.061   2.050   3.785  0.0426  0.6651  0.7442
10615SOL    HW233287   0.049   2.021   3.933 -1.3918  0.1659  0.5510
10616SOL     OW33288   6.404   3.347   1.141 -0.3778  0.0432  0.1008
10616SOL    HW133289   6.355   3.410   1.194 -1.9881 -0.4071 -0.7922
10616SOL    HW233290   6.428   3.278   1.203 -0.9300  0.2504  0.5581
10617SOL     OW33291   0.999   1.687   2.072 -0.1384  0.0890 -0.1212
10617SOL    HW133292   0.922   1.631   2.070  0.4163 -0.9697  3.0905
10617SOL    HW233293   0.977   1.757   2.134  0.4448  1.5306 -1.4559
10618SOL     OW33294   5.739   1.274  12.222  0.5750  0.3912 -0.4051
10618SOL    HW133295   5.775   1.337  12.284  0.3057 -0.8077  1.0244
10618SOL    HW233296   5.796   1.198  12.230 -0.3073 -0.2982 -0.5824
10619SOL     OW33297   6.963   6.708   3.932  0.1808 -0.8976 -0.4019
10619SOL    HW133298   7.019   6.639   3.968  3.4931  0.8980 -1.6733
10619SOL    HW233299   6.998   6.789   3.970 -1.0562  0.3920 -1.8781
10620SOL     OW33300   3.319   0.462   4.293 -0.2860  0.1636 -0.2013
10620SOL    HW133301   3.375   0.389   4.266  0.3238 -0.2193  1.8956
10620SOL    HW233302   3.231   0.425   4.296  0.1032 -0.7271  1.4669
10621SOL     OW33303   2.361   3.064   7.363 -0.2798 -0.2943 -0.6527
10621SOL    HW133304   2.291   3.120   7.396 -0.4593 -0.2789 -1.0597
10621SOL    HW233305   2.383   3.101   7.277  0.4157 -0.1297 -0.4177
10622SOL     OW33306   3.188   5.460   6.870 -0.1881  0.5019 -0.2144
10622SOL    HW133307   3.106   5.421   6.840  0.1732  1.4737 -2.7443
10622SOL    HW233308   3.211   5.522   6.801  3.0555 -0.2385  0.0414
10623SOL     OW33309   0.641   6.888   7.638  0.2631 -0.2255 -0.7194
10623SOL    HW133310   0.713   6.895   7.574  2.1514  0.8268  1.3682
10623SOL    HW233311   0.652   6.965   7.695 -1.4980 -0.9681  0.7206
10624SOL     OW33312   6.471   1.456   9.807 -0.1159 -0.3058 -0.3289
10624SOL    HW133313   6.479   1.365   9.835  1.0777  0.4081  1.8112
10624SOL    HW233314   6.377   1.468   9.793 -0.2010 -2.1107 -1.6503
10625SOL     OW33315   4.854   0.636  12.108  0.3033 -0.1305 -0.6996
10625SOL    HW133316   4.947   0.643  12.084  0.7459 -0.9931  0.6237
10625SOL    HW233317   4.821   0.566  12.053  0.8163 -0.7775 -0.2083
10626SOL     OW33318   4.098   1.309   6.627 -0.1541 -0.2287 -0.8353
10626SOL    HW133319   4.119   1.372   6.558 -0.5871  1.1469  0.2396
10626SOL    HW233320   4.182   1.283   6.663 -0.0099  0.6712 -0.5000
10627SOL     OW33321   2.415   6.825   8.898  0.5291 -0.0491  0.0509
10627SOL    HW133322   2.366   6.824   8.980  0.8501 -1.1414  0.2463
10627SOL    HW233323   2.354   6.788   8.833 -0.0884  1.7623 -0.4420
10628SOL     OW33324   4.682   7.634   9.897  0.1855 -0.1810  0.0029
10628SOL    HW133325   4.590   7.658   9.909  0.1600  0.1665 -0.7713
10628SOL    HW233326   4.690   7.548   9.938 -0.8336 -0.8453 -1.1204
10629SOL     OW33327   4.039   6.519   6.077  0.2845 -0.1100  0.3580
10629SOL    HW133328   4.027   6.469   6.158  1.3901  1.0894  1.3144
10629SOL    HW233329   3.961   6.575   6.072 -1.0561 -1.9639 -0.8233
10630SOL     OW33330   1.622   7.094   9.646 -0.2312  0.5702  0.3128
10630SOL    HW133331   1.716   7.076   9.649  0.2214  2.4488 -1.1781
10630SOL    HW233332   1.590   7.045   9.570 -0.0853  1.4185 -0.3041
10631SOL     OW33333   3.675   0.593   5.238  0.2235 -0.4727  0.2404
10631SOL    HW133334   3.705   0.678   5.204  0.8061 -0.0105  1.7895
10631SOL    HW233335   3.752   0.536   5.229 -0.0972 -0.7731 -0.5953
10632SOL     OW33336   0.616   4.247   1.410 -0.1220 -0.0208 -0.7870
10632SOL    HW133337   0.669   4.168   1.404  0.1921  0.2545 -1.6822
10632SOL    HW233338   0.670   4.316   1.373 -0.1346  0.7684  0.5794
10633SOL     OW33339   4.116   0.693  11.127 -0.1695  0.6555 -0.3996
10633SOL    HW133340   4.140   0.692  11.220  0.6306 -0.2706 -0.6037
10633SOL    HW233341   4.065   0.773  11.117 -0.6326  0.5550  0.9296
10634SOL     OW33342   4.196   4.485   2.266  0.1284 -0.0294  0.3091
10634SOL    HW133343   4.269   4.450   2.317 -0.3520  0.3199  1.2719
10634SOL    HW233344   4.121   4.479   2.325 -0.3093  1.0259 -0.1199
10635SOL     OW33345   5.598   0.822   3.860 -0.1613  0.5115  0.1769
10635SOL    HW133346   5.666   0.833   3.794 -0.1515 -0.6287 -0.0201
10635SOL    HW233347   5.646   0.803   3.941 -0.1448  2.4562  0.6782
10636SOL     OW33348   0.720   1.242   0.202  0.1443 -0.3354  0.3311
10636SOL    HW133349   0.768   1.163   0.178 -0.2868 -0.7775  0.9036
10636SOL    HW233350   0.671   1.218   0.280  0.0257  0.5073  0.5296
10637SOL     OW33351   1.503   7.223   8.648 -0.1076  0.3839  0.4048
10637SOL    HW133352   1.410   7.246   8.647 -0.5395 -1.1038 -2.5419
10637SOL    HW233353   1.535   7.247   8.561  1.1262 -3.1469 -0.2792
10638SOL     OW33354   7.927   0.015   8.966  0.1129  0.5384 -0.3482
10638SOL    HW133355   7.882   0.100   8.968  0.5675  0.7732 -0.0014
10638SOL    HW233356   7.899  -0.025   8.884 -1.7436  0.1290  0.4236
10639SOL     OW33357   4.443   4.784   9.680 -0.6172  0.7131 -0.2037
10639SOL    HW133358   4.436   4.819   9.591  0.9352  2.5988  0.3201
10639SOL    HW233359   4.364   4.813   9.724 -0.6806  1.1131 -0.5757
10640SOL     OW33360   3.873   1.179  11.494 -0.3291 -0.2711  0.4232
10640SOL    HW133361   3.937   1.114  11.464 -0.1732 -0.3373  0.8881
10640SOL    HW233362   3.793   1.159  11.446  0.0941  0.0229 -0.4219
10641SOL     OW33363   6.617   5.708   0.650  0.2292 -0.2353  0.4358
10641SOL    HW133364   6.708   5.733   0.667  0.1058  0.5442  0.0023
10641SOL    HW233365   6.605   5.725   0.556  0.4373 -2.9111 -0.1790
10642SOL     OW33366   2.145   2.612   9.584 -0.2025  0.0406  0.6131
10642SOL    HW133367   2.168   2.526   9.619  0.4517  0.4378  1.1862
10642SOL    HW233368   2.170   2.608   9.491  1.6762  0.2380  1.0704
10643SOL     OW33369   2.580   0.245   6.160 -0.5381  0.0354  0.0320
10643SOL    HW133370   2.551   0.168   6.209  0.2516 -0.0816  0.3206
10643SOL    HW233371   2.508   0.262   6.099 -0.6840 -0.9879 -0.1020
10644SOL     OW33372   5.808   7.392   0.647  0.5608 -0.0170  0.0595
10644SOL    HW133373   5.715   7.369   0.644  0.5899 -0.0945 -2.1747
10644SOL    HW233374   5.809   7.485   0.672 -0.0857 -0.1490  0.5902
10645SOL     OW33375   3.533   4.289   1.225  0.1093  0.3016  0.0746
10645SOL    HW133376   3.481   4.350   1.173  0.7097  0.6124 -0.1759
10645SOL    HW233377   3.506   4.203   1.194  0.0640  0.4713 -0.3731
10646SOL     OW33378   7.720   2.298  11.692 -0.2603  0.0354  0.4681
10646SOL    HW133379   7.682   2.384  11.705 -1.0184 -0.2562  0.2265
10646SOL    HW233380   7.704   2.278  11.600  0.7836  0.0509  0.2738
10647SOL     OW33381   5.050   2.894   7.743 -0.0272  0.0544  0.1240
10647SOL    HW133382   5.009   2.828   7.687  2.0563 -1.2083 -0.0369
10647SOL    HW233383   4.982   2.960   7.756 -1.2362 -0.6283 -2.1771
10648SOL     OW33384   4.903   6.127   7.910 -0.1037  0.3263  0.3832
10648SOL    HW133385   4.907   6.159   8.000 -0.0490 -0.1607  0.5598
10648SOL    HW233386   4.947   6.042   7.913  1.7143  1.1949 -0.5201
10649SOL     OW33387   5.551   6.448   8.184 -0.2100 -0.7278  0.6954
10649SOL    HW133388   5.621   6.451   8.118 -1.4850 -0.9544 -0.7257
10649SOL    HW233389   5.591   6.483   8.263  1.0181  0.7652 -0.5302
10650SOL     OW33390   3.984   6.854   5.706  0.0322  0.2874  0.3855
10650SOL    HW133391   4.003   6.830   5.797 -2.5378 -1.7282  0.5045
10650SOL    HW233392   4.040   6.797   5.654  1.2808  1.2265  0.6495
10651SOL     OW33393   6.781   4.738   8.207 -0.3319 -0.0195  0.1215
10651SOL    HW133394   6.737   4.767   8.127 -1.0406  0.1980  0.5788
10651SOL    HW233395   6.867   4.708   8.178 -1.1118 -1.3403 -0.9279
10652SOL     OW33396   6.127   4.001   0.237  0.3844 -0.0789 -0.1898
10652SOL    HW133397   6.126   3.980   0.143  1.8162 -0.5341 -0.1274
10652SOL    HW233398   6.092   3.923   0.279  3.8632 -1.8235 -0.1010
10653SOL     OW33399   1.848   2.246   9.837 -0.0464 -0.2395  0.0032
10653SOL    HW133400   1.917   2.202   9.887  0.6385 -0.3874 -1.0438
10653SOL    HW233401   1.782   2.269   9.903  0.7785 -0.5141  0.9571
10654SOL     OW33402   6.636   0.622   9.935  0.2777  0.4070 -0.7311
10654SOL    HW133403   6.588   0.564   9.995 -2.6951 -1.7080 -4.6178
10654SOL    HW233404   6.657   0.566   9.860  1.7595  3.2782 -2.6445
10655SOL     OW33405   7.227   7.027  11.463  0.0884  0.2670 -0.4070
10655SOL    HW133406   7.261   6.944  11.496 -0.4503  0.1833 -0.0443
10655SOL    HW233407   7.198   7.074  11.541  2.0601  1.5923 -0.4071
10656SOL     OW33408   1.826   7.565   7.693  0.1383  0.1617  0.2024
10656SOL    HW133409   1.781   7.571   7.609  0.4237  0.1063  0.0426
10656SOL    HW233410   1.919   7.570   7.670  0.2218 -0.0191  0.4986
10657SOL     OW33411   5.637   3.305   2.150 -0.3290  0.4832  0.7616
10657SOL    HW133412   5.641   3.397   2.179  0.1894  0.4198  0.9061
10657SOL    HW233413   5.724   3.288   2.115 -0.5637  0.1743  0.3295
10658SOL     OW33414   0.339   2.436   3.807 -0.0364  0.0004 -0.2382
10658SOL    HW133415   0.396   2.475   3.875 -0.0917  0.2611 -0.3393
10658SOL    HW233416   0.400   2.410   3.738  0.6151 -4.0904  1.5532
10659SOL     OW33417   6.738   2.986   0.257 -0.7683 -0.1232  0.2699
10659SOL    HW133418   6.829   2.957   0.265 -0.7112  0.5269  2.7805
10659SOL    HW233419   6.709   2.951   0.173  1.7416 -0.4750 -0.5360
10660SOL     OW33420   1.761   4.495   9.394 -0.1227  0.0288 -0.5474
10660SOL    HW133421   1.674   4.460   9.376 -1.3735  3.2863 -1.5437
10660SOL    HW233422   1.814   4.467   9.319 -0.5498 -1.1698 -0.4192
10661SOL     OW33423   0.841   4.812   0.104  0.2806 -0.3109 -0.2263
10661SOL    HW133424   0.770   4.869   0.133 -0.7147 -1.2515 -0.7297
10661SOL    HW233425   0.901   4.808   0.178 -1.1465 -0.9992  0.9372
10662SOL     OW33426   5.778   2.018   4.073 -0.6784  0.3775  0.0825
10662SOL    HW133427   5.689   1.988   4.092 -0.1006 -2.7095 -1.3930
10662SOL    HW233428   5.810   2.052   4.156 -2.0185 -1.9624  1.6888
10663SOL     OW33429   1.213   1.346  11.930 -0.1589 -0.5573  0.1907
10663SOL    HW133430   1.193   1.426  11.979 -0.2390 -0.8202  0.5920
10663SOL    HW233431   1.183   1.275  11.987  0.3726 -0.8934  0.0605
10664SOL     OW33432   6.641   3.061   4.849  0.0210  0.0987  0.0405
10664SOL    HW133433   6.597   3.064   4.764  1.2772 -0.1955 -0.6526
10664SOL    HW233434   6.733   3.044   4.827 -0.1420 -3.7526  1.5679
10665SOL     OW33435   1.344   4.057   1.119  0.0724  0.1871  0.1077
10665SOL    HW133436   1.304   4.102   1.045  2.1745  1.8364 -0.1449
10665SOL    HW233437   1.383   4.128   1.171  0.2221 -1.0786  1.8212
10666SOL     OW33438   5.155   0.899   4.862  0.4184  0.1378  0.0200
10666SOL    HW133439   5.232   0.899   4.919  0.2184  1.1226  0.3214
10666SOL    HW233440   5.188   0.927   4.777  0.6310 -0.8491 -0.2361
10667SOL     OW33441   1.553   5.635   2.717  0.3447  0.1141  0.5641
10667SOL    HW133442   1.482   5.658   2.777  0.8837 -0.2945  1.3732
10667SOL    HW233443   1.616   5.706   2.726 -0.0708  0.6338 -0.3810
10668SOL     OW33444   3.360   7.632   8.124 -0.0357  0.1043  0.2690
10668SOL    HW133445   3.445   7.590   8.112  0.3348 -0.1233  3.0829
10668SOL    HW233446   3.374   7.722   8.093  1.2634  0.0787  0.7127
10669SOL     OW33447   3.329   2.926  12.031  0.3219  0.2380  0.0833
10669SOL    HW133448   3.354   2.894  11.945  0.5407  0.7599 -0.0545
10669SOL    HW233449   3.268   2.998  12.014 -0.5604 -0.4266  0.3993
10670SOL     OW33450   2.500   1.406   0.483  0.1226  0.1183  0.0828
10670SOL    HW133451   2.539   1.396   0.570  0.5463  0.8926 -0.0107
10670SOL    HW233452   2.426   1.344   0.483  0.5678 -0.4326  0.7177
10671SOL     OW33453   1.222   4.237   8.998  0.2823  0.9899  0.0677
10671SOL    HW133454   1.159   4.304   8.972 -1.7852 -0.8152  0.2414
10671SOL    HW233455   1.187   4.155   8.965  1.5373 -0.3650  1.8428
10672SOL     OW33456   5.400   1.891  11.544 -0.4651  0.1870  0.5358
10672SOL    HW133457   5.417   1.895  11.638  0.7520 -3.6218  0.6404
10672SOL    HW233458   5.373   1.800  11.528 -0.7750  0.7254 -2.8059
10673SOL     OW33459   7.388   5.375   8.223 -0.1116 -0.9322 -0.6702
10673SOL    HW133460   7.403   5.289   8.262 -0.5259 -1.0149 -0.6825
10673SOL    HW233461   7.392   5.359   8.128 -0.3222 -0.9639 -0.6739
10674SOL     OW33462   0.750   7.307   9.598 -0.2110  0.1588 -0.1906
10674SOL    HW133463   0.790   7.370   9.538 -0.7299 -0.8618 -1.6849
10674SOL    HW233464   0.677   7.354   9.637 -0.0597  0.7634 -0.6126
10675SOL     OW33465   4.710   0.047   6.593  0.4218 -0.0316  0.2969
10675SOL    HW133466   4.691   0.021   6.683 -0.0840  0.8546  0.4620
10675SOL    HW233467   4.625   0.056   6.552  0.6014  0.6718  0.0650
10676SOL     OW33468   1.554   6.716   1.492  0.0776 -0.2819 -0.6076
10676SOL    HW133469   1.502   6.795   1.507 -0.3404 -0.6397 -0.0929
10676SOL    HW233470   1.617   6.715   1.565  0.1501 -0.3709 -0.6718
10677SOL     OW33471   6.158   0.990   0.853 -0.3583 -0.1628 -0.5916
10677SOL    HW133472   6.130   1.016   0.766  0.6664  0.1984 -0.8285
10677SOL    HW233473   6.103   0.915   0.875 -1.8584  0.8331 -0.7949
10678SOL     OW33474   0.540   5.276   9.648  0.0492  0.6499 -0.3872
10678SOL    HW133475   0.473   5.212   9.622  1.2079 -0.5623 -0.4837
10678SOL    HW233476   0.531   5.347   9.584 -1.0842  0.4754 -0.4390
10679SOL     OW33477   7.565   2.408   2.870 -0.2794  0.0640 -0.2119
10679SOL    HW133478   7.640   2.419   2.930 -0.2959 -0.2929 -0.1200
10679SOL    HW233479   7.592   2.336   2.812 -0.4948  0.0269 -0.2656
10680SOL     OW33480   1.600   7.897   9.602 -0.1149  0.3518 -0.4405
10680SOL    HW133481   1.647   7.858   9.529  1.2223 -0.6165  0.8771
10680SOL    HW233482   1.663   7.959   9.640  0.0568 -0.7343  1.1649
10681SOL     OW33483   2.812   1.526   2.229 -0.7153  0.3296 -0.3549
10681SOL    HW133484   2.864   1.570   2.162  0.4997  3.4059  2.3113
10681SOL    HW233485   2.745   1.590   2.253 -0.7390 -0.3794  1.6838
10682SOL     OW33486   6.802   6.804  10.533  0.6348 -0.2170  0.9037
10682SOL    HW133487   6.859   6.744  10.484  1.3287  0.0069  1.4166
10682SOL    HW233488   6.739   6.835  10.468  0.0631 -1.7197  0.6879
10683SOL     OW33489   0.617   5.907   7.984  0.1859 -0.1406 -0.2421
10683SOL    HW133490   0.647   5.843   8.049  1.8748 -0.9827 -1.7628
10683SOL    HW233491   0.694   5.926   7.931 -0.8000  1.5770 -1.1615
10684SOL     OW33492   6.500   3.585   6.249  0.1055  0.0913  0.1935
10684SOL    HW133493   6.579   3.605   6.198  0.0521 -0.7151 -0.2099
10684SOL    HW233494   6.530   3.587   6.340  0.7893 -1.0366  0.0097
10685SOL     OW33495   0.529   1.916  11.041  0.7796 -0.8407 -0.3251
10685SOL    HW133496   0.439   1.918  11.008  0.0018  0.5943  1.6604
10685SOL    HW233497   0.569   1.997  11.008  0.6904 -0.5043  0.3557
10686SOL     OW33498   3.204   0.949   7.339  0.8870 -0.5984  0.4692
10686SOL    HW133499   3.205   0.935   7.434 -0.2908 -1.1416  0.4180
10686SOL    HW233500   3.243   1.036   7.327 -0.4315  0.1869  1.5857
10687SOL     OW33501   3.953   3.914   4.503  0.0007  0.4195  0.4064
10687SOL    HW133502   3.901   3.839   4.474  0.9789  0.4578 -1.6626
10687SOL    HW233503   3.888   3.979   4.530 -0.9082 -0.5970  0.7447
10688SOL     OW33504   0.961   0.736   5.059  0.7551 -0.5975 -0.0746
10688SOL    HW133505   0.876   0.766   5.024  0.5756 -1.3243 -0.2797
10688SOL    HW233506   0.989   0.807   5.117  0.1421 -0.2174 -0.2283
10689SOL     OW33507   4.332   2.413   5.384 -0.0967 -0.0487  0.7608
10689SOL    HW133508   4.391   2.366   5.326  0.0358  1.5554 -0.4950
10689SOL    HW233509   4.303   2.348   5.448 -0.9169 -2.1376 -1.5739
10690SOL     OW33510   3.928   4.880  10.240 -0.0456 -0.2065 -0.0915
10690SOL    HW133511   3.936   4.785  10.233  0.4802 -0.0597 -2.0118
10690SOL    HW233512   3.971   4.901  10.323  0.6352 -1.5613 -0.0683
10691SOL     OW33513   7.054   6.629  10.088 -0.0551 -0.1205  0.2454
10691SOL    HW133514   7.044   6.592  10.001  0.5860 -0.4193  0.2955
10691SOL    HW233515   7.141   6.602  10.116 -0.2211  0.0496  0.9429
10692SOL     OW33516   5.140   0.773  11.740  0.0980  0.3696 -0.1632
10692SOL    HW133517   5.215   0.824  11.770 -0.7508  1.1014  0.7988
10692SOL    HW233518   5.064   0.824  11.769 -0.7728 -0.2248 -1.3267
10693SOL     OW33519   6.921   4.923  11.147 -0.2043  0.3656 -0.2966
10693SOL    HW133520   6.880   5.007  11.171 -1.2243  0.3126 -1.7532
10693SOL    HW233521   6.994   4.914  11.209 -1.7063  0.9896  1.6853
10694SOL     OW33522   0.066   5.076   8.966 -0.7202 -0.5086 -0.4404
10694SOL    HW133523   0.153   5.089   8.930 -0.0180 -0.8214  1.0518
10694SOL    HW233524   0.032   5.164   8.982  0.0831 -0.3878  0.6716
10695SOL     OW33525   3.906   5.569   7.740 -0.1584  0.2640  0.1518
10695SOL    HW133526   3.882   5.521   7.660 -1.3526 -0.1960  0.7548
10695SOL    HW233527   3.961   5.508   7.789  1.0279  0.7410 -0.5205
10696SOL     OW33528   3.022   4.569  10.357 -0.1265 -0.0582  0.9764
10696SOL    HW133529   3.003   4.621  10.279  1.7703 -0.9363 -0.1762
10696SOL    HW233530   3.069   4.629  10.415  0.9497 -0.0903  0.1860
10697SOL     OW33531   4.754   4.970   1.010 -0.4640  0.6812 -0.0432
10697SOL    HW133532   4.716   4.984   1.097 -2.5375  0.4970 -0.8658
10697SOL    HW233533   4.796   5.053   0.989  2.9611 -0.2209  2.3850
10698SOL     OW33534   4.161   3.805   9.957 -0.2005  0.1979  0.5346
10698SOL    HW133535   4.085   3.796  10.015 -0.4934 -0.5634  0.0475
10698SOL    HW233536   4.174   3.717   9.920 -0.5045  0.8258 -1.1605
10699SOL     OW33537   4.414   0.554   8.810 -0.2584  0.4094 -0.3810
10699SOL    HW133538   4.332   0.532   8.766 -1.4415 -0.8241  2.2257
10699SOL    HW233539   4.404   0.646   8.834 -1.0750  0.1592  0.2738
10700SOL     OW33540   0.286   1.408  12.417 -0.1549 -0.3702  0.3140
10700SOL    HW133541   0.243   1.335  12.374 -0.0421 -0.2290 -0.0448
10700SOL    HW233542   0.354   1.368  12.471  0.6901 -0.4763 -0.7782
10701SOL     OW33543   7.141   7.863   6.892 -0.1557  0.1317  0.0907
10701SOL    HW133544   7.233   7.874   6.914 -0.4917  0.0425  1.6713
10701SOL    HW233545   7.138   7.871   6.797  1.0597  3.5523  0.1807
10702SOL     OW33546   5.824   2.994  12.157 -0.1320  0.1413 -0.7216
10702SOL    HW133547   5.784   3.016  12.073  0.5936  1.1472 -0.8290
10702SOL    HW233548   5.790   2.907  12.178 -0.4766 -0.0412 -1.9545
10703SOL     OW33549   6.458   5.792   2.242 -0.5473 -0.3217 -0.2764
10703SOL    HW133550   6.403   5.716   2.263 -0.1715 -0.6802 -0.5847
10703SOL    HW233551   6.477   5.783   2.149  0.1101 -0.2494 -0.1540
10704SOL     OW33552   2.845   4.778   5.823  0.3585 -0.5177 -0.5923
10704SOL    HW133553   2.820   4.707   5.883  0.0738  1.3098  1.5747
10704SOL    HW233554   2.768   4.792   5.768  0.5619 -2.1052 -1.3499
10705SOL     OW33555   2.677   5.823   2.466  0.5553 -0.4560  0.2696
10705SOL    HW133556   2.739   5.775   2.520 -0.8981 -2.0677  0.5926
10705SOL    HW233557   2.727   5.847   2.388  1.5822 -1.7830  0.4770
10706SOL     OW33558   0.102   2.298   7.000 -0.3257 -0.1085 -0.1020
10706SOL    HW133559   0.033   2.236   6.978 -1.5857  1.0782  0.3132
10706SOL    HW233560   0.183   2.253   6.979 -0.9227 -3.1767  3.2102
10707SOL     OW33561   3.037   7.361  10.723 -0.0569  0.1593  0.5490
10707SOL    HW133562   3.102   7.304  10.682 -0.8221  0.5963 -1.4001
10707SOL    HW233563   3.087   7.419  10.779  1.0433 -0.6178  0.3984
10708SOL     OW33564   3.372   2.913  10.273  0.1742 -0.1558 -0.2227
10708SOL    HW133565   3.382   2.847  10.204 -1.5811 -0.3905 -0.3147
10708SOL    HW233566   3.312   2.872  10.336  2.5032 -0.3574  2.0125
10709SOL     OW33567   6.430   0.172   3.297 -0.1981 -0.3443 -0.2301
10709SOL    HW133568   6.517   0.166   3.258  0.1129 -0.5119  0.4665
10709SOL    HW233569   6.380   0.229   3.238  0.3271 -0.3913 -0.7262
10710SOL     OW33570   6.737   7.671   3.128  0.2910  0.1229 -0.4800
10710SOL    HW133571   6.669   7.734   3.152 -1.5307 -1.6936 -0.5664
10710SOL    HW233572   6.696   7.618   3.059  1.9007 -0.8948 -0.6936
10711SOL     OW33573   4.120   5.384   2.661 -0.1532 -0.0684 -0.5527
10711SOL    HW133574   4.155   5.301   2.628 -0.2942 -1.6204  2.8163
10711SOL    HW233575   4.197   5.430   2.696 -0.5474 -0.5842  1.0687
10712SOL     OW33576   4.993   0.945   0.318  0.3034 -0.0658  0.1246
10712SOL    HW133577   4.943   0.942   0.400 -0.3646  0.3221 -0.2591
10712SOL    HW233578   4.938   0.898   0.255  0.1547  0.8505 -0.4420
10713SOL     OW33579   6.693   1.722   3.529  0.1504  0.1456 -0.3484
10713SOL    HW133580   6.703   1.677   3.613  1.0670  0.1073 -0.4725
10713SOL    HW233581   6.674   1.813   3.552 -1.6597 -0.2485 -0.0961
10714SOL     OW33582   5.403   1.535   8.190  0.4575  0.5866  0.3231
10714SOL    HW133583   5.490   1.560   8.221  0.5895  0.7387 -0.1539
10714SOL    HW233584   5.368   1.616   8.151 -0.2789  0.7740  1.3513
10715SOL     OW33585   0.694   2.790   2.798 -0.0512  0.1108  0.7048
10715SOL    HW133586   0.639   2.853   2.844 -0.1138 -1.0986  2.3630
10715SOL    HW233587   0.655   2.783   2.710 -1.2060  0.9099  1.1326
10716SOL     OW33588   4.587   2.189   9.089  0.9266 -0.5212 -0.3245
10716SOL    HW133589   4.602   2.205   8.995  0.2008 -1.3678 -0.6007
10716SOL    HW233590   4.500   2.149   9.092  1.7367 -2.3460  0.5023
10717SOL     OW33591   0.931   2.123   6.647 -0.4536 -0.3241  0.3572
10717SOL    HW133592   0.960   2.058   6.710  0.8238  1.5635  1.8408
10717SOL    HW233593   0.838   2.104   6.634 -0.4012 -1.6628  1.6739
10718SOL     OW33594   3.616   0.426   7.851  0.2849 -0.5115 -0.1971
10718SOL    HW133595   3.656   0.447   7.767 -0.1540 -1.7594 -0.7454
10718SOL    HW233596   3.639   0.334   7.866 -0.2384 -0.5071  0.7111
10719SOL     OW33597   5.565   5.725   3.215  0.1025 -0.1308  0.4387
10719SOL    HW133598   5.569   5.669   3.293 -1.1994  0.8126  1.2365
10719SOL    HW233599   5.584   5.813   3.248  0.2701  0.1702 -0.4459
10720SOL     OW33600   0.923   0.456   4.228  0.4387 -0.1047  0.4592
10720SOL    HW133601   0.831   0.432   4.239  0.5478 -0.1008  1.4801
10720SOL    HW233602   0.936   0.460   4.133 -0.5187 -0.4563  0.3062
10721SOL     OW33603   0.354   0.176   6.566 -0.2013 -0.0034 -0.0329
10721SOL    HW133604   0.341   0.260   6.609 -1.9153 -0.6037  0.7298
10721SOL    HW233605   0.434   0.140   6.605  0.9629  1.5366 -0.8933
10722SOL     OW33606   5.504   7.553   2.200 -0.6496 -0.0358 -0.3719
10722SOL    HW133607   5.546   7.552   2.113 -1.8061  1.5974 -1.0038
10722SOL    HW233608   5.576   7.536   2.261  0.3132 -0.5897 -1.6054
10723SOL     OW33609   4.796   0.032   7.676 -0.1787 -0.1945  0.0364
10723SOL    HW133610   4.864   0.095   7.699 -0.5587 -0.4175  1.9088
10723SOL    HW233611   4.761   0.063   7.592  0.6838  1.1914  0.1683
10724SOL     OW33612   3.427   5.234  11.834 -0.6708 -0.3345 -0.9464
10724SOL    HW133613   3.508   5.204  11.876  1.1695  0.2832 -3.7413
10724SOL    HW233614   3.398   5.308  11.886  0.0150 -1.1364  0.6470
10725SOL     OW33615   2.731   0.883   3.387  0.2609 -0.1279 -0.5096
10725SOL    HW133616   2.683   0.949   3.338  2.1866  1.6635 -0.1477
10725SOL    HW233617   2.675   0.861   3.461 -0.1894  1.5879 -0.3118
10726SOL     OW33618   2.202   5.024   2.185  0.5053 -0.8154 -0.1415
10726SOL    HW133619   2.297   5.026   2.196  0.5212 -0.5425 -0.3054
10726SOL    HW233620   2.173   4.950   2.238  0.8470 -1.1130 -0.3662
10727SOL     OW33621   3.139   5.425   7.141 -0.3561 -0.5200 -0.0811
10727SOL    HW133622   3.156   5.454   7.052 -0.4973 -1.9368 -0.5762
10727SOL    HW233623   3.117   5.333   7.134  0.2689 -0.8294  1.4903
10728SOL     OW33624   7.536   4.212   0.258 -0.0316 -0.4444  1.1266
10728SOL    HW133625   7.466   4.156   0.224  1.3194 -1.2959 -0.3814
10728SOL    HW233626   7.533   4.199   0.353 -1.4916 -0.9438  1.0351
10729SOL     OW33627   6.500   3.682   8.865 -0.6285 -0.1926 -0.5274
10729SOL    HW133628   6.549   3.758   8.896  0.7617 -0.9068 -0.8713
10729SOL    HW233629   6.416   3.686   8.912  0.0498  0.6617  0.6660
10730SOL     OW33630   4.720   1.152   1.278 -0.1663  0.6043 -0.0151
10730SOL    HW133631   4.814   1.161   1.268 -0.0159  0.3761  1.0808
10730SOL    HW233632   4.697   1.076   1.224  0.6143 -0.6421  1.3296
10731SOL     OW33633   4.323   4.326   6.024  0.2452 -0.0296 -0.4592
10731SOL    HW133634   4.235   4.295   6.002  0.0702  0.0418  0.1135
10731SOL    HW233635   4.380   4.252   6.005  0.0994  0.0173 -1.1012
10732SOL     OW33636   3.720   3.195   1.811  1.0725  0.2237 -0.1500
10732SOL    HW133637   3.730   3.166   1.720  0.3573 -0.5328 -0.0070
10732SOL    HW233638   3.778   3.270   1.820  1.0232  0.4045 -1.2805
10733SOL     OW33639   3.224   6.857   8.645 -0.3654 -0.5034  0.0730
10733SOL    HW133640   3.191   6.926   8.703 -0.8143 -1.5938  1.1376
10733SOL    HW233641   3.273   6.905   8.577 -1.5646  0.9428  0.1656
10734SOL     OW33642   0.520   6.176  12.081 -0.7810 -0.3903 -0.0679
10734SOL    HW133643   0.587   6.109  12.088 -1.3309 -0.8315  1.1487
10734SOL    HW233644   0.437   6.128  12.079 -1.0711  0.0756 -2.7581
10735SOL     OW33645   5.421   0.334   4.573  0.3953  0.3960 -0.6305
10735SOL    HW133646   5.336   0.375   4.588  0.3580  0.4829 -1.0666
10735SOL    HW233647   5.434   0.338   4.478  0.6340 -0.1217 -0.6241
10736SOL     OW33648   6.243   0.901  12.074 -0.8322  0.2710  0.3567
10736SOL    HW133649   6.206   0.869  11.992  1.0800 -0.0514 -0.4417
10736SOL    HW233650   6.335   0.872  12.071  0.4431  3.8413  0.6106
10737SOL     OW33651   3.614   7.038  12.234 -0.1572 -0.1035  0.0295
10737SOL    HW133652   3.538   6.990  12.200 -0.7298  0.0634  1.0407
10737SOL    HW233653   3.614   7.120  12.184 -1.5582  0.5573  1.0576
10738SOL     OW33654   7.485   5.822   3.823 -0.2671  0.3398  0.4180
10738SOL    HW133655   7.523   5.790   3.741 -2.3604  0.9170 -0.8605
10738SOL    HW233656   7.553   5.878   3.861  1.0523 -0.5995 -0.4811
10739SOL     OW33657   5.113   5.080   1.167 -0.0800  0.5064 -0.3531
10739SOL    HW133658   5.115   5.051   1.076 -1.1325 -0.6314 -0.0380
10739SOL    HW233659   5.130   5.174   1.162 -1.1834  0.6634 -1.8294
10740SOL     OW33660   1.060   2.179  10.554 -0.0587  0.1340 -0.5170
10740SOL    HW133661   1.152   2.162  10.536  0.1968 -0.0670  0.8507
10740SOL    HW233662   1.047   2.148  10.643 -0.5913  3.2716  0.6286
10741SOL     OW33663   6.159   7.906   4.821 -0.1475 -0.1247 -0.1758
10741SOL    HW133664   6.208   7.981   4.788  0.2257 -1.5848 -3.3839
10741SOL    HW233665   6.073   7.915   4.780 -0.5557 -0.7496  0.5273
10742SOL     OW33666   0.408   0.114  11.749  0.0834  0.2153 -0.6530
10742SOL    HW133667   0.474   0.052  11.717  1.0177  1.0697 -0.4473
10742SOL    HW233668   0.415   0.110  11.844 -1.8992 -1.4836 -0.5184
10743SOL     OW33669   2.902   6.642  10.650 -0.2484  0.5213  0.1958
10743SOL    HW133670   2.827   6.610  10.701  0.3647  0.8041  1.3253
10743SOL    HW233671   2.952   6.696  10.713  0.6686  0.6861 -0.6484
10744SOL     OW33672   2.675   5.237   4.434 -0.2120  0.1348  0.2478
10744SOL    HW133673   2.618   5.243   4.511  0.7792 -1.6344  1.1673
10744SOL    HW233674   2.763   5.250   4.468  0.2341 -0.5213 -0.6183
10745SOL     OW33675   1.151   0.839   7.630 -0.1407  0.1327 -0.0122
10745SOL    HW133676   1.202   0.759   7.619 -1.1128 -0.3728 -1.1122
10745SOL    HW233677   1.060   0.810   7.621 -0.4880  1.4265 -0.8790
10746SOL     OW33678   0.175   5.322   8.479  0.4894 -0.9455 -0.0240
10746SOL    HW133679   0.124   5.386   8.430  0.8533 -0.7666 -0.1693
10746SOL    HW233680   0.158   5.239   8.434  0.8649 -0.7743 -0.4927
10747SOL     OW33681   0.597   4.848   1.247 -0.0051 -0.0491  0.3025
10747SOL    HW133682   0.674   4.888   1.206 -0.5101  0.2094 -0.4050
10747SOL    HW233683   0.618   4.847   1.340  0.5918  0.6111  0.1840
10748SOL     OW33684   0.715   3.391  11.209 -0.3290 -0.5639  0.4970
10748SOL    HW133685   0.669   3.387  11.125  0.2379 -2.3228  0.2361
10748SOL    HW233686   0.808   3.386  11.187  0.0474  2.3795  1.0638
10749SOL     OW33687   4.603   2.837   2.324 -0.2060 -0.2764  0.1712
10749SOL    HW133688   4.645   2.825   2.238 -0.9141  1.2289 -0.4276
10749SOL    HW233689   4.662   2.793   2.385  0.9793 -0.3104 -0.9336
10750SOL     OW33690   2.746   0.097   2.235 -0.2345  0.0413  0.2483
10750SOL    HW133691   2.678   0.112   2.301  0.1057  0.2524  0.5612
10750SOL    HW233692   2.754   0.181   2.190  0.4012  0.2859  0.7819
10751SOL     OW33693   1.174   1.291   8.810  0.2431 -0.5139  0.3618
10751SOL    HW133694   1.236   1.220   8.826  1.3863  0.4110  0.1283
10751SOL    HW233695   1.189   1.316   8.719 -1.0687 -0.8206  0.0369
10752SOL     OW33696   7.511   1.306   9.327 -0.0426 -0.0237 -0.0459
10752SOL    HW133697   7.530   1.261   9.245 -1.2607 -1.5085  0.4424
10752SOL    HW233698   7.592   1.353   9.348 -0.0023  1.1582 -2.5321
10753SOL     OW33699   0.776   4.945   2.338  0.1103  0.4696  0.1660
10753SOL    HW133700   0.786   4.867   2.392 -0.6318  1.2536  1.4968
10753SOL    HW233701   0.856   4.949   2.287 -0.1879 -1.5924 -0.5413
10754SOL     OW33702   4.039   4.946  10.475 -0.4525 -0.2156  0.0263
10754SOL    HW133703   4.009   4.933  10.565  0.1727  1.5104  0.5320
10754SOL    HW233704   4.134   4.936  10.481 -0.3751  0.2762 -0.3637
10755SOL     OW33705   3.530   0.413   0.390 -0.8055 -0.3780 -0.2094
10755SOL    HW133706   3.606   0.355   0.387 -1.1769 -0.8980  0.3427
10755SOL    HW233707   3.493   0.409   0.302 -1.4800 -1.8652  0.1251
10756SOL     OW33708   6.534   0.873   3.717 -0.5208  0.3877 -0.5505
10756SOL    HW133709   6.584   0.864   3.799 -0.8171 -1.0716 -0.5121
10756SOL    HW233710   6.514   0.967   3.712  2.8595  1.2538 -0.9580
10757SOL     OW33711   2.486   3.434   4.576  0.2759  0.1734  0.1981
10757SOL    HW133712   2.533   3.392   4.648  0.7703  0.1678 -0.1222
10757SOL    HW233713   2.423   3.492   4.619  0.2341 -0.1925  0.6357
10758SOL     OW33714   2.589   1.122   7.189  0.2297  0.5220 -0.5713
10758SOL    HW133715   2.517   1.078   7.234  0.3457 -0.4759 -1.3329
10758SOL    HW233716   2.547   1.178   7.124  0.1270 -1.8966 -2.7089
10759SOL     OW33717   1.029   6.370   8.541 -0.8160 -0.3866  0.2214
10759SOL    HW133718   1.063   6.456   8.517 -1.1091  0.8087  3.6592
10759SOL    HW233719   0.954   6.357   8.482 -0.0146  1.1001 -1.2021
10760SOL     OW33720   2.257   6.686   0.615  0.4323  0.3807  0.0060
10760SOL    HW133721   2.321   6.636   0.665 -1.0041  0.2081  1.8020
10760SOL    HW233722   2.195   6.621   0.582  0.3023  0.6763 -0.3414
10761SOL     OW33723   2.753   7.790   8.843  0.2799  0.4584  0.4052
10761SOL    HW133724   2.761   7.740   8.762  0.1545  1.2218 -0.0886
10761SOL    HW233725   2.833   7.771   8.892  0.5240  0.2851 -0.0619
10762SOL     OW33726   6.079   0.937   2.109  0.0692 -0.1273  0.6575
10762SOL    HW133727   6.034   1.020   2.121  0.4239  0.1848 -0.1079
10762SOL    HW233728   6.009   0.874   2.089  0.0329  0.6619 -2.1441
10763SOL     OW33729   1.737   5.279   8.082  0.4992 -0.6541 -0.1648
10763SOL    HW133730   1.730   5.192   8.121  0.6651 -0.2735  0.7609
10763SOL    HW233731   1.647   5.310   8.076  0.5243 -0.3633  0.7862
10764SOL     OW33732   5.791   1.584   2.949  0.4319 -0.0281 -0.1778
10764SOL    HW133733   5.838   1.526   3.009  1.7124  1.7355  0.6211
10764SOL    HW233734   5.698   1.565   2.965  0.7706 -2.6488 -0.8325
10765SOL     OW33735   7.555   5.341   1.909  0.0851 -0.1283 -0.7630
10765SOL    HW133736   7.622   5.408   1.895  1.3998 -1.4369 -1.0277
10765SOL    HW233737   7.604   5.267   1.946 -1.6735 -0.1787  1.7229
10766SOL     OW33738   6.797   0.084   8.361 -0.2247 -0.2417  0.4039
10766SOL    HW133739   6.809   0.035   8.442  1.7645 -0.5058  0.0010
10766SOL    HW233740   6.820   0.174   8.384 -1.1128 -0.0201  0.4660
10767SOL     OW33741   4.943   5.592  10.723  0.2469 -0.1123  0.4985
10767SOL    HW133742   4.991   5.575  10.642 -1.1497  0.5173 -0.4980
10767SOL    HW233743   4.855   5.614  10.695 -0.5260 -0.7727  2.2517
10768SOL     OW33744   5.907   7.127   7.988  0.3684 -0.3285  0.0521
10768SOL    HW133745   5.987   7.118   7.936 -0.0979  0.9674 -0.9437
10768SOL    HW233746   5.869   7.210   7.960 -0.3679  0.0077  1.8564
10769SOL     OW33747   7.833   1.859   6.496  0.6228 -0.7470  0.3308
10769SOL    HW133748   7.822   1.895   6.408  3.4195 -1.8282 -0.5729
10769SOL    HW233749   7.861   1.769   6.483 -2.1351 -2.0497  2.4665
10770SOL     OW33750   1.951   2.836  10.923  0.4720  0.0069  0.5837
10770SOL    HW133751   1.856   2.843  10.920  0.3170 -1.2645  1.5564
10770SOL    HW233752   1.970   2.751  10.883  1.2353  0.4421  0.0040
10771SOL     OW33753   1.659   4.586   9.769 -0.5098  0.0048 -0.0450
10771SOL    HW133754   1.651   4.662   9.712  1.6621  0.6524  0.3897
10771SOL    HW233755   1.701   4.620   9.848  1.4981 -1.7818 -0.2460
10772SOL     OW33756   0.465   4.261   8.969 -0.0454  0.2568 -0.0455
10772SOL    HW133757   0.515   4.336   8.999  0.1662 -0.0796  0.4497
10772SOL    HW233758   0.418   4.231   9.047 -0.3863  0.0727 -0.3169
10773SOL     OW33759   6.952   0.390  11.495 -0.3138 -0.0002  0.0580
10773SOL    HW133760   6.927   0.371  11.404  0.1570  1.7726 -0.4764
10773SOL    HW233761   6.879   0.442  11.529  0.5988  1.4296 -0.1095
10774SOL     OW33762   1.399   0.968   7.937 -0.4947  0.3900 -0.1437
10774SOL    HW133763   1.305   0.966   7.924 -0.3704 -1.1649 -1.0199
10774SOL    HW233764   1.417   0.891   7.990  0.4026  0.0663 -0.8957
10775SOL     OW33765   7.603   0.268   8.360  0.3812 -0.0859  0.1953
10775SOL    HW133766   7.562   0.268   8.447 -0.1761  1.3516 -0.0407
10775SOL    HW233767   7.535   0.298   8.301  1.0669 -0.0287 -0.5880
10776SOL     OW33768   4.854   2.055   9.955  0.1296 -0.5754 -0.5652
10776SOL    HW133769   4.887   2.123  10.013 -2.6463 -0.8986  1.6017
10776SOL    HW233770   4.827   2.103   9.876 -1.7212  0.9517  0.8906
10777SOL     OW33771   2.036   0.148   7.985  0.1850 -0.1702  0.3361
10777SOL    HW133772   2.072   0.236   7.983  0.3135 -0.2143  0.6189
10777SOL    HW233773   1.943   0.161   8.006  0.4163 -0.1523  1.4295
10778SOL     OW33774   0.761   0.514  10.902  0.0361  0.4417  0.3604
10778SOL    HW133775   0.844   0.549  10.934  0.3989 -0.0133 -0.0721
10778SOL    HW233776   0.753   0.548  10.813  0.2968 -0.4055  0.0059
10779SOL     OW33777   3.474   5.172  10.707  0.4363  0.5656  0.7783
10779SOL    HW133778   3.506   5.261  10.722  1.2579 -0.0440  3.1107
10779SOL    HW233779   3.553   5.118  10.707  0.0866 -0.0864 -2.0302
10780SOL     OW33780   0.659   1.669  10.039 -0.7376  0.0769  0.5351
10780SOL    HW133781   0.586   1.608  10.052 -1.3014  0.9104  1.4104
10780SOL    HW233782   0.692   1.686  10.127  0.0415  0.2981  0.2101
10781SOL     OW33783   5.324   5.584   5.366 -0.1630 -0.3383 -0.1408
10781SOL    HW133784   5.370   5.533   5.433  0.2692  0.9765  0.5988
10781SOL    HW233785   5.232   5.560   5.377  0.1860 -2.2241 -0.9599
10782SOL     OW33786   5.397   7.976   8.525  0.1175  0.1530  0.0650
10782SOL    HW133787   5.468   8.029   8.489  0.3806 -0.2660 -0.0413
10782SOL    HW233788   5.326   7.986   8.462  0.3929 -0.1441 -0.3015
10783SOL     OW33789   4.104   4.058   3.053  0.2667  0.0001  0.3465
10783SOL    HW133790   4.171   4.101   2.999 -0.3078  0.8055  0.2619
10783SOL    HW233791   4.055   4.130   3.092 -1.3191 -0.5482 -0.5305
10784SOL     OW33792   6.443   1.026   7.009  0.3312 -0.3335 -0.1745
10784SOL    HW133793   6.397   1.003   7.090  0.2001  0.3671 -0.0417
10784SOL    HW233794   6.523   1.069   7.038 -0.3763  1.2164 -0.3915
10785SOL     OW33795   0.093   1.021   9.259  1.4432  0.8502  0.6973
10785SOL    HW133796   0.139   1.051   9.181  1.3877  0.3006  0.4482
10785SOL    HW233797   0.088   0.926   9.249  0.1948  0.9049  0.6794
10786SOL     OW33798   6.544   5.185   9.070 -0.5271 -0.0773  0.6178
10786SOL    HW133799   6.624   5.145   9.038 -0.5691 -2.0163  2.6755
10786SOL    HW233800   6.475   5.123   9.048 -0.8662 -0.3363  2.2815
10787SOL     OW33801   2.795   6.577   0.405  0.1324 -0.0509 -0.5290
10787SOL    HW133802   2.783   6.519   0.480  2.6510  0.6756  0.5067
10787SOL    HW233803   2.760   6.661   0.433  1.2237  0.2643 -0.0715
10788SOL     OW33804   3.930   0.124   9.034 -0.1517 -0.1953 -0.1143
10788SOL    HW133805   3.983   0.189   9.081  0.4104  0.9179 -2.1441
10788SOL    HW233806   3.992   0.079   8.977 -0.8603 -1.2166 -0.1011
10789SOL     OW33807   1.137   2.596   6.586  0.2843  0.4881 -0.3025
10789SOL    HW133808   1.095   2.569   6.668  2.9487 -0.4929  0.8486
10789SOL    HW233809   1.093   2.545   6.519 -0.1764 -0.7315  0.8749
10790SOL     OW33810   3.711   5.014   3.284 -0.2640 -0.2038 -0.4879
10790SOL    HW133811   3.773   5.075   3.244 -0.0450  0.0336  0.1856
10790SOL    HW233812   3.758   4.931   3.286  0.2496  0.0929  0.4907
10791SOL     OW33813   4.694   0.500   1.711  0.4545 -0.2244  0.6902
10791SOL    HW133814   4.617   0.519   1.657  0.6475 -0.5297  0.3011
10791SOL    HW233815   4.768   0.512   1.651  0.6675 -0.6152  0.8746
10792SOL     OW33816   3.964   4.237   8.872  0.1551 -0.1021 -0.0117
10792SOL    HW133817   4.008   4.306   8.921 -0.1990  0.7863 -0.8849
10792SOL    HW233818   3.880   4.277   8.846  0.1513 -0.6920 -0.9347
10793SOL     OW33819   7.329   4.907   7.799  0.2428  0.1677 -0.2778
10793SOL    HW133820   7.297   4.892   7.710 -0.6461  1.1681 -0.1428
10793SOL    HW233821   7.381   4.829   7.819  1.3623  0.3943 -2.0674
10794SOL     OW33822   0.953   7.378  10.670 -0.1043  0.2448 -0.0553
10794SOL    HW133823   0.998   7.337  10.595 -0.3247  0.2102 -0.1712
10794SOL    HW233824   0.910   7.305  10.714  0.0287  0.2651  0.1100
10795SOL     OW33825   0.608   4.042   8.444  0.1944 -0.5290  0.4297
10795SOL    HW133826   0.530   4.004   8.485  0.0715 -0.5617  0.1641
10795SOL    HW233827   0.589   4.135   8.438 -0.2822 -0.6886 -0.6486
10796SOL     OW33828   3.064   7.540   9.979  0.4284 -0.7170 -0.1772
10796SOL    HW133829   2.969   7.542   9.993  0.2383  0.0667 -1.4687
10796SOL    HW233830   3.092   7.630   9.991  0.6925 -0.5631 -1.7673
10797SOL     OW33831   6.616   4.648   3.007 -0.0052  0.1632  0.1269
10797SOL    HW133832   6.696   4.701   2.996  2.0120 -2.8424 -0.8977
10797SOL    HW233833   6.585   4.633   2.918 -1.9827  1.5301  0.5289
10798SOL     OW33834   2.214   6.361   0.084  0.0085  0.4840  0.3559
10798SOL    HW133835   2.158   6.352   0.006 -0.3265 -0.2165  0.6667
10798SOL    HW233836   2.253   6.274   0.095 -0.3403  0.4395  1.2656
10799SOL     OW33837   6.344   4.587   0.487 -0.1078 -0.0455 -0.0982
10799SOL    HW133838   6.367   4.604   0.578  0.7423  2.3208 -0.6832
10799SOL    HW233839   6.248   4.590   0.486 -0.1230 -0.0343  0.7237
10800SOL     OW33840   0.480   1.586   9.127 -0.7708 -0.2543  0.6768
10800SOL    HW133841   0.572   1.565   9.141 -0.4291  1.7431  1.8008
10800SOL    HW233842   0.479   1.639   9.048 -0.8945  0.0268  0.8632
10801SOL     OW33843   6.254   6.657   7.819  0.3964 -0.2149  0.1627
10801SOL    HW133844   6.262   6.721   7.748  2.7141 -1.0712 -0.4356
10801SOL    HW233845   6.170   6.677   7.860 -1.8648 -0.6070 -3.7156
10802SOL     OW33846   7.446   0.839   6.722 -0.4559 -0.6540 -0.1300
10802SOL    HW133847   7.373   0.839   6.784 -0.8862 -2.1741 -0.5917
10802SOL    HW233848   7.482   0.751   6.727  0.4209 -0.3623 -0.9806
10803SOL     OW33849   4.148   2.584  12.442 -0.1009 -0.4353 -0.2123
10803SOL    HW133850   4.101   2.630  12.372 -1.2993  0.5662  1.1968
10803SOL    HW233851   4.092   2.592  12.518  0.5008 -2.7381  0.5688
10804SOL     OW33852   5.805   4.541   4.802  0.3266  0.0565  0.1631
10804SOL    HW133853   5.889   4.561   4.843  1.5426 -1.2699 -1.5360
10804SOL    HW233854   5.768   4.626   4.780  0.7341  0.7005  1.7733
10805SOL     OW33855   7.804   7.887   8.736 -0.4040  0.0913 -0.3966
10805SOL    HW133856   7.767   7.800   8.744 -0.3258  0.0442 -0.5463
10805SOL    HW233857   7.732   7.941   8.703 -0.8994  0.4122  1.1354
10806SOL     OW33858   1.431   2.159  10.189  0.3477 -0.0676 -0.2414
10806SOL    HW133859   1.444   2.235  10.134  2.6078  0.0450  0.3413
10806SOL    HW233860   1.494   2.095  10.157 -0.7896 -1.3360 -0.0556
10807SOL     OW33861   6.995   0.839   6.095 -0.1878 -0.4717 -0.8872
10807SOL    HW133862   7.050   0.763   6.113  1.8731  0.9294 -0.9592
10807SOL    HW233863   6.969   0.828   6.004 -1.1914 -1.8218 -0.4725
10808SOL     OW33864   5.355   5.442   8.028  0.2346 -0.1984 -0.9212
10808SOL    HW133865   5.370   5.464   7.936  0.1860 -0.2937 -0.9517
10808SOL    HW233866   5.263   5.418   8.032 -0.2456  1.5622 -0.5047
10809SOL     OW33867   2.774   1.433   5.643  0.4339 -0.5790  0.0755
10809SOL    HW133868   2.766   1.522   5.677  3.7970  0.0497 -0.3662
10809SOL    HW233869   2.727   1.378   5.706 -1.5054  1.4385  0.4889
10810SOL     OW33870   5.463   3.722   9.015  0.6113  0.6202 -0.3569
10810SOL    HW133871   5.428   3.691   8.931  0.4195  1.2025 -0.5004
10810SOL    HW233872   5.545   3.674   9.026  0.4021  0.1841 -0.6450
10811SOL     OW33873   5.512   6.508  11.165  0.2167 -0.0364 -0.0399
10811SOL    HW133874   5.601   6.478  11.186  0.2620 -1.2619 -1.7746
10811SOL    HW233875   5.455   6.438  11.197 -0.1618  0.7178  1.0073
10812SOL     OW33876   4.895   3.106   6.536 -0.3034 -1.0582  0.3706
10812SOL    HW133877   4.804   3.076   6.536 -0.3017 -1.0634  0.3441
10812SOL    HW233878   4.889   3.201   6.545 -0.3148 -1.0462  0.2297
10813SOL     OW33879   6.966   0.228   0.081 -0.1490  0.0119 -1.0435
10813SOL    HW133880   7.006   0.314   0.097 -3.2821  1.3368  0.4896
10813SOL    HW233881   6.904   0.244   0.010 -0.8136 -0.9915 -0.7016
10814SOL     OW33882   6.530   6.316  11.749  0.2727  0.2192 -0.3126
10814SOL    HW133883   6.603   6.268  11.710  0.2457  0.3737 -0.5612
10814SOL    HW233884   6.523   6.395  11.695  1.3046  1.2550  1.0217
10815SOL     OW33885   3.268   7.972   6.363  0.2756  0.0528  0.3585
10815SOL    HW133886   3.254   7.944   6.453 -1.3654  0.3855  0.2522
10815SOL    HW233887   3.181   7.963   6.322  0.0784  3.3053 -0.2099
10816SOL     OW33888   1.490   4.969   4.766  0.1309  0.0465  0.9056
10816SOL    HW133889   1.480   4.966   4.861 -2.2175  0.9306  0.7590
10816SOL    HW233890   1.461   4.884   4.735 -0.1398  0.1372  0.9118
10817SOL     OW33891   1.784   4.759   9.258 -0.0208 -0.4129  0.1745
10817SOL    HW133892   1.705   4.705   9.260  0.5243 -1.2414  0.0079
10817SOL    HW233893   1.800   4.775   9.164 -1.0300  1.3598  0.2536
10818SOL     OW33894   7.449   6.647   2.385  0.0563  0.1636  0.1439
10818SOL    HW133895   7.416   6.605   2.306  3.1195  0.0882 -1.2327
10818SOL    HW233896   7.405   6.731   2.388 -1.5073 -0.5985 -0.5710
10819SOL     OW33897   6.526   7.709  10.342  0.9780 -0.1680 -0.4814
10819SOL    HW133898   6.534   7.654  10.420  2.4392  0.6983  0.0241
10819SOL    HW233899   6.483   7.788  10.372 -1.7643 -1.2294 -1.3553
10820SOL     OW33900   5.844   1.653   4.001 -0.5712  0.0842 -0.1696
10820SOL    HW133901   5.928   1.689   4.027 -0.6162  0.3747 -0.4268
10820SOL    HW233902   5.852   1.558   4.016  0.2249 -0.0515 -1.3823
10821SOL     OW33903   3.360   1.381   6.596  0.2548  0.5832  0.2191
10821SOL    HW133904   3.423   1.312   6.620  2.9619  3.0752  0.9162
10821SOL    HW233905   3.404   1.430   6.526 -1.1624  2.1256  0.3523
10822SOL     OW33906   2.571   4.274  12.087 -1.3238  0.1348 -0.0193
10822SOL    HW133907   2.498   4.246  12.142 -1.8619  0.2734 -0.6603
10822SOL    HW233908   2.586   4.202  12.027 -0.5245 -0.1512  0.4951
10823SOL     OW33909   0.104   5.598   4.204  0.3783  0.3710  0.0871
10823SOL    HW133910   0.199   5.590   4.210  0.2106 -0.7158  2.1947
10823SOL    HW233911   0.076   5.523   4.151  0.6034 -0.1337  0.6700
10824SOL     OW33912   4.215   3.472   7.474  0.1529  0.0759  0.5235
10824SOL    HW133913   4.233   3.387   7.434 -1.2103  0.1878 -0.4393
10824SOL    HW233914   4.290   3.489   7.530  0.6646 -1.5540  0.3970
10825SOL     OW33915   4.249   4.512  10.862 -0.1327  0.0322 -0.0849
10825SOL    HW133916   4.199   4.520  10.943 -0.0215 -0.0206 -0.0103
10825SOL    HW233917   4.304   4.591  10.860  0.4781 -0.3731  0.3160
10826SOL     OW33918   2.720   3.737  12.177  0.3645  0.0318  0.0230
10826SOL    HW133919   2.675   3.743  12.261  0.1312  1.4817 -0.1800
10826SOL    HW233920   2.651   3.745  12.112  0.7010  0.4386 -0.2947
10827SOL     OW33921   3.611   4.551   6.445 -0.2998  0.4318  0.4260
10827SOL    HW133922   3.535   4.548   6.386  0.1367 -1.4262 -0.1105
10827SOL    HW233923   3.684   4.520   6.392  0.2100 -0.8269  1.7866
10828SOL     OW33924   0.656   0.894  10.028 -0.1740  0.0074  0.4551
10828SOL    HW133925   0.725   0.830  10.045 -0.7245 -0.6581  0.2461
10828SOL    HW233926   0.699   0.963   9.978  0.2350 -0.6359 -0.0998
10829SOL     OW33927   0.717   1.739  10.315  0.5434 -0.5814 -0.1127
10829SOL    HW133928   0.751   1.708  10.399  1.2137 -0.1263 -0.1993
10829SOL    HW233929   0.628   1.704  10.310  0.3980 -0.3947  0.9067
10830SOL     OW33930   0.003   3.217  12.279  0.0185 -0.0709 -0.3542
10830SOL    HW133931  -0.042   3.198  12.196  0.2225  1.0626 -0.7548
10830SOL    HW233932   0.079   3.159  12.279 -0.6795 -0.9938 -0.3429
10831SOL     OW33933   5.817   1.444   8.462 -0.0128  0.3137 -0.9209
10831SOL    HW133934   5.766   1.520   8.491  0.1876  0.6152 -1.3432
10831SOL    HW233935   5.906   1.463   8.493 -0.0806 -0.0418 -0.4973
10832SOL     OW33936   1.384   4.287   6.168  0.1596 -0.1428  0.1220
10832SOL    HW133937   1.376   4.323   6.256 -1.0022 -1.6828  0.6731
10832SOL    HW233938   1.473   4.251   6.165 -0.4502 -1.8485  1.3807
10833SOL     OW33939   0.001   1.565   5.465 -0.3972 -0.2219 -0.3831
10833SOL    HW133940   0.064   1.602   5.527 -0.7087 -0.8461  0.3199
10833SOL    HW233941   0.053   1.508   5.409 -0.6213 -2.7938  1.8048
10834SOL     OW33942   3.706   7.088   7.867 -0.4513  0.8012 -0.2046
10834SOL    HW133943   3.710   7.160   7.930 -0.3625 -1.2151  2.2246
10834SOL    HW233944   3.779   7.105   7.807  0.7383  1.7342  1.4327
10835SOL     OW33945   1.766   6.957   5.434  0.4627  0.1769  0.5567
10835SOL    HW133946   1.728   6.919   5.513 -0.1579 -0.5616 -0.0908
10835SOL    HW233947   1.844   7.004   5.466 -0.0839  0.3610  1.6722
10836SOL     OW33948   0.723   7.549  10.342  0.1718  0.1546 -0.4448
10836SOL    HW133949   0.810   7.579  10.319  0.6288 -1.5717 -1.0683
10836SOL    HW233950   0.701   7.599  10.421  1.3548  1.2110 -0.7536
10837SOL     OW33951   5.883   6.441   8.516 -0.0399 -0.0376 -0.1675
10837SOL    HW133952   5.958   6.412   8.463  0.1835  0.5742 -0.1961
10837SOL    HW233953   5.851   6.362   8.558  1.3783 -0.1240  0.8021
10838SOL     OW33954   1.987   7.160   8.687  0.3750  0.2378  0.5328
10838SOL    HW133955   1.976   7.184   8.779  0.0178  0.3161  0.4718
10838SOL    HW233956   1.941   7.229   8.639 -0.1970 -0.2741  0.3293
10839SOL     OW33957   4.109   5.378   7.849  0.0418 -0.1504 -0.2329
10839SOL    HW133958   4.116   5.326   7.769  0.3967 -1.5150  0.6605
10839SOL    HW233959   4.108   5.314   7.919 -1.3457  0.9574  0.8221
10840SOL     OW33960   4.474   5.426   7.937 -0.1832  0.1068 -0.2246
10840SOL    HW133961   4.422   5.496   7.977 -3.2040 -1.4753 -1.0419
10840SOL    HW233962   4.431   5.410   7.853  3.2400  0.3107 -2.1573
10841SOL     OW33963   1.014   0.149   7.412 -0.4058 -0.7363 -0.0602
10841SOL    HW133964   1.036   0.088   7.482 -2.6328 -0.1297  1.2699
10841SOL    HW233965   0.949   0.103   7.360 -0.3956 -0.3408 -0.4251
10842SOL     OW33966   2.680   5.504   6.641  0.0120 -0.0937  0.2007
10842SOL    HW133967   2.596   5.548   6.628 -1.8370 -2.7622  1.9232
10842SOL    HW233968   2.664   5.414   6.611  2.5224 -0.5120 -0.0993
10843SOL     OW33969   2.917   6.004   7.209  0.9387  0.2167  0.3539
10843SOL    HW133970   2.885   5.914   7.208 -1.3955  0.8976 -2.6691
10843SOL    HW233971   2.870   6.046   7.281 -0.1269 -0.3685  0.0249
10844SOL     OW33972   1.286   6.213  12.414  0.2157 -0.2546  0.1075
10844SOL    HW133973   1.233   6.146  12.457  1.3847  0.2618  2.4769
10844SOL    HW233974   1.322   6.265  12.485  1.9975  0.8767 -1.5265
10845SOL     OW33975   2.152   7.266   7.114  0.1186  0.0707  0.1756
10845SOL    HW133976   2.109   7.180   7.117  0.9018 -0.4353 -1.4314
10845SOL    HW233977   2.120   7.306   7.033  0.0290  1.1667  0.7305
10846SOL     OW33978   7.978   7.230   8.733  0.2719 -0.1890  0.0136
10846SOL    HW133979   7.908   7.186   8.686  1.2654 -0.3349 -1.3822
10846SOL    HW233980   8.056   7.218   8.679  1.3705  0.0835  1.4478
10847SOL     OW33981   4.077   5.965  10.068 -0.2395 -0.6756  0.3888
10847SOL    HW133982   4.014   6.035  10.087  1.3047  0.3763  1.9331
10847SOL    HW233983   4.060   5.899  10.135  0.4124 -0.2932  0.9417
10848SOL     OW33984   4.264   6.248  10.607 -0.2458 -0.0311  0.5355
10848SOL    HW133985   4.219   6.169  10.637  1.0025 -1.2357 -0.6537
10848SOL    HW233986   4.357   6.225  10.606  0.3163  1.9119  1.4574
10849SOL     OW33987   5.558   5.537  12.055 -0.5347 -0.3088 -0.0307
10849SOL    HW133988   5.485   5.527  11.993 -0.6870 -0.0254  0.0962
10849SOL    HW233989   5.634   5.503  12.009 -0.8067 -0.9013 -0.0492
10850SOL     OW33990   6.331   4.948   1.130 -0.3218 -0.3719 -1.1234
10850SOL    HW133991   6.336   5.040   1.102 -3.3353 -0.1797 -1.3127
10850SOL    HW233992   6.337   4.898   1.048 -0.0453 -0.3047 -1.1479
10851SOL     OW33993   4.990   3.857   5.816  0.4150 -0.4433  0.2982
10851SOL    HW133994   4.923   3.792   5.796 -0.7840  1.4923 -2.7002
10851SOL    HW233995   4.960   3.900   5.896 -3.1063  1.5594 -1.8590
10852SOL     OW33996   7.526   4.360   6.155 -0.0134  0.4997 -0.1665
10852SOL    HW133997   7.613   4.371   6.115  0.8424 -1.2513  1.0526
10852SOL    HW233998   7.487   4.287   6.108  0.9665 -1.5262  1.9397
10853SOL     OW33999   3.093   6.223   0.707 -0.1429  0.3062 -0.0353
10853SOL    HW134000   3.033   6.182   0.645 -2.3673  0.8210  1.6529
10853SOL    HW234001   3.120   6.304   0.665 -0.6987  0.1141 -0.7794
10854SOL     OW34002   1.424   4.443   0.766  0.2963  0.0167  0.3812
10854SOL    HW134003   1.465   4.524   0.736  0.4784 -0.3536 -0.3776
10854SOL    HW234004   1.430   4.448   0.862  1.1465  0.4660  0.3117
10855SOL     OW34005   6.777   5.686   2.433  0.1356 -0.3986  0.6022
10855SOL    HW134006   6.765   5.670   2.339 -0.9266  0.3141  0.5929
10855SOL    HW234007   6.773   5.781   2.442 -1.2718 -0.5126  1.5252
10856SOL     OW34008   5.336   6.799   1.838  0.3584  0.0541 -0.1559
10856SOL    HW134009   5.265   6.861   1.855  0.0334 -0.0732 -0.9703
10856SOL    HW234010   5.411   6.834   1.885 -0.3611 -0.0657  1.1265
10857SOL     OW34011   7.826   0.639   8.965  0.3189 -0.0033  0.3161
10857SOL    HW134012   7.760   0.648   9.034  1.5213 -0.0715  1.5137
10857SOL    HW234013   7.789   0.575   8.904 -0.8636  0.2332  0.7587
10858SOL     OW34014   7.763   3.724   6.469  0.2566 -0.2372  0.1564
10858SOL    HW134015   7.816   3.769   6.535 -1.6146  2.2427  0.1073
10858SOL    HW234016   7.779   3.631   6.486  1.3815  0.3211  2.8001
10859SOL     OW34017   4.638   5.270  10.940  0.5750 -0.2800  0.4172
10859SOL    HW134018   4.717   5.324  10.934  0.1893  0.2921  0.4538
10859SOL    HW234019   4.607   5.264  10.849 -0.8544  1.7962  0.6846
10860SOL     OW34020   3.192   2.861   8.944 -0.7196  0.3522 -0.2249
10860SOL    HW134021   3.201   2.888   9.035 -1.5905  0.6777 -0.2279
10860SOL    HW234022   3.248   2.783   8.937 -0.9296  0.1020  0.6834
10861SOL     OW34023   0.553   7.450   6.876 -0.3189  0.1210  0.0690
10861SOL    HW134024   0.631   7.502   6.896 -0.3461  0.1781  0.0253
10861SOL    HW234025   0.585   7.360   6.871  0.2191  0.3934 -2.4663
10862SOL     OW34026   3.269   0.550   8.989  0.3506 -0.0111 -0.1107
10862SOL    HW134027   3.214   0.476   9.013  1.0757  0.5970  4.0834
10862SOL    HW234028   3.358   0.523   9.013  0.9365  1.4752 -0.4883
10863SOL     OW34029   3.775   5.630   7.317  0.3834  0.1538  0.2288
10863SOL    HW134030   3.847   5.594   7.265 -0.1673  0.1224 -0.5317
10863SOL    HW234031   3.696   5.605   7.269 -0.1364  0.2602  1.0058
10864SOL     OW34032   6.069   4.025   8.438 -0.8209 -0.3653  0.1286
10864SOL    HW134033   6.024   4.106   8.463  1.5307  0.9636  0.3567
10864SOL    HW234034   6.038   4.008   8.349 -1.4277  0.7225  0.1077
10865SOL     OW34035   3.032   3.010   4.382 -0.0652  0.0461 -0.1535
10865SOL    HW134036   3.087   3.085   4.407  0.2456  1.1039 -3.5835
10865SOL    HW234037   2.943   3.045   4.386 -0.2752 -0.5694  1.7472
10866SOL     OW34038   4.755   0.495  12.346  0.1068  0.5070  0.0522
10866SOL    HW134039   4.728   0.422  12.291  1.8004  0.1115 -0.3157
10866SOL    HW234040   4.786   0.561  12.285  1.3165  0.3541  0.4698
10867SOL     OW34041   6.136   5.407   1.297  0.0581 -0.1453 -0.5137
10867SOL    HW134042   6.084   5.423   1.376  0.4711 -0.4671 -0.1733
10867SOL    HW234043   6.108   5.321   1.267  0.6298 -0.4674 -0.1384
10868SOL     OW34044   2.914   2.665   5.958  0.4077 -0.0861  0.2148
10868SOL    HW134045   2.896   2.728   6.028  0.6407  0.3779 -0.1394
10868SOL    HW234046   3.007   2.674   5.939  1.3132 -2.9792  2.5077
10869SOL     OW34047   6.511   6.400   8.595 -0.2356  0.2692  0.3115
10869SOL    HW134048   6.468   6.456   8.530 -1.7679  0.4571  1.4156
10869SOL    HW234049   6.462   6.416   8.676  2.4110  1.0433  1.8801
10870SOL     OW34050   5.145   0.513   4.275  0.3199  0.5648  0.2640
10870SOL    HW134051   5.145   0.561   4.357  0.6814 -0.1593  0.6932
10870SOL    HW234052   5.234   0.479   4.266  0.6933  1.7899 -1.1201
10871SOL     OW34053   3.573   4.866  10.101  0.0609 -0.1804  0.2071
10871SOL    HW134054   3.520   4.805  10.153  0.8993 -0.9420  0.1821
10871SOL    HW234055   3.607   4.813  10.029  0.0163  0.5528 -0.3654
10872SOL     OW34056   6.656   4.846   7.991  0.3470 -0.2158 -0.2648
10872SOL    HW134057   6.563   4.831   8.006  0.6872 -3.0792 -0.4660
10872SOL    HW234058   6.660   4.896   7.910 -1.0077  1.6092  0.7134
10873SOL     OW34059   3.367   6.859   5.975 -0.0533  0.1918 -0.3325
10873SOL    HW134060   3.447   6.889   6.017 -0.1797  2.4114 -1.4913
10873SOL    HW234061   3.388   6.857   5.881 -0.7396 -1.3227 -0.4841
10874SOL     OW34062   2.235   3.637  10.809  0.0130  0.0021  0.4162
10874SOL    HW134063   2.204   3.697  10.877  0.2085 -0.1823  0.6696
10874SOL    HW234064   2.303   3.686  10.763 -0.4153  0.2848  0.0740
10875SOL     OW34065   2.382   3.110   0.743  0.7622  0.2953  0.0646
10875SOL    HW134066   2.366   3.085   0.834  0.1673 -0.7399 -0.3076
10875SOL    HW234067   2.417   3.031   0.702  0.1216  0.4514 -0.8231
10876SOL     OW34068   7.263   4.504   4.851 -0.1686  0.7474 -0.1160
10876SOL    HW134069   7.330   4.472   4.791  0.5265  0.3216  0.8528
10876SOL    HW234070   7.311   4.522   4.932 -1.4624 -1.2191  1.1758
10877SOL     OW34071   2.070   2.438   2.162  0.4559 -0.0024 -0.3000
10877SOL    HW134072   1.991   2.391   2.189  0.2139  0.2165 -0.6224
10877SOL    HW234073   2.104   2.478   2.242  0.9068 -1.0753  0.0734
10878SOL     OW34074   0.043   2.158   0.953 -0.0107  0.2249  0.2444
10878SOL    HW134075   0.006   2.078   0.916 -0.0156 -0.3644  1.4635
10878SOL    HW234076   0.062   2.213   0.877  0.7006 -1.2268 -0.6736
10879SOL     OW34077   4.375   2.480   2.634  0.0867  0.3562 -0.2135
10879SOL    HW134078   4.461   2.506   2.667  0.6590 -0.9980 -0.5605
10879SOL    HW234079   4.393   2.408   2.574 -1.2334  0.5656 -0.8989
10880SOL     OW34080   5.882   4.555   1.314 -0.2417  0.5206 -0.0348
10880SOL    HW134081   5.921   4.594   1.236 -0.2698 -0.9498 -0.8272
10880SOL    HW234082   5.928   4.472   1.325  1.2148  1.5716  2.7556
10881SOL     OW34083   7.360   3.575   0.035  0.0424 -0.4750 -0.2540
10881SOL    HW134084   7.312   3.545   0.112  0.9775  1.6086  1.2219
10881SOL    HW234085   7.320   3.659   0.013  1.0092 -0.1642 -0.8872
10882SOL     OW34086   5.917   3.737   3.713 -0.8950 -0.3137  0.5200
10882SOL    HW134087   5.978   3.682   3.762 -0.5051  0.9481  1.5058
10882SOL    HW234088   5.960   3.753   3.629 -0.8661 -1.2165  0.3549
10883SOL     OW34089   2.247   5.768  10.724 -0.0938 -0.0820  0.8402
10883SOL    HW134090   2.251   5.830  10.651 -0.3886 -1.6530 -0.5761
10883SOL    HW234091   2.157   5.736  10.724  0.3677 -1.4596  0.6908
10884SOL     OW34092   3.119   6.930   9.768  0.3015 -0.1995 -0.3257
10884SOL    HW134093   3.160   6.994   9.827  0.9436  1.3212 -2.3193
10884SOL    HW234094   3.026   6.935   9.788  0.4675  0.5359  0.3081
10885SOL     OW34095   1.384   6.019   4.961  0.0653 -0.3298  0.1852
10885SOL    HW134096   1.437   6.085   4.916  1.0584 -0.3404  1.2739
10885SOL    HW234097   1.297   6.026   4.922  0.5327  0.6209 -0.7225
10886SOL     OW34098   3.703   6.029   4.684 -0.1608 -0.0433  0.2180
10886SOL    HW134099   3.766   6.068   4.623  0.7661 -1.0822  0.4761
10886SOL    HW234100   3.709   5.935   4.668 -1.0119 -0.2245  0.8739
10887SOL     OW34101   7.273   3.593   0.724 -0.5415  0.6575  0.2842
10887SOL    HW134102   7.256   3.510   0.769  2.3062  0.7464  1.7708
10887SOL    HW234103   7.321   3.567   0.644 -0.6168  0.8072  0.1910
10888SOL     OW34104   2.206   4.681  10.192 -0.3491  0.0273 -0.2555
10888SOL    HW134105   2.144   4.611  10.211  1.6953 -2.3516 -1.7391
10888SOL    HW234106   2.176   4.719  10.109 -1.3762  0.8435  0.4757
10889SOL     OW34107   2.219   5.906   7.317 -0.4071  0.0770  0.1877
10889SOL    HW134108   2.156   5.885   7.387 -0.1386 -0.4331  0.2848
10889SOL    HW234109   2.271   5.826   7.308  1.6353  1.1665  1.5980
10890SOL     OW34110   1.724   4.536  11.941  0.5177  0.5199  0.0066
10890SOL    HW134111   1.799   4.522  11.999  0.0567 -0.2236  0.4480
10890SOL    HW234112   1.762   4.542  11.853  1.0426 -0.6926  0.1248
10891SOL     OW34113   0.855   2.546   3.538 -0.1210  0.0451 -0.7623
10891SOL    HW134114   0.859   2.637   3.569 -2.1354 -0.7407  2.2774
10891SOL    HW234115   0.818   2.552   3.450  1.8373  2.2271 -1.5424
10892SOL     OW34116   0.346   6.749  10.346  0.2970  0.3179 -0.2471
10892SOL    HW134117   0.414   6.813  10.327  0.5848  0.1213  0.1136
10892SOL    HW234118   0.305   6.781  10.426  0.7337 -0.1826  0.1793
10893SOL     OW34119   7.727   0.359   3.732  0.2286  0.6269  0.0605
10893SOL    HW134120   7.797   0.400   3.783  1.0042  0.7337 -1.0425
10893SOL    HW234121   7.755   0.267   3.723 -0.2530  0.4413  0.4055
10894SOL     OW34122   3.541   3.598   4.400 -0.5542  0.0881 -0.0730
10894SOL    HW134123   3.614   3.599   4.338 -0.8105  0.7481 -0.3672
10894SOL    HW234124   3.580   3.627   4.483 -0.1569 -1.0405  0.1617
10895SOL     OW34125   6.957   7.742  11.485 -0.4206  0.0566 -0.3780
10895SOL    HW134126   7.040   7.710  11.519  0.1821  1.8719 -0.0274
10895SOL    HW234127   6.941   7.690  11.407 -0.4316 -2.2868  1.1000
10896SOL     OW34128   4.565   1.825   9.212  0.1732  0.1635 -0.4605
10896SOL    HW134129   4.614   1.751   9.249  0.4356  1.1762  1.3078
10896SOL    HW234130   4.529   1.871   9.287 -2.3479  0.3049 -1.6434
10897SOL     OW34131   7.245   2.538   8.599  0.6168 -0.0334  0.1663
10897SOL    HW134132   7.288   2.574   8.521  1.0509 -0.2369  0.3111
10897SOL    HW234133   7.162   2.503   8.566  0.4373  0.5935 -0.0678
10898SOL     OW34134   1.089   0.898   2.318 -0.5174  0.0993 -0.0972
10898SOL    HW134135   1.040   0.838   2.262 -0.9188 -1.0395  1.4046
10898SOL    HW234136   1.025   0.962   2.348 -0.8242 -0.6000  0.7928
10899SOL     OW34137   6.329   3.261   5.232 -0.0620  0.3637 -0.5859
10899SOL    HW134138   6.302   3.177   5.269  0.8014 -0.2870 -1.3866
10899SOL    HW234139   6.367   3.239   5.147  0.2815  1.5569 -0.7658
10900SOL     OW34140   6.224   0.050  12.424 -0.9258  0.9170  0.1084
10900SOL    HW134141   6.284   0.124  12.419 -0.7762  0.7284 -1.5886
10900SOL    HW234142   6.270  -0.021  12.379 -2.1286  0.5736 -0.6309
10901SOL     OW34143   2.159   4.771  10.467 -0.0961 -0.4756 -0.2252
10901SOL    HW134144   2.190   4.740  10.382  0.1265 -0.7825 -0.0335
10901SOL    HW234145   2.088   4.831  10.446 -1.0872 -1.7334 -0.5672
10902SOL     OW34146   6.138   2.180   9.237 -0.5082  0.3861  0.0938
10902SOL    HW134147   6.155   2.231   9.316 -0.1385  1.2982 -0.5483
10902SOL    HW234148   6.218   2.130   9.223 -0.6710  0.0260  0.4330
10903SOL     OW34149   7.292   3.191   3.990 -0.0818  0.0491 -0.6222
10903SOL    HW134150   7.287   3.277   3.948 -0.4595  0.1192 -0.4377
10903SOL    HW234151   7.304   3.130   3.918 -1.5026  0.0906 -0.9241
10904SOL     OW34152   0.642   5.332   8.344  0.1333 -0.0361 -0.2933
10904SOL    HW134153   0.663   5.318   8.252  0.8131 -3.5718  0.2469
10904SOL    HW234154   0.566   5.391   8.343  1.1069  1.3223 -2.9757
10905SOL     OW34155   1.221   6.665   6.951 -0.0018 -0.3943  0.3896
10905SOL    HW134156   1.165   6.587   6.954  2.7187 -2.5540 -1.1349
10905SOL    HW234157   1.285   6.651   7.021  1.6853 -0.5745 -1.1309
10906SOL     OW34158   0.313   0.344  10.050 -0.4605 -0.2993 -0.0400
10906SOL    HW134159   0.233   0.294  10.068 -0.2993 -0.1009  1.3249
10906SOL    HW234160   0.325   0.398  10.128  0.8969 -0.1649 -0.3277
10907SOL     OW34161   3.480   0.710   1.543  0.1390 -0.0106  0.3759
10907SOL    HW134162   3.495   0.792   1.591  0.4711  0.2081 -0.0923
10907SOL    HW234163   3.484   0.643   1.611 -2.2848  0.5099  1.1167
10908SOL     OW34164   6.689   3.841   7.347 -0.4263 -0.6085  0.2276
10908SOL    HW134165   6.616   3.779   7.336 -1.8363  0.6997  1.6967
10908SOL    HW234166   6.651   3.926   7.323  0.2846  0.2514  2.0099
10909SOL     OW34167   1.915   5.315   6.173 -0.1066  0.3181  0.2283
10909SOL    HW134168   1.977   5.367   6.121 -0.4501 -1.0993 -1.7080
10909SOL    HW234169   1.971   5.260   6.228  0.3089  0.3999 -0.1024
10910SOL     OW34170   2.130   5.772   9.876  0.6822  0.7011  0.4999
10910SOL    HW134171   2.091   5.723   9.947 -0.3252 -0.5743 -0.8636
10910SOL    HW234172   2.209   5.724   9.853  0.4091  0.4614  0.0420
10911SOL     OW34173   5.136   7.958   8.112  0.1115 -0.1625 -0.2431
10911SOL    HW134174   5.201   7.980   8.178  0.1616  0.0324 -0.3553
10911SOL    HW234175   5.077   8.033   8.110  0.4225  0.0711 -0.8009
10912SOL     OW34176   5.281   2.216   7.909 -0.2001  0.0315 -0.1705
10912SOL    HW134177   5.226   2.245   7.982  0.4453  1.2011 -0.1202
10912SOL    HW234178   5.231   2.241   7.831 -0.9310 -1.2986 -0.1618
10913SOL     OW34179   6.543   3.972   7.055 -0.2701  0.2163 -0.6886
10913SOL    HW134180   6.628   3.943   7.024 -0.1789  0.0358 -0.2599
10913SOL    HW234181   6.485   3.897   7.041 -0.2888  0.2278 -0.6741
10914SOL     OW34182   4.106   7.075   5.801 -0.0757 -0.3856 -0.1107
10914SOL    HW134183   4.049   7.013   5.755 -1.5864  0.8673 -0.0014
10914SOL    HW234184   4.166   7.106   5.733  0.2783 -1.4618 -0.3092
10915SOL     OW34185   4.203   7.147   4.494  0.1524  0.8413 -0.2457
10915SOL    HW134186   4.222   7.144   4.401  0.6563  0.3020 -0.1261
10915SOL    HW234187   4.108   7.136   4.499  0.0870  1.1734 -0.7060
10916SOL     OW34188   5.751   7.956   1.161  0.3208 -0.1215  0.1953
10916SOL    HW134189   5.833   7.908   1.149  0.0479 -0.4538 -0.3621
10916SOL    HW234190   5.683   7.889   1.162  0.1988 -0.0521  2.6803
10917SOL     OW34191   1.975   0.939   3.095 -0.1123 -0.4523 -0.4269
10917SOL    HW134192   1.983   0.850   3.061  1.7369  0.4571 -2.7222
10917SOL    HW234193   1.963   0.993   3.017  0.3749  1.4493  0.7465
10918SOL     OW34194   1.388   2.150   5.692 -0.5585  0.0596 -0.6636
10918SOL    HW134195   1.351   2.065   5.669  0.0543 -0.1629 -0.8248
10918SOL    HW234196   1.416   2.187   5.608  1.5807 -0.7024 -0.3241
10919SOL     OW34197   3.578   2.207   9.039  0.3064 -0.3284  0.4492
10919SOL    HW134198   3.651   2.148   9.051  1.0487  0.1673 -1.3749
10919SOL    HW234199   3.500   2.155   9.061  0.9547 -1.9059 -0.8109
10920SOL     OW34200   7.949   3.168   1.712 -0.1526 -0.1635 -0.0701
10920SOL    HW134201   7.877   3.125   1.666  0.2867 -0.4009 -0.5470
10920SOL    HW234202   7.948   3.258   1.680 -0.2290 -0.1677 -0.0807
10921SOL     OW34203   3.937   5.992  12.199 -0.0250 -1.0652  0.1828
10921SOL    HW134204   4.004   5.955  12.258  0.9111  1.3210  0.7092
10921SOL    HW234205   3.932   6.084  12.224 -1.6259 -0.6131 -1.6640
10922SOL     OW34206   4.050   4.295  11.661 -0.4398 -0.4895  0.1588
10922SOL    HW134207   4.060   4.364  11.727  1.5824  0.3751 -0.9558
10922SOL    HW234208   3.986   4.235  11.698  0.5634 -0.0046  2.8755
10923SOL     OW34209   0.103   2.530   9.723  0.2832  0.2079  0.2193
10923SOL    HW134210   0.124   2.580   9.801  1.5791  1.0440 -0.6224
10923SOL    HW234211   0.035   2.469   9.751 -0.1272  1.2857  1.6880
10924SOL     OW34212   6.097   1.840   9.590 -0.2522 -0.1881  0.5767
10924SOL    HW134213   6.127   1.930   9.576 -1.4519  0.1367  0.0047
10924SOL    HW234214   6.036   1.823   9.519 -0.8222 -1.1065  1.2600
10925SOL     OW34215   2.271   2.778   0.319  0.0774 -0.8502  0.5077
10925SOL    HW134216   2.350   2.822   0.289 -0.4672 -0.4048 -0.3088
10925SOL    HW234217   2.204   2.847   0.322 -0.6972 -1.5254 -0.4421
10926SOL     OW34218   5.482   2.210   2.433  0.1116  0.2951 -0.2236
10926SOL    HW134219   5.410   2.199   2.496 -0.6513 -0.0681 -1.1292
10926SOL    HW234220   5.440   2.200   2.348  1.2424  0.1233 -0.7732
10927SOL     OW34221   0.037   4.405   4.031  0.3834  0.5326  0.2597
10927SOL    HW134222   0.074   4.443   3.951  0.9108 -0.8914 -0.2080
10927SOL    HW234223   0.105   4.417   4.097  0.7399  0.0253 -0.0035
10928SOL     OW34224   6.750   7.409   9.867 -0.1954 -0.0454 -0.4486
10928SOL    HW134225   6.759   7.396   9.773  1.4849 -2.4328 -0.0522
10928SOL    HW234226   6.706   7.329   9.897  0.9087 -0.1426  0.9903
10929SOL     OW34227   7.617   2.487   8.968  0.2352  0.9399  0.1924
10929SOL    HW134228   7.630   2.403   9.014 -0.7708 -0.6613 -2.2449
10929SOL    HW234229   7.523   2.501   8.970  0.4679  2.6366  1.4829
10930SOL     OW34230   7.084   3.169   4.167 -0.4054 -0.9334  0.4111
10930SOL    HW134231   7.091   3.261   4.195 -0.0774 -0.6795 -0.5021
10930SOL    HW234232   7.139   3.163   4.090 -1.9697 -1.4172 -0.7134
10931SOL     OW34233   7.672   1.173  12.048 -0.4478 -0.7237 -0.3121
10931SOL    HW134234   7.637   1.133  11.968  1.8579  0.0087 -1.7587
10931SOL    HW234235   7.727   1.105  12.086  0.9257 -0.0627 -1.0568
10932SOL     OW34236   5.560   2.451   6.169 -0.0525  0.1825  0.3336
10932SOL    HW134237   5.487   2.417   6.117 -0.0928  0.6522  0.0832
10932SOL    HW234238   5.611   2.372   6.191 -1.3800 -0.3227  1.7208
10933SOL     OW34239   0.157   2.860  11.188  0.2438 -0.1351 -0.0734
10933SOL    HW134240   0.186   2.912  11.263  0.5017  0.0692 -0.3108
10933SOL    HW234241   0.232   2.804  11.167  0.0609 -0.4168  0.0152
10934SOL     OW34242   3.791   6.277   5.028  0.4889 -0.2464  0.4499
10934SOL    HW134243   3.853   6.248   5.096  0.6988 -0.6812  0.0756
10934SOL    HW234244   3.736   6.200   5.012  0.0692  0.0339  0.5353
10935SOL     OW34245   5.239   1.750   8.043 -0.4283 -0.2094 -0.7626
10935SOL    HW134246   5.159   1.803   8.041 -0.2630  0.0411 -0.8611
10935SOL    HW234247   5.236   1.700   7.962  0.1642  0.7839 -1.4150
10936SOL     OW34248   6.227   7.966   6.301 -0.0500 -0.0132  0.1870
10936SOL    HW134249   6.258   8.052   6.274 -1.2241 -0.1938 -1.9767
10936SOL    HW234250   6.250   7.908   6.228 -1.3405 -1.0333  0.5463
10937SOL     OW34251   3.263   0.257   9.317  0.4359 -0.2867  0.1118
10937SOL    HW134252   3.245   0.351   9.321  0.8420 -0.1789 -0.4491
10937SOL    HW234253   3.177   0.216   9.327  0.3320  0.1231  0.9773
10938SOL     OW34254   4.484   5.781   9.154  0.6835 -0.0247 -0.2586
10938SOL    HW134255   4.396   5.806   9.180  1.7324  2.3232  1.3415
10938SOL    HW234256   4.494   5.816   9.065  0.0658 -0.1895 -0.3960
10939SOL     OW34257   3.677   7.174  10.929 -0.1526 -0.1767  0.0036
10939SOL    HW134258   3.687   7.207  11.018  0.0347 -0.3058  0.0311
10939SOL    HW234259   3.583   7.168  10.915 -0.1711 -1.0070  0.4988
10940SOL     OW34260   3.040   1.961  10.386  0.1583  0.2066  0.1424
10940SOL    HW134261   3.135   1.964  10.372  0.1523  1.2199  0.2516
10940SOL    HW234262   3.031   1.935  10.478  0.3294  0.2665  0.1776
10941SOL     OW34263   6.798   5.929  11.981  0.3469 -0.6362  0.6060
10941SOL    HW134264   6.836   5.878  12.053 -0.3371 -0.5918  1.0161
10941SOL    HW234265   6.761   6.006  12.024  0.4131 -0.3357  0.1310
10942SOL     OW34266   3.739   5.864   1.493  0.3251  0.3935  0.1885
10942SOL    HW134267   3.747   5.936   1.430  0.9947  0.4622  0.3500
10942SOL    HW234268   3.700   5.793   1.442  1.1084  0.3606 -0.3863
10943SOL     OW34269   7.002   5.925  11.190 -0.3636 -0.4212 -0.1747
10943SOL    HW134270   6.909   5.938  11.209 -0.1346 -0.7267  1.2747
10943SOL    HW234271   7.008   5.833  11.162 -0.4794 -0.4316 -0.1663
10944SOL     OW34272   0.735   5.082   7.968 -0.4741  0.3018  0.3734
10944SOL    HW134273   0.655   5.067   8.018 -1.7498  1.0350 -1.3405
10944SOL    HW234274   0.746   5.003   7.915 -1.0540  0.8786 -0.6394
10945SOL     OW34275   5.298   7.774   0.960 -0.0933 -0.0852 -0.4775
10945SOL    HW134276   5.261   7.690   0.987  1.7785 -0.5552  0.8345
10945SOL    HW234277   5.232   7.838   0.986 -1.1663 -1.0611 -0.6856
10946SOL     OW34278   3.891   5.321   7.340 -0.6464 -0.1555  0.0141
10946SOL    HW134279   3.802   5.346   7.317 -0.5810 -0.3767 -0.5057
10946SOL    HW234280   3.946   5.378   7.287 -0.4933 -0.7921 -0.5321
10947SOL     OW34281   0.955   7.444   1.466 -0.0386  0.2571  0.0310
10947SOL    HW134282   0.969   7.363   1.416 -0.1966  0.5168 -0.4378
10947SOL    HW234283   0.870   7.476   1.436 -0.4464  0.0730  0.9492
10948SOL     OW34284   5.949   2.320   8.718  0.1265  0.0595 -0.2284
10948SOL    HW134285   5.899   2.361   8.648 -0.6210 -0.2859  0.0859
10948SOL    HW234286   5.919   2.363   8.798 -0.2745 -0.7049  0.0477
10949SOL     OW34287   0.028   6.016  10.876  0.2905  0.1646  0.1131
10949SOL    HW134288   0.109   6.061  10.901  0.5716  0.6395 -1.5362
10949SOL    HW234289   0.018   6.035  10.783  0.0056 -2.5558 -0.4796
10950SOL     OW34290   2.886   1.783   7.111  0.0333 -0.4635 -0.2921
10950SOL    HW134291   2.852   1.751   7.195  1.5601 -1.4241 -0.0070
10950SOL    HW234292   2.965   1.731   7.096  0.4986  0.6087 -1.7007
10951SOL     OW34293   5.067   1.550   8.244 -0.2435  0.9835  0.1382
10951SOL    HW134294   5.097   1.538   8.334 -1.4381 -0.4972  0.3860
10951SOL    HW234295   5.138   1.514   8.190 -0.3487  0.0367  0.6002
10952SOL     OW34296   5.428   7.272  12.363  0.0750 -0.4622 -0.2611
10952SOL    HW134297   5.449   7.330  12.290  3.3282 -1.1508 -0.0306
10952SOL    HW234298   5.496   7.290  12.428 -0.4435 -2.5673  0.9585
10953SOL     OW34299   3.122   3.255  10.316 -0.0425  0.4872  0.2282
10953SOL    HW134300   3.107   3.228  10.407  0.9592 -0.3614  0.1591
10953SOL    HW234301   3.146   3.175  10.271  1.7099  1.2510 -0.2812
10954SOL     OW34302   5.331   6.043   4.544  0.3768 -1.0048  0.7446
10954SOL    HW134303   5.270   5.970   4.533 -0.4032 -0.2493 -0.1194
10954SOL    HW234304   5.282   6.110   4.591 -0.1711  0.3622 -1.5889
10955SOL     OW34305   0.564   5.421   9.948  0.4378  0.2956  0.3598
10955SOL    HW134306   0.655   5.400   9.925  0.7383  1.2494  0.6578
10955SOL    HW234307   0.538   5.489   9.886 -0.1311 -0.0689  0.1858
10956SOL     OW34308   6.471   7.787   8.379 -0.6052  0.0711  1.0399
10956SOL    HW134309   6.491   7.870   8.334 -2.6833  0.2168  0.2648
10956SOL    HW234310   6.548   7.770   8.433 -0.0273  2.3952  1.0619
10957SOL     OW34311   6.989   4.205   8.045 -0.2364 -0.2450  0.6651
10957SOL    HW134312   6.970   4.203   8.139 -0.8051  3.4135  0.7544
10957SOL    HW234313   6.908   4.238   8.005 -0.1276 -2.0522 -1.2308
10958SOL     OW34314   1.609   7.754  10.750  0.1511  0.4626 -0.3389
10958SOL    HW134315   1.591   7.675  10.698 -0.9440 -0.3089  1.1313
10958SOL    HW234316   1.536   7.759  10.811 -0.4308  3.3139 -1.1324
10959SOL     OW34317   6.933   0.092  10.302 -0.0239  0.5369 -0.4155
10959SOL    HW134318   6.964   0.060  10.217  0.0098  0.7670 -0.4898
10959SOL    HW234319   6.847   0.051  10.312  1.6146 -2.8623  1.3242
10960SOL     OW34320   1.683   0.770  10.783  0.1202  0.0918  0.6439
10960SOL    HW134321   1.669   0.769  10.688  0.8923  1.0083  0.4948
10960SOL    HW234322   1.618   0.831  10.816 -0.3821 -0.4982  0.7550
10961SOL     OW34323   4.881   1.515   3.334  0.6462 -0.1031  0.3486
10961SOL    HW134324   4.947   1.581   3.352  0.8720 -0.1516 -0.2626
10961SOL    HW234325   4.929   1.444   3.291 -0.2155  1.1877 -3.1374
10962SOL     OW34326   5.202   7.230   4.492 -0.1511 -0.6204  0.5673
10962SOL    HW134327   5.148   7.165   4.449  0.2046 -0.1682 -0.5872
10962SOL    HW234328   5.239   7.283   4.421  1.0729 -0.3423  1.3643
10963SOL     OW34329   6.134   5.885  10.822 -0.3946  0.1119 -0.3383
10963SOL    HW134330   6.081   5.858  10.897  0.2504  1.1681  0.5133
10963SOL    HW234331   6.215   5.918  10.860 -0.5071  1.7111 -1.4192
10964SOL     OW34332   6.626   4.894   7.719 -0.4696 -0.1331  0.1829
10964SOL    HW134333   6.542   4.934   7.698 -0.0648  1.4496  1.4106
10964SOL    HW234334   6.614   4.801   7.699 -1.7407  0.4192 -1.9019
10965SOL     OW34335   6.072   0.847  11.508 -0.1163  0.3598  0.7154
10965SOL    HW134336   6.150   0.794  11.490 -0.0950  0.4985  0.3852
10965SOL    HW234337   6.094   0.898  11.585  0.1041  0.3700  0.6459
10966SOL     OW34338   7.461   6.167   0.311 -0.7323  0.4943  0.6407
10966SOL    HW134339   7.481   6.084   0.355 -0.8533  0.3245  0.3779
10966SOL    HW234340   7.478   6.234   0.377  2.3326  0.5200 -0.0538
10967SOL     OW34341   5.522   4.387   8.639  0.0541 -0.3173  0.0122
10967SOL    HW134342   5.522   4.298   8.675 -1.9412 -1.4401 -2.4402
10967SOL    HW234343   5.530   4.375   8.545 -0.1230  2.1172 -0.3742
10968SOL     OW34344   2.150   7.370   8.848 -0.3419 -0.0955  0.2735
10968SOL    HW134345   2.220   7.307   8.864 -0.4090  0.0402  1.1896
10968SOL    HW234346   2.179   7.420   8.772  0.0961 -0.6814  0.0534
10969SOL     OW34347   2.442   0.163   9.108  0.1907  0.2842  0.1419
10969SOL    HW134348   2.479   0.094   9.053 -1.0384  0.7306 -1.3064
10969SOL    HW234349   2.513   0.226   9.118  0.7423 -0.2908 -0.0780
10970SOL     OW34350   0.733   1.312  10.297  0.2752  0.1032  0.2575
10970SOL    HW134351   0.764   1.221  10.303  2.2938  0.4884 -2.2902
10970SOL    HW234352   0.813   1.364  10.302 -0.1617  1.3923 -3.2312
10971SOL     OW34353   7.191   2.600   3.724 -0.3796  0.1303 -0.4412
10971SOL    HW134354   7.132   2.536   3.685  0.2487 -0.6509 -0.1394
10971SOL    HW234355   7.203   2.667   3.657 -0.4856 -0.4288 -1.0169
10972SOL     OW34356   2.109   2.912   6.484  0.4157  0.7858  0.3643
10972SOL    HW134357   2.196   2.929   6.518 -0.2211  2.4040  1.2651
10972SOL    HW234358   2.053   2.977   6.525 -1.4427 -0.8859  0.6521
10973SOL     OW34359   3.252   5.510   5.142 -1.1650  0.4476  0.3971
10973SOL    HW134360   3.216   5.562   5.071  2.1115  0.1604 -1.6713
10973SOL    HW234361   3.251   5.568   5.218 -0.7882  2.3461 -0.9918
10974SOL     OW34362   0.044   5.043   3.290  0.1058  0.3214  0.0704
10974SOL    HW134363   0.021   4.956   3.323 -1.4474  1.2148  1.5710
10974SOL    HW234364   0.025   5.040   3.196 -1.4538 -0.5228  0.3830
10975SOL     OW34365   2.049   4.173  12.392  0.3227  0.2670  0.1724
10975SOL    HW134366   2.084   4.084  12.394 -0.2827  0.0372  1.2523
10975SOL    HW234367   2.113   4.223  12.341  1.3799 -0.4887  0.7182
10976SOL     OW34368   7.034   1.103   4.986 -0.1772 -0.2093  0.1412
10976SOL    HW134369   7.127   1.110   5.005  0.3969  0.0264 -2.3869
10976SOL    HW234370   7.023   1.144   4.900 -2.5537 -0.5776  0.1818
10977SOL     OW34371   0.180   5.965   6.141  0.0493  0.0358 -0.1286
10977SOL    HW134372   0.220   5.879   6.155 -0.5998 -0.5082 -1.4548
10977SOL    HW234373   0.251   6.027   6.158  0.3915 -0.7167  1.3639
10978SOL     OW34374   4.603   0.486  10.898 -0.0245 -0.3118  0.0089
10978SOL    HW134375   4.688   0.498  10.940 -0.0635  2.7123 -0.5727
10978SOL    HW234376   4.606   0.397  10.863  1.8932 -1.1733  2.1186
10979SOL     OW34377   1.703   0.117   0.873 -0.2764 -0.0177 -0.4656
10979SOL    HW134378   1.788   0.155   0.895 -1.6026  2.0933  1.4739
10979SOL    HW234379   1.691   0.138   0.780 -0.3020  3.3080  0.1615
10980SOL     OW34380   5.744   7.558   3.288  0.2458 -0.1567  0.0131
10980SOL    HW134381   5.832   7.522   3.295  0.0789 -0.9792 -1.5945
10980SOL    HW234382   5.713   7.563   3.379  0.7010 -3.0867  0.4284
10981SOL     OW34383   1.556   3.631   2.549 -0.5852  0.7594  0.2700
10981SOL    HW134384   1.586   3.722   2.545 -0.5148  0.7603  0.7202
10981SOL    HW234385   1.613   3.583   2.489 -0.3165  0.9298  0.3910
10982SOL     OW34386   0.677   3.197  12.445 -0.0014  0.0554  0.1003
10982SOL    HW134387   0.621   3.269  12.472 -0.7787 -0.7315  0.6474
10982SOL    HW234388   0.739   3.186  12.517  0.1892  0.2502 -0.0342
10983SOL     OW34389   4.531   0.247   0.124 -0.3842 -0.1533 -0.6463
10983SOL    HW134390   4.514   0.194   0.202  1.4071 -0.6094 -0.5066
10983SOL    HW234391   4.604   0.304   0.150 -3.1631  3.5799 -0.2757
10984SOL     OW34392   2.543   2.586   4.730 -0.0577  0.0505  0.3474
10984SOL    HW134393   2.507   2.503   4.761  0.6982 -0.7947 -0.9161
10984SOL    HW234394   2.468   2.645   4.726 -0.7729 -0.8251  0.4795
10985SOL     OW34395   4.769   6.966   3.587  0.3034  0.0872 -0.0143
10985SOL    HW134396   4.760   6.923   3.672  2.8124  1.2344  0.9321
10985SOL    HW234397   4.692   6.938   3.538 -1.8401  0.2570  2.9813
10986SOL     OW34398   7.735   7.342   9.607  0.3834  0.6100 -0.2736
10986SOL    HW134399   7.696   7.267   9.652 -0.1699  0.5144 -0.9011
10986SOL    HW234400   7.818   7.356   9.652 -0.1337  0.4864  0.7455
10987SOL     OW34401   2.257   4.303  11.183  0.3039  0.0502  0.3025
10987SOL    HW134402   2.188   4.270  11.239  0.9331  0.2250  1.2108
10987SOL    HW234403   2.216   4.316  11.097 -0.7438  0.0473  0.7989
10988SOL     OW34404   4.411   0.972  11.566 -0.1861  0.0387 -0.4831
10988SOL    HW134405   4.370   1.016  11.640 -2.5119 -1.3763 -0.8012
10988SOL    HW234406   4.475   0.913  11.605 -2.4846 -1.8791  0.6672
10989SOL     OW34407   7.071   7.541   9.352 -0.1603 -0.7479 -0.0334
10989SOL    HW134408   7.018   7.538   9.271  0.6956 -2.4954 -0.5787
10989SOL    HW234409   7.009   7.521   9.422 -0.7533 -0.0427 -0.3503
10990SOL     OW34410   6.389   4.445   9.538 -0.4278  0.5377 -0.3374
10990SOL    HW134411   6.442   4.523   9.522 -0.0434  0.2859 -0.3217
10990SOL    HW234412   6.451   4.372   9.531 -0.6851  0.2693  0.1219
10991SOL     OW34413   0.134   1.965   1.592  0.3750  0.3091 -0.0478
10991SOL    HW134414   0.082   1.993   1.516  0.4888  0.3434 -0.1127
10991SOL    HW234415   0.225   1.979   1.565  0.4771  4.7461  1.6338
10992SOL     OW34416   1.305   0.501   0.044 -0.1419  0.7215 -0.0025
10992SOL    HW134417   1.321   0.498  -0.050  0.4043  0.5991  0.0900
10992SOL    HW234418   1.254   0.422   0.063  1.0568 -0.0707  0.0347
10993SOL     OW34419   3.566   1.628  12.378  0.1165  0.7130 -0.7745
10993SOL    HW134420   3.577   1.696  12.444  2.3603 -0.5194  0.2431
10993SOL    HW234421   3.518   1.558  12.423 -0.4050  0.7829 -1.2034
10994SOL     OW34422   1.379   4.311   4.754  0.6115  0.0734  0.2126
10994SOL    HW134423   1.322   4.265   4.694  0.8270  0.3020 -0.1772
10994SOL    HW234424   1.453   4.339   4.700  0.0271  1.7128  0.2090
10995SOL     OW34425   7.560   1.576   1.773  0.0838  0.2690  0.1689
10995SOL    HW134426   7.625   1.506   1.759  1.6034  1.9482 -1.7846
10995SOL    HW234427   7.597   1.629   1.844 -1.2042 -0.9423  1.8457
10996SOL     OW34428   2.014   1.953   9.978 -0.1488 -0.0322  0.2800
10996SOL    HW134429   1.924   1.964   9.947  0.5345  3.9574 -0.9630
10996SOL    HW234430   2.062   2.023   9.933  3.7836 -2.4905  0.2710
10997SOL     OW34431   5.411   4.959  10.752 -0.0726  0.7159 -0.1163
10997SOL    HW134432   5.354   4.923  10.819 -0.2974  0.7110 -0.3069
10997SOL    HW234433   5.455   4.883  10.714  1.2342  0.8359  1.0689
10998SOL     OW34434   3.786   1.527   4.164 -0.6693 -0.3014  0.2194
10998SOL    HW134435   3.865   1.477   4.143 -0.0186  0.9263 -0.3997
10998SOL    HW234436   3.812   1.618   4.153 -1.7926  0.1922  1.3861
10999SOL     OW34437   2.337   1.409   0.859 -0.3915  0.4971 -0.1921
10999SOL    HW134438   2.378   1.406   0.945 -0.0079 -0.4464 -0.3965
10999SOL    HW234439   2.366   1.492   0.821 -2.6484  2.2467  1.5769
11000SOL     OW34440   1.266   2.602   2.432  0.0284 -0.2621 -0.2577
11000SOL    HW134441   1.181   2.591   2.474  0.2137 -1.2872 -0.1253
11000SOL    HW234442   1.273   2.696   2.416  0.0633  0.2217  2.2092
11001SOL     OW34443   1.197   5.807   5.991  0.1695  0.4805 -0.2086
11001SOL    HW134444   1.195   5.890   5.943 -0.3479  1.5228  1.5048
11001SOL    HW234445   1.227   5.831   6.079  1.3053 -1.3874 -0.0412
11002SOL     OW34446   0.319   0.022  10.292  0.0140  0.7479  0.3030
11002SOL    HW134447   0.285   0.083  10.227  0.0647  0.3276 -0.1219
11002SOL    HW234448   0.243  -0.027  10.322  0.1028  0.4161 -0.0034
11003SOL     OW34449   6.692   4.678   5.167  0.0108 -0.0881  0.1094
11003SOL    HW134450   6.655   4.700   5.082 -2.3345 -0.0782  1.0640
11003SOL    HW234451   6.634   4.720   5.230  1.3315 -0.6051  1.7550
11004SOL     OW34452   7.109   5.445   0.293 -0.3549  0.3383  0.0179
11004SOL    HW134453   7.169   5.514   0.321  0.0182  0.2727 -0.6052
11004SOL    HW234454   7.156   5.398   0.225 -0.8344 -0.1713  0.0339
11005SOL     OW34455   7.562   6.198   3.779 -0.2707 -0.6248 -0.6624
11005SOL    HW134456   7.639   6.142   3.768  0.3537  0.2911 -1.0199
11005SOL    HW234457   7.513   6.156   3.851  1.3575 -0.3632  0.6728
11006SOL     OW34458   7.401   7.404   5.297 -0.2048 -0.4312  0.0094
11006SOL    HW134459   7.353   7.467   5.352 -0.2735 -0.9142  0.5072
11006SOL    HW234460   7.403   7.324   5.349  1.5407 -0.2947  0.1836
11007SOL     OW34461   3.407   7.433   1.435 -0.4099 -0.2227  0.2391
11007SOL    HW134462   3.381   7.524   1.447 -1.7231 -0.4776 -0.4427
11007SOL    HW234463   3.449   7.409   1.518 -2.1138  0.3302  1.3274
11008SOL     OW34464   7.456   3.164   1.452  0.0759 -0.2250 -0.2246
11008SOL    HW134465   7.445   3.098   1.520 -0.9883  1.1415  0.9995
11008SOL    HW234466   7.415   3.125   1.374 -0.5361 -1.0110  0.4741
11009SOL     OW34467   5.906   4.567   6.638 -0.3108  0.1324  0.0282
11009SOL    HW134468   5.882   4.649   6.594  0.4812 -0.4895 -1.6896
11009SOL    HW234469   5.922   4.592   6.729  0.2164  1.9640 -0.5117
11010SOL     OW34470   4.017   1.671   4.991  0.4801 -0.3280  0.2182
11010SOL    HW134471   4.043   1.736   4.925  0.1201 -0.3986  0.0063
11010SOL    HW234472   4.014   1.720   5.073 -0.5853  0.1080 -0.0727
11011SOL     OW34473   6.272   3.671   0.444 -0.0510  0.9686 -0.5215
11011SOL    HW134474   6.300   3.698   0.531 -1.0857  1.3650 -0.2946
11011SOL    HW234475   6.344   3.618   0.410  0.1028  0.3021  0.8087
11012SOL     OW34476   5.550   6.205  11.028  0.2071 -0.0623  0.1317
11012SOL    HW134477   5.454   6.211  11.029  0.2123  0.4269 -1.1570
11012SOL    HW234478   5.573   6.187  11.119 -0.9441  2.5360  1.0228
11013SOL     OW34479   2.495   3.377   0.415  0.1546 -0.1395 -0.2462
11013SOL    HW134480   2.443   3.457   0.407  0.1360 -0.1085  0.1810
11013SOL    HW234481   2.538   3.368   0.329  0.7878  0.7690 -0.0395
11014SOL     OW34482   6.404   5.602   6.506 -0.2650  0.0993  0.0681
11014SOL    HW134483   6.490   5.605   6.464 -0.6480 -0.6095 -0.7949
11014SOL    HW234484   6.381   5.509   6.507 -0.6258  0.1914  1.1147
11015SOL     OW34485   0.803   0.238   9.916  0.4822  0.2118  0.4685
11015SOL    HW134486   0.750   0.184   9.975  0.2205  0.7402  0.7177
11015SOL    HW234487   0.754   0.239   9.834  1.6803 -1.9637 -0.3571
11016SOL     OW34488   1.759   2.487   3.905 -0.2630 -0.0158 -0.2576
11016SOL    HW134489   1.753   2.548   3.979  0.7808  0.1901 -0.3290
11016SOL    HW234490   1.738   2.541   3.829  0.4621  0.2220 -0.2988
11017SOL     OW34491   1.242   5.994   6.926 -0.2420 -0.3459  0.6240
11017SOL    HW134492   1.270   5.961   6.840 -1.6102 -1.7458  0.6736
11017SOL    HW234493   1.248   6.089   6.918  1.6327 -0.4963 -0.3150
11018SOL     OW34494   2.239   3.585   8.896 -0.2630  0.2472  0.1340
11018SOL    HW134495   2.282   3.578   8.981  3.0883 -0.5572 -1.4508
11018SOL    HW234496   2.205   3.675   8.894 -0.3475  0.3109  2.2415
11019SOL     OW34497   3.994   3.514   2.467  0.3994  0.1841  0.2333
11019SOL    HW134498   3.900   3.527   2.475  0.4254  0.1440  0.6475
11019SOL    HW234499   4.009   3.426   2.502  0.4375 -0.3139 -0.9826
11020SOL     OW34500   7.892   7.019   0.972 -0.0738 -0.0733  0.5677
11020SOL    HW134501   7.871   7.103   1.013  0.6928  0.3839  0.0669
11020SOL    HW234502   7.818   7.001   0.914  0.3988  1.0178 -0.4341
11021SOL     OW34503   5.963   3.129  11.906 -0.4440  0.3059 -0.1856
11021SOL    HW134504   5.950   3.173  11.990 -1.3827 -0.3422  0.0218
11021SOL    HW234505   5.907   3.177  11.845 -2.9273 -1.5955  0.4082
11022SOL     OW34506   4.089   3.692  10.622  0.5310  0.3406 -0.4628
11022SOL    HW134507   4.055   3.777  10.649  0.0412 -0.0753  0.2742
11022SOL    HW234508   4.065   3.684  10.530 -0.0013  0.7254 -0.3594
11023SOL     OW34509   6.751   6.996   2.369 -0.6162  0.2703  0.0680
11023SOL    HW134510   6.762   6.902   2.384 -1.8711  0.1386  0.2713
11023SOL    HW234511   6.823   7.036   2.418 -0.7583 -0.5330  0.9712
11024SOL     OW34512   3.116   1.087   6.980  0.2853  0.4350 -0.1095
11024SOL    HW134513   3.125   0.993   6.996  0.4929  0.4241 -0.2860
11024SOL    HW234514   3.029   1.109   7.013  0.1870  0.1565 -0.1835
11025SOL     OW34515   7.070   6.939   8.674  0.0615 -0.9296  0.1086
11025SOL    HW134516   7.028   6.918   8.757  1.0754  1.2755  1.2619
11025SOL    HW234517   7.026   6.883   8.610 -2.3399 -1.0580  1.7457
11026SOL     OW34518   4.085   0.491   5.573 -0.1549 -0.0812 -0.8848
11026SOL    HW134519   4.159   0.482   5.512  0.0507 -1.7133 -0.4324
11026SOL    HW234520   4.010   0.454   5.525 -0.5506  0.9234 -1.0708
11027SOL     OW34521   3.339   1.441   7.664  0.1180  0.5312  0.3320
11027SOL    HW134522   3.290   1.493   7.727  1.2191  2.4714 -0.3219
11027SOL    HW234523   3.317   1.479   7.579  0.9246 -0.0929 -0.1707
11028SOL     OW34524   6.818   3.540  11.550 -0.5357 -0.1527 -0.2607
11028SOL    HW134525   6.861   3.459  11.523 -1.0265 -0.3107 -0.5818
11028SOL    HW234526   6.748   3.512  11.609 -2.9548 -0.3348 -2.9992
11029SOL     OW34527   2.145   2.397   0.571  0.1299 -0.3727 -0.0552
11029SOL    HW134528   2.141   2.484   0.533 -1.5048 -0.4791 -0.2048
11029SOL    HW234529   2.127   2.410   0.664  0.7390 -0.4684  0.0804
11030SOL     OW34530   4.457   7.371   8.664  1.0222 -0.1159  0.2965
11030SOL    HW134531   4.372   7.329   8.646  0.0436  1.2894  1.3932
11030SOL    HW234532   4.474   7.424   8.586  1.6907 -1.5508 -0.5884
11031SOL     OW34533   1.747   3.317   0.032 -0.4483  0.9163 -0.3593
11031SOL    HW134534   1.750   3.413   0.039 -2.8625  1.2466 -2.3792
11031SOL    HW234535   1.733   3.300  -0.061 -2.0059 -1.2945  0.1969
11032SOL     OW34536   3.257   7.306   3.402 -0.2244  0.1448 -0.3778
11032SOL    HW134537   3.335   7.277   3.355 -0.4719  0.3501 -0.9187
11032SOL    HW234538   3.255   7.251   3.481 -0.4256 -0.9878 -1.1505
11033SOL     OW34539   6.966   1.151   0.142 -0.5412  0.3531  0.0707
11033SOL    HW134540   6.981   1.075   0.085  0.2275  1.0000 -0.6083
11033SOL    HW234541   6.970   1.226   0.083  0.5815  1.0583  1.0244
11034SOL     OW34542   2.777   3.649  11.461 -0.5675 -0.6009 -0.4817
11034SOL    HW134543   2.841   3.670  11.530 -1.2445  0.1341 -0.0535
11034SOL    HW234544   2.732   3.571  11.494 -0.2270 -0.8352 -0.5604
11035SOL     OW34545   0.313   1.450   6.123  0.0139  0.5109 -0.8596
11035SOL    HW134546   0.357   1.397   6.190  0.3747  1.0748 -0.6472
11035SOL    HW234547   0.221   1.450   6.151  0.2615  1.2790  0.0094
11036SOL     OW34548   4.251   4.073  11.674  0.1052  0.2052  0.9424
11036SOL    HW134549   4.167   4.027  11.671  0.6217 -0.7103 -1.0040
11036SOL    HW234550   4.229   4.165  11.666 -0.6713 -0.1463 -1.8599
11037SOL     OW34551   0.311   0.776   9.709  0.2133 -0.0062  0.0371
11037SOL    HW134552   0.381   0.756   9.772 -0.3067  0.0488  0.6352
11037SOL    HW234553   0.358   0.802   9.629  0.9370 -2.7434 -0.5286
11038SOL     OW34554   2.324   1.053   4.237  0.3026 -0.3930  0.3222
11038SOL    HW134555   2.405   1.103   4.232  0.1974  0.2043  2.8731
11038SOL    HW234556   2.335   0.982   4.174  2.6293 -0.0903  0.2984
11039SOL     OW34557   7.043   5.974   1.951 -0.0575 -0.4433  0.1799
11039SOL    HW134558   7.053   5.915   1.876 -0.7628 -1.5157  0.9084
11039SOL    HW234559   6.948   5.982   1.963 -0.0724  2.2815 -0.9889
11040SOL     OW34560   2.456   3.975   8.066 -0.3260 -0.2153  0.1469
11040SOL    HW134561   2.478   3.885   8.087  1.7568  0.4937  1.2513
11040SOL    HW234562   2.469   4.023   8.148 -1.1747  1.1471 -0.4687
11041SOL     OW34563   5.803   2.405   8.498  0.4916  0.5580  0.4957
11041SOL    HW134564   5.801   2.358   8.415  2.0611 -1.6502  1.6021
11041SOL    HW234565   5.719   2.450   8.502  0.0261  0.0430 -1.8844
11042SOL     OW34566   5.430   0.506   8.688 -0.5669 -0.4754  0.5367
11042SOL    HW134567   5.400   0.417   8.708 -1.5514 -0.3135 -0.0916
11042SOL    HW234568   5.403   0.519   8.597 -0.2619  0.4000  0.5667
11043SOL     OW34569   7.749   0.659   8.687 -0.0938 -0.4671  0.3492
11043SOL    HW134570   7.776   0.743   8.724  0.8396 -0.0708 -1.1349
11043SOL    HW234571   7.684   0.625   8.748  0.7252  0.5480  1.8518
11044SOL     OW34572   5.110   6.647   3.524 -0.1166 -0.5750 -0.2990
11044SOL    HW134573   5.101   6.722   3.465 -1.9702 -0.7391 -0.2815
11044SOL    HW234574   5.180   6.594   3.485 -0.3868 -0.0027 -1.6013
11045SOL     OW34575   7.374   1.771   2.217  0.3850 -0.4012 -0.1785
11045SOL    HW134576   7.372   1.807   2.306 -1.0608 -1.2897  0.1888
11045SOL    HW234577   7.465   1.746   2.203  0.5790 -0.5545  1.1963
11046SOL     OW34578   1.428   1.461   4.221 -0.6442 -0.4772 -0.0041
11046SOL    HW134579   1.333   1.453   4.227 -0.6939 -0.8625 -0.9907
11046SOL    HW234580   1.453   1.394   4.157  0.3574 -0.7774  0.6880
11047SOL     OW34581   5.728   4.259   2.836  0.1698 -0.4102 -0.4591
11047SOL    HW134582   5.761   4.185   2.785  1.2719 -1.0103  1.0482
11047SOL    HW234583   5.806   4.302   2.870 -0.5170 -0.1288  0.8306
11048SOL     OW34584   3.082   2.758  10.219  0.1688  0.2107  0.1108
11048SOL    HW134585   3.039   2.819  10.279  0.1937  0.4405 -0.1066
11048SOL    HW234586   3.155   2.722  10.270  1.0211  1.4155 -0.2262
11049SOL     OW34587   5.034   4.295   6.926  0.4659 -0.3332  0.7158
11049SOL    HW134588   5.019   4.278   7.019  0.2035  2.4233  1.2662
11049SOL    HW234589   4.956   4.342   6.898  1.2857  0.3888 -0.4389
11050SOL     OW34590   4.119   7.918   4.990 -0.1109  0.6748 -0.1417
11050SOL    HW134591   4.107   7.902   4.897  0.5778  0.0125 -0.1310
11050SOL    HW234592   4.090   7.837   5.032 -0.8765  1.1472  0.2623
11051SOL     OW34593   5.493   0.143   7.063  0.3046  0.2580 -0.0628
11051SOL    HW134594   5.556   0.133   7.135  0.1951  2.9512  0.4880
11051SOL    HW234595   5.410   0.111   7.099  0.3338  1.2381  0.9226
11052SOL     OW34596   0.422   6.387   5.430  0.1208  0.0852  0.1532
11052SOL    HW134597   0.423   6.482   5.423  0.3960  0.0081 -1.4151
11052SOL    HW234598   0.474   6.358   5.355 -0.3092 -1.3095  0.3694
11053SOL     OW34599   5.703   4.016  11.997 -0.0666 -0.0545  0.2301
11053SOL    HW134600   5.719   3.926  12.024 -0.3939 -0.4444 -0.8470
11053SOL    HW234601   5.767   4.033  11.927  0.4070  0.7616  0.8335
11054SOL     OW34602   5.603   7.305  10.201  0.1719 -0.0343 -0.0529
11054SOL    HW134603   5.699   7.306  10.201  0.2952 -2.1265 -2.1727
11054SOL    HW234604   5.579   7.363  10.129 -0.2090  0.8174  0.7427
11055SOL     OW34605   7.876   4.114   1.227  0.3234  0.6306  0.3385
11055SOL    HW134606   7.834   4.120   1.313 -0.5435  0.7737 -0.0834
11055SOL    HW234607   7.850   4.194   1.182  0.7882  0.5635 -0.0497
11056SOL     OW34608   4.793   3.384   0.662 -0.5618  0.7038 -0.3493
11056SOL    HW134609   4.808   3.435   0.582  1.0412 -3.7045 -3.2385
11056SOL    HW234610   4.874   3.392   0.712 -0.2288  0.7216 -0.8934
11057SOL     OW34611   5.009   7.109  11.323 -0.4951 -0.4638 -0.1246
11057SOL    HW134612   5.061   7.031  11.341  0.8309  0.2225 -0.8512
11057SOL    HW234613   4.998   7.150  11.409  0.0601 -0.6769  0.0492
11058SOL     OW34614   2.070   6.810   2.907  0.5071  0.1330 -0.4121
11058SOL    HW134615   2.000   6.804   2.973  1.8265  0.1296  1.0628
11058SOL    HW234616   2.116   6.891   2.928  1.0167  0.0822 -1.2998
11059SOL     OW34617   3.340   5.699   4.474  0.6020  0.3599 -0.1780
11059SOL    HW134618   3.319   5.682   4.566  0.4792 -0.0017 -0.2711
11059SOL    HW234619   3.271   5.653   4.425  0.5280  0.7486 -0.4453
11060SOL     OW34620   2.929   5.680   7.242 -0.5134 -0.6733 -0.2752
11060SOL    HW134621   2.940   5.616   7.172 -1.9545  0.0986 -1.2617
11060SOL    HW234622   2.843   5.719   7.225 -0.6401 -0.0601  1.6036
11061SOL     OW34623   0.712   6.965   9.812  0.4072  0.1367 -0.0055
11061SOL    HW134624   0.671   6.937   9.894  1.4305  0.2174  0.5408
11061SOL    HW234625   0.806   6.967   9.831  0.6135  0.6839 -1.0203
11062SOL     OW34626   3.888   7.609   5.336 -0.3616  0.2211  0.0214
11062SOL    HW134627   3.882   7.581   5.245  0.2901  0.2125 -0.0273
11062SOL    HW234628   3.899   7.528   5.385  0.8181  0.3150 -0.0517
11063SOL     OW34629   4.243   3.752  10.961  0.6350 -0.7555  0.1753
11063SOL    HW134630   4.229   3.666  10.923 -1.5493 -0.0681 -0.7665
11063SOL    HW234631   4.205   3.813  10.897  3.0187  1.0179  0.3110
11064SOL     OW34632   4.388   4.877  10.063 -0.5386 -0.2571 -0.1472
11064SOL    HW134633   4.412   4.811   9.998 -0.3322  0.6687 -1.0368
11064SOL    HW234634   4.471   4.918  10.087 -0.7130 -0.0589  0.1236
11065SOL     OW34635   0.246   2.702   1.260  0.9940 -0.5781 -0.0839
11065SOL    HW134636   0.169   2.758   1.256  0.7637 -0.7829  1.1255
11065SOL    HW234637   0.320   2.762   1.255  0.7787 -0.3969 -1.4733
11066SOL     OW34638   3.619   6.859   3.870  0.4816  0.2866 -0.1129
11066SOL    HW134639   3.642   6.823   3.956 -0.4851  0.3509  0.1836
11066SOL    HW234640   3.594   6.783   3.818  0.5250  0.3040 -0.1590
11067SOL     OW34641   7.715   2.483   4.515  0.0492  0.7457 -0.5100
11067SOL    HW134642   7.660   2.406   4.500 -1.5207  1.7208 -0.0638
11067SOL    HW234643   7.773   2.486   4.439 -1.3719  0.3443 -1.6662
11068SOL     OW34644   0.356   2.598   2.482 -0.0947 -0.5761 -0.0549
11068SOL    HW134645   0.355   2.599   2.577 -0.7510  0.3892 -0.0540
11068SOL    HW234646   0.383   2.687   2.457 -2.6935  0.1234 -0.7379
11069SOL     OW34647   1.164   0.643   6.307 -0.7167  0.3174  0.5983
11069SOL    HW134648   1.147   0.641   6.213 -0.5563  1.4731  0.5381
11069SOL    HW234649   1.076   0.643   6.347 -0.7844 -0.2302  0.4651
11070SOL     OW34650   7.701   7.210   0.864 -0.5626  0.4804  0.7817
11070SOL    HW134651   7.680   7.232   0.955  1.8836  2.4698  0.9998
11070SOL    HW234652   7.627   7.242   0.813 -0.3439  2.8389  1.8242
11071SOL     OW34653   4.168   0.077   3.116  0.2135 -0.1634 -0.3632
11071SOL    HW134654   4.237   0.107   3.176  1.2558 -2.2572 -0.4066
11071SOL    HW234655   4.092   0.062   3.173  0.7507 -0.7422  0.2175
11072SOL     OW34656   6.415   0.530   4.966  0.2640  0.7376 -0.1814
11072SOL    HW134657   6.446   0.444   4.937 -0.0956 -0.3428  2.4024
11072SOL    HW234658   6.493   0.585   4.964  0.8789 -0.1093 -0.2596
11073SOL     OW34659   3.467   5.356   5.837  0.0283 -0.4553  0.1953
11073SOL    HW134660   3.497   5.361   5.928 -0.1687 -1.2737  0.3064
11073SOL    HW234661   3.393   5.295   5.839 -2.0036  1.8093  0.0131
11074SOL     OW34662   4.389   7.670   4.797 -0.0470 -0.6232  0.1887
11074SOL    HW134663   4.343   7.618   4.863  1.0911 -1.3636  0.4429
11074SOL    HW234664   4.466   7.704   4.844 -0.4813  0.8519 -0.1242
11075SOL     OW34665   1.806   3.934  10.777  0.7445  0.2299 -0.7643
11075SOL    HW134666   1.779   3.919  10.687  0.7574 -2.7423 -0.3826
11075SOL    HW234667   1.901   3.944  10.773  0.6444  1.0697 -1.1558
11076SOL     OW34668   5.175   4.222  11.027  0.1261 -0.0575  0.0263
11076SOL    HW134669   5.192   4.140  10.980  0.4391 -0.1334  0.2654
11076SOL    HW234670   5.088   4.210  11.066 -0.4054  0.2439 -1.0283
11077SOL     OW34671   3.302   3.945   7.638  0.1806 -0.0231  0.0766
11077SOL    HW134672   3.220   3.896   7.638  0.6228 -0.8227 -1.0936
11077SOL    HW234673   3.276   4.037   7.631 -0.6178 -0.3275 -1.3605
11078SOL     OW34674   7.368   4.282   2.620 -0.1982 -0.1419 -0.2690
11078SOL    HW134675   7.400   4.277   2.711 -2.2425  2.1141  0.6942
11078SOL    HW234676   7.276   4.258   2.626 -0.0030 -1.5447 -2.0961
11079SOL     OW34677   2.590   0.331  11.705  0.6978  0.0516  0.1838
11079SOL    HW134678   2.656   0.388  11.664  1.0476  0.1157  0.8186
11079SOL    HW234679   2.519   0.326  11.641  2.1817 -1.7000 -1.4281
11080SOL     OW34680   0.744   0.001   6.204 -0.6635  0.2167 -0.7035
11080SOL    HW134681   0.679  -0.064   6.179 -1.5611  0.3923  1.0438
11080SOL    HW234682   0.744   0.000   6.299  1.5124  0.6315 -0.6334
11081SOL     OW34683   1.090   5.279  10.911  0.1835  0.7478  0.3323
11081SOL    HW134684   1.035   5.357  10.901  1.0524  1.4461  0.8723
11081SOL    HW234685   1.179   5.313  10.914  0.5230 -0.1833  1.4269
11082SOL     OW34686   5.509   3.856   8.543 -0.6589 -0.3449  0.6084
11082SOL    HW134687   5.498   3.949   8.523 -2.7839 -1.0140 -1.7504
11082SOL    HW234688   5.604   3.844   8.547 -0.3228  2.0024  1.6313
11083SOL     OW34689   5.435   7.650   9.503  0.4375 -0.0196  0.3739
11083SOL    HW134690   5.356   7.598   9.514 -0.1875  1.0158  0.9334
11083SOL    HW234691   5.412   7.737   9.536  1.9861  0.1539  1.1131
11084SOL     OW34692   3.672   7.003  10.287 -0.3445 -0.0005  0.0533
11084SOL    HW134693   3.744   6.939  10.292 -0.2070  0.1475 -0.0509
11084SOL    HW234694   3.708   7.083  10.326 -0.5403 -0.0056  0.2504
11085SOL     OW34695   0.786   0.884   1.685  0.1786 -0.5138  0.3335
11085SOL    HW134696   0.775   0.915   1.775 -0.5607 -1.4263  0.5708
11085SOL    HW234697   0.705   0.837   1.666  0.4486 -0.5683 -0.7131
11086SOL     OW34698   5.371   3.334  12.230  0.3509  0.3214  0.5769
11086SOL    HW134699   5.461   3.305  12.219  0.3353 -0.8739  2.9489
11086SOL    HW234700   5.372   3.386  12.311 -1.1782 -0.3435  1.0662
11087SOL     OW34701   2.453   0.170   9.528 -0.0732 -0.3897 -0.5921
11087SOL    HW134702   2.534   0.179   9.579 -0.5078  0.1251  0.0425
11087SOL    HW234703   2.422   0.260   9.519 -2.4542 -0.7358  2.3459
11088SOL     OW34704   1.807   1.183   5.614  0.4514  0.0017  0.0124
11088SOL    HW134705   1.764   1.269   5.613 -1.1088 -0.6942 -2.6749
11088SOL    HW234706   1.874   1.189   5.546  0.3430 -0.8708 -0.1836
11089SOL     OW34707   3.093   7.391   8.585  0.7022 -0.0610  0.1445
11089SOL    HW134708   3.164   7.403   8.522  0.1520 -0.9313 -0.6651
11089SOL    HW234709   3.133   7.340   8.656  1.3456  1.0001  0.5743
11090SOL     OW34710   6.543   5.404   7.851 -0.1432  1.3333 -0.2791
11090SOL    HW134711   6.453   5.434   7.854  0.0827  1.9663  0.3831
11090SOL    HW234712   6.573   5.428   7.763 -1.3117 -1.0319 -1.4317
11091SOL     OW34713   7.569   0.221   3.354 -0.2036 -0.8937  0.3491
11091SOL    HW134714   7.481   0.239   3.388 -1.5081 -2.4010 -2.0069
11091SOL    HW234715   7.567   0.251   3.264  0.8373 -3.2374 -0.5312
11092SOL     OW34716   3.494   1.381   8.245  0.0228  0.1108 -0.1870
11092SOL    HW134717   3.480   1.398   8.338  2.2921 -1.7650  0.5887
11092SOL    HW234718   3.444   1.301   8.228  0.3118 -0.0400 -0.3414
11093SOL     OW34719   4.530   3.742   4.973 -0.3990 -0.2163 -0.2797
11093SOL    HW134720   4.618   3.779   4.972 -0.4020 -0.1867  0.2523
11093SOL    HW234721   4.523   3.694   4.891 -0.2754  0.6845 -0.8347
11094SOL     OW34722   5.746   5.715   4.894  0.0276  0.0444 -0.4277
11094SOL    HW134723   5.741   5.647   4.827  2.5000  0.6431 -1.3320
11094SOL    HW234724   5.817   5.687   4.952  0.4395  1.3328 -0.2657
11095SOL     OW34725   5.867   4.224   8.416 -0.2560 -0.0483  0.9282
11095SOL    HW134726   5.882   4.318   8.421  0.4685 -0.1854  1.4841
11095SOL    HW234727   5.862   4.206   8.322 -0.9984  0.6255  0.8265
11096SOL     OW34728   2.110   2.622   4.256 -0.4070  0.1119 -0.0222
11096SOL    HW134729   2.083   2.537   4.223  0.1122 -0.3183  0.6394
11096SOL    HW234730   2.148   2.666   4.180  2.6905 -1.6551  0.3200
11097SOL     OW34731   0.677   6.095   8.766 -0.4783  0.1005 -0.4556
11097SOL    HW134732   0.666   6.072   8.674 -2.2468 -0.2259 -0.2100
11097SOL    HW234733   0.600   6.057   8.809 -0.4174  1.4555  0.9227
11098SOL     OW34734   7.103   3.734   6.219  0.5643 -0.0537  0.4723
11098SOL    HW134735   7.133   3.714   6.131  0.7677  0.0638  0.5153
11098SOL    HW234736   7.076   3.826   6.215 -3.6998 -1.1022 -0.6818
11099SOL     OW34737   0.910   3.317   2.438  0.0832  0.1245  0.6164
11099SOL    HW134738   0.904   3.244   2.499 -2.4096 -0.0409  0.2692
11099SOL    HW234739   0.927   3.275   2.353 -2.0928 -0.2020  0.2834
11100SOL     OW34740   5.479   6.831   7.097  0.2272  0.2665  0.2724
11100SOL    HW134741   5.497   6.924   7.084 -0.2027  0.4136  0.6793
11100SOL    HW234742   5.486   6.819   7.192  0.6692 -0.2027  0.1851
11101SOL     OW34743   1.995   6.276  12.392  0.2504 -0.1176 -0.1268
11101SOL    HW134744   1.906   6.289  12.358  0.5656  0.9582 -0.5555
11101SOL    HW234745   2.027   6.198  12.345 -0.5688 -0.7094  0.2700
11102SOL     OW34746   0.454   5.105   2.552 -0.0128  0.8624  0.5428
11102SOL    HW134747   0.373   5.054   2.545 -0.4840  1.5491  0.9022
11102SOL    HW234748   0.497   5.095   2.467 -0.1813  0.0097  0.5503
11103SOL     OW34749   3.952   3.165   2.315 -0.6725  0.3715  0.1610
11103SOL    HW134750   3.887   3.151   2.247 -0.1788  0.7034 -0.3901
11103SOL    HW234751   3.931   3.100   2.382 -1.1150 -0.0147 -0.3436
11104SOL     OW34752   1.214   4.930   7.097 -0.5807 -0.4470 -0.0232
11104SOL    HW134753   1.145   4.956   7.157  0.5044 -0.6875  1.3795
11104SOL    HW234754   1.286   4.990   7.115 -0.4255 -0.1218 -1.5380
11105SOL     OW34755   4.196   3.733   4.924  0.9629 -0.5655  0.2317
11105SOL    HW134756   4.183   3.651   4.877 -0.2799 -0.4970  0.4208
11105SOL    HW234757   4.183   3.801   4.858  2.4322 -0.5174 -0.0226
11106SOL     OW34758   2.893   1.540   6.605  0.4925  0.1149  0.1447
11106SOL    HW134759   2.820   1.496   6.562  0.7707 -0.3319  0.1253
11106SOL    HW234760   2.972   1.500   6.567  0.7434 -0.0936  0.8646
11107SOL     OW34761   1.294   2.405   5.322  0.2347 -0.1316 -0.1109
11107SOL    HW134762   1.209   2.381   5.360 -0.1723  1.2184 -0.1234
11107SOL    HW234763   1.320   2.483   5.370  1.4248 -0.4582 -0.2048
11108SOL     OW34764   2.352   0.705   2.968  0.8457  0.6237  0.0323
11108SOL    HW134765   2.326   0.703   3.060 -0.5239  1.2863 -0.3079
11108SOL    HW234766   2.321   0.622   2.933  2.8779 -0.3808  0.5183
11109SOL     OW34767   5.059   3.690   3.495  0.6459 -0.5552 -0.4546
11109SOL    HW134768   4.980   3.683   3.548 -0.7502  2.3617 -1.8940
11109SOL    HW234769   5.120   3.739   3.550  0.9397 -1.5467  0.1204
11110SOL     OW34770   3.759   0.275  11.460  0.3708  0.5319  0.1721
11110SOL    HW134771   3.711   0.199  11.426  2.6221 -0.5779 -0.7359
11110SOL    HW234772   3.693   0.344  11.467 -1.2697 -0.7892 -1.3614
11111SOL     OW34773   4.533   1.323   3.459  0.5223 -0.7416  0.6955
11111SOL    HW134774   4.488   1.255   3.509 -0.0246 -0.1370  1.0422
11111SOL    HW234775   4.577   1.276   3.389 -0.7065 -1.3606  0.3076
11112SOL     OW34776   3.237   1.968   2.124 -0.0219  0.4055  0.3759
11112SOL    HW134777   3.306   1.928   2.071 -0.7165 -1.0812  0.5664
11112SOL    HW234778   3.164   1.980   2.063  0.7106  3.0009 -0.1082
11113SOL     OW34779   7.179   2.566   6.623  0.5430 -0.2272 -0.4034
11113SOL    HW134780   7.204   2.545   6.533  0.4996 -1.9937 -0.0408
11113SOL    HW234781   7.154   2.482   6.661 -2.8079  0.8953  0.2571
11114SOL     OW34782   0.726   4.097   2.383  0.3370  0.1307 -0.2600
11114SOL    HW134783   0.779   4.176   2.392  0.1435  0.3782 -1.1997
11114SOL    HW234784   0.700   4.096   2.291 -2.2112  0.6233  0.3659
11115SOL     OW34785   4.250   0.113   0.268  0.1502 -0.0306 -0.7349
11115SOL    HW134786   4.171   0.117   0.214 -0.7464  1.2014  0.5991
11115SOL    HW234787   4.219   0.080   0.353  1.3503 -1.0044 -0.6578
11116SOL     OW34788   6.175   0.701   4.101 -0.7529 -0.0125 -0.1778
11116SOL    HW134789   6.156   0.793   4.082  0.5924  0.6927  1.6562
11116SOL    HW234790   6.245   0.678   4.040  0.2258  0.7740  0.6171
11117SOL     OW34791   7.852   0.414   5.393  0.3660 -0.1689  0.2316
11117SOL    HW134792   7.868   0.453   5.479 -1.2049 -0.1339  0.5341
11117SOL    HW234793   7.850   0.320   5.410 -2.3482 -0.0888  0.7307
11118SOL     OW34794   4.644   3.240  11.389  0.3353 -0.2347  0.4249
11118SOL    HW134795   4.620   3.155  11.352 -1.0472  0.1921  0.2581
11118SOL    HW234796   4.606   3.240  11.477 -2.6545  1.3857 -0.7015
11119SOL     OW34797   5.740   5.585   6.204 -0.5032 -0.0726  0.5715
11119SOL    HW134798   5.816   5.604   6.260 -0.1151 -1.0412  0.3815
11119SOL    HW234799   5.700   5.671   6.188 -0.4886  0.2634  2.1379
11120SOL     OW34800   0.964   4.081  10.345  0.2018  0.1246  0.7433
11120SOL    HW134801   0.899   4.017  10.314 -0.8952  1.2869  0.5758
11120SOL    HW234802   1.040   4.066  10.289  0.0220 -1.1122  0.7897
11121SOL     OW34803   0.903   1.102   7.833 -0.3410 -0.5085  0.4646
11121SOL    HW134804   0.815   1.080   7.805 -0.7193  0.5003  0.8373
11121SOL    HW234805   0.891   1.163   7.906  0.6173 -2.4765  2.3850
11122SOL     OW34806   4.169   0.466   7.539 -0.1349  0.2613 -0.2671
11122SOL    HW134807   4.237   0.415   7.583  0.4744 -0.7080 -2.1969
11122SOL    HW234808   4.094   0.407   7.531 -0.6984  0.8482  0.5727
11123SOL     OW34809   1.238   3.497   0.766 -0.2640  0.2051  0.5265
11123SOL    HW134810   1.326   3.469   0.792 -0.8571 -1.4145  0.9115
11123SOL    HW234811   1.180   3.426   0.797 -1.3393 -0.5716 -2.8768
11124SOL     OW34812   4.134   6.333  12.412  0.0424 -0.1452  0.1487
11124SOL    HW134813   4.132   6.362  12.503 -0.5110 -0.2475  0.1746
11124SOL    HW234814   4.141   6.238  12.416  0.7187 -0.0988  0.0755
11125SOL     OW34815   0.501   6.169   2.814  0.6559 -0.0539 -0.0335
11125SOL    HW134816   0.440   6.127   2.753  1.5536 -0.1056 -0.9125
11125SOL    HW234817   0.537   6.097   2.865 -0.7943  0.0684  1.2714
11126SOL     OW34818   2.825   0.312   8.394  0.9773 -0.3813 -0.1010
11126SOL    HW134819   2.908   0.315   8.441  0.1112  0.0209  1.4925
11126SOL    HW234820   2.808   0.219   8.381  1.1255 -0.5189  0.6306
11127SOL     OW34821   0.823   2.347  11.869 -0.3800 -0.2521  0.5240
11127SOL    HW134822   0.786   2.267  11.907 -0.0440  0.0013  1.4017
11127SOL    HW234823   0.835   2.326  11.777 -0.2625 -1.2266  0.7499
11128SOL     OW34824   5.437   7.785   2.468  0.0210  0.3535 -0.0013
11128SOL    HW134825   5.483   7.867   2.484  1.0169 -0.1982  0.0047
11128SOL    HW234826   5.504   7.717   2.477 -0.4254 -0.3575 -1.6508
11129SOL     OW34827   3.748   1.314   5.940 -0.0227  0.4560  0.6184
11129SOL    HW134828   3.813   1.250   5.967  0.2442  0.3247 -0.2991
11129SOL    HW234829   3.700   1.336   6.020  1.0030  0.3906  1.2607
11130SOL     OW34830   3.520   1.552  10.059 -0.0330  0.4413  0.1633
11130SOL    HW134831   3.477   1.584   9.979 -0.4707 -0.2989  0.0934
11130SOL    HW234832   3.521   1.457  10.049  1.6208  0.4363  0.1895
11131SOL     OW34833   6.436   2.199   6.162 -0.5346  0.3108  0.0646
11131SOL    HW134834   6.492   2.276   6.161  0.2670 -0.2008  1.5598
11131SOL    HW234835   6.430   2.176   6.255 -0.3536 -1.6955 -0.3743
11132SOL     OW34836   1.465   6.729   3.820  0.0299  0.2007 -0.5986
11132SOL    HW134837   1.381   6.773   3.838 -0.4174 -0.7056 -0.4231
11132SOL    HW234838   1.440   6.648   3.775  0.7334 -0.6091  0.4296
11133SOL     OW34839   3.926   7.581  11.626  0.0733  0.1342 -0.1126
11133SOL    HW134840   3.876   7.551  11.703  0.0985  2.4397  0.8893
11133SOL    HW234841   3.972   7.503  11.596  1.0615 -0.6403  3.0147
11134SOL     OW34842   6.692   4.839   1.831  0.3778 -0.2687 -0.3978
11134SOL    HW134843   6.630   4.819   1.901  1.1729 -0.3363  0.3185
11134SOL    HW234844   6.725   4.926   1.853  0.4867 -0.2114 -0.7977
11135SOL     OW34845   6.990   1.101   4.473  0.6915 -0.2777 -0.4517
11135SOL    HW134846   6.945   1.086   4.389 -0.1464 -0.3205 -0.0064
11135SOL    HW234847   7.065   1.042   4.471  0.3353 -0.7222 -0.9147
11136SOL     OW34848   1.634   6.401   1.910 -0.0069  0.2499  0.0236
11136SOL    HW134849   1.554   6.455   1.908 -1.7609 -2.1605  0.3936
11136SOL    HW234850   1.704   6.461   1.885 -1.9694  2.4064 -0.6867
11137SOL     OW34851   5.365   0.785   2.183  0.0649 -0.2179 -0.4210
11137SOL    HW134852   5.366   0.834   2.101  0.5612  0.8764  0.2032
11137SOL    HW234853   5.458   0.777   2.206 -0.0985  0.3291  0.4887
11138SOL     OW34854   2.468   5.261   1.957 -0.1050 -0.3308 -0.0531
11138SOL    HW134855   2.518   5.214   2.023 -0.9274 -1.2526 -0.0633
11138SOL    HW234856   2.377   5.257   1.988 -0.4605 -0.5245 -1.0908
11139SOL     OW34857   6.166   3.597  11.967 -0.0095  0.7283  0.1457
11139SOL    HW134858   6.115   3.626  12.043  0.5422  0.1770  0.7342
11139SOL    HW234859   6.250   3.642  11.976  0.5992 -0.4647  0.6845
11140SOL     OW34860   1.011   2.934   4.767 -0.0778  0.3883  0.2005
11140SOL    HW134861   0.936   2.978   4.807 -0.1625 -0.2606  0.7667
11140SOL    HW234862   1.087   2.968   4.814 -0.2605 -1.1967  1.7058
11141SOL     OW34863   1.452   7.760   5.314  0.5662  0.0612  0.0350
11141SOL    HW134864   1.404   7.756   5.397 -1.0585  1.0820 -0.7923
11141SOL    HW234865   1.533   7.713   5.331  0.4584  0.5711  2.3071
11142SOL     OW34866   2.272   5.725   6.858  0.5086  0.1812  0.4594
11142SOL    HW134867   2.260   5.631   6.864  0.3669  0.1279 -0.4654
11142SOL    HW234868   2.189   5.758   6.825  1.5809  0.2149 -2.5185
11143SOL     OW34869   6.878   6.185   5.461 -0.2040  0.0830 -0.5984
11143SOL    HW134870   6.970   6.209   5.453 -0.4586  0.7030 -2.3329
11143SOL    HW234871   6.833   6.268   5.480 -0.5335  0.0757 -1.2843
11144SOL     OW34872   1.654   0.319   0.074  0.0473  0.3551  0.3622
11144SOL    HW134873   1.725   0.378   0.101  0.3790 -0.2891  0.9271
11144SOL    HW234874   1.650   0.329  -0.021  0.9306  0.3681  0.3163
11145SOL     OW34875   2.570   3.523   6.686 -0.4889 -0.4772 -0.6578
11145SOL    HW134876   2.612   3.468   6.751 -0.4700 -1.8685 -1.7926
11145SOL    HW234877   2.596   3.612   6.709 -1.0098 -0.8372  1.5905
11146SOL     OW34878   6.201   1.146   1.926 -0.7791  0.4250 -0.1227
11146SOL    HW134879   6.167   1.132   2.015  1.1243  1.9832  0.9148
11146SOL    HW234880   6.171   1.069   1.877  0.5458 -2.0372  2.5888
11147SOL     OW34881   4.072   3.380   0.827  0.7166 -0.3223 -0.0454
11147SOL    HW134882   4.047   3.295   0.862 -0.0779 -1.0354 -2.1394
11147SOL    HW234883   4.135   3.360   0.758  3.8163  1.1562  2.1417
11148SOL     OW34884   4.489   1.792   3.279 -0.0946 -0.4697  0.6799
11148SOL    HW134885   4.575   1.766   3.312  0.7573  1.1865 -0.0956
11148SOL    HW234886   4.461   1.719   3.225 -0.2376 -2.0155  2.7255
11149SOL     OW34887   5.415   1.524   4.535 -0.7231 -0.5186  1.2160
11149SOL    HW134888   5.372   1.610   4.534  2.1237  1.0327 -0.5646
11149SOL    HW234889   5.478   1.530   4.607 -0.6755 -1.2362  1.2410
11150SOL     OW34890   1.138   3.888   5.915 -0.0434  0.1816 -0.2809
11150SOL    HW134891   1.215   3.897   5.858  1.2435 -0.5558  1.2908
11150SOL    HW234892   1.164   3.929   5.997 -0.7863 -1.3708  0.7695
11151SOL     OW34893   5.975   4.105   1.097  0.4426  0.0918 -0.1073
11151SOL    HW134894   6.036   4.167   1.135 -1.0433  1.0568  0.7895
11151SOL    HW234895   6.030   4.043   1.050  2.1852  0.2901  1.5601
11152SOL     OW34896   0.372   7.189   1.757 -0.0718 -0.0435 -0.0042
11152SOL    HW134897   0.300   7.144   1.714  0.1773 -1.1014  0.6617
11152SOL    HW234898   0.399   7.130   1.827  0.0627  1.2611  1.0923
11153SOL     OW34899   3.624   7.876   9.404 -0.0219 -0.4233 -0.4938
11153SOL    HW134900   3.541   7.914   9.374  0.0342 -1.0277 -1.4420
11153SOL    HW234901   3.686   7.948   9.400 -0.2857 -0.2054 -0.6869
11154SOL     OW34902   3.537   6.336  10.458 -0.2214 -0.2598 -0.0396
11154SOL    HW134903   3.479   6.280  10.406  0.4372 -0.2602 -0.7896
11154SOL    HW234904   3.618   6.286  10.466  0.3268  0.5074 -0.6082
11155SOL     OW34905   5.414   1.975   7.890 -0.2505  0.7066 -0.9382
11155SOL    HW134906   5.373   2.061   7.881 -0.2971  0.7555 -0.2691
11155SOL    HW234907   5.344   1.912   7.871 -0.0929  0.8189 -1.9197
11156SOL     OW34908   6.543   4.083  10.218  0.0503  0.1031 -0.1825
11156SOL    HW134909   6.581   4.064  10.304 -3.0592 -0.7030  1.1780
11156SOL    HW234910   6.587   4.023  10.158  0.6129 -1.0557  1.3277
11157SOL     OW34911   0.781   5.956   9.638 -0.0660 -0.6027 -0.4204
11157SOL    HW134912   0.829   5.942   9.556 -0.9964 -0.3337 -1.0204
11157SOL    HW234913   0.731   6.036   9.623 -0.8207 -0.9620  0.1400
11158SOL     OW34914   7.478   5.350   2.689  0.3378 -0.0686  0.0175
11158SOL    HW134915   7.433   5.314   2.766 -1.6722 -1.2615 -1.6122
11158SOL    HW234916   7.529   5.277   2.654 -0.4964 -0.1835 -0.9949
11159SOL     OW34917   4.533   1.230  11.163 -0.3261  0.0821  0.0900
11159SOL    HW134918   4.573   1.312  11.192  1.1659  0.0178 -1.6190
11159SOL    HW234919   4.546   1.169  11.235  3.3930 -0.1414 -0.5881
11160SOL     OW34920   1.957   7.013  11.342  0.3552 -0.0860  0.1949
11160SOL    HW134921   1.896   7.082  11.315 -0.6850 -0.9828  0.1802
11160SOL    HW234922   2.041   7.040  11.306  0.0875  1.4475  0.6399
11161SOL     OW34923   4.390   4.360   2.580  0.4153  0.0559 -0.0598
11161SOL    HW134924   4.395   4.446   2.536  0.8735 -0.9396 -2.0926
11161SOL    HW234925   4.470   4.354   2.631  0.0265  1.1294  0.7063
11162SOL     OW34926   2.836   4.089   4.226 -0.0401 -0.2183 -0.3567
11162SOL    HW134927   2.854   4.183   4.221 -1.0661 -0.0156 -0.5719
11162SOL    HW234928   2.900   4.055   4.289  0.0293  0.7103  0.0842
11163SOL     OW34929   3.247   5.995   3.563 -0.6420  0.3137 -0.1097
11163SOL    HW134930   3.244   5.939   3.641 -1.8187 -0.6167 -0.7904
11163SOL    HW234931   3.340   6.014   3.551 -0.3438 -0.3879  0.9177
11164SOL     OW34932   5.102   5.810   8.246  0.0068  0.8578 -0.0576
11164SOL    HW134933   5.103   5.859   8.328  2.4975 -0.0212  0.5249
11164SOL    HW234934   5.180   5.754   8.250 -0.9253 -0.7303 -2.1338
11165SOL     OW34935   2.163   7.824   7.231  0.0006 -0.0970 -0.1333
11165SOL    HW134936   2.155   7.729   7.237 -0.9245 -0.0301 -0.1537
11165SOL    HW234937   2.206   7.839   7.147  0.2499 -0.4993 -0.0790
11166SOL     OW34938   6.075   4.465  11.036  0.2485 -0.0261 -0.1759
11166SOL    HW134939   5.992   4.489  11.078 -0.1357 -1.2550 -0.2157
11166SOL    HW234940   6.112   4.397  11.093  0.8055 -0.1149 -0.6349
11167SOL     OW34941   4.870   5.301   9.084 -0.0172 -0.2964  0.5108
11167SOL    HW134942   4.853   5.338   8.997  0.8737 -1.5404 -0.2234
11167SOL    HW234943   4.797   5.241   9.099  0.8113 -1.5377 -0.2554
11168SOL     OW34944   1.440   4.086   4.327 -0.4271  0.4184  0.0430
11168SOL    HW134945   1.359   4.073   4.278 -0.7496  1.5306  0.2383
11168SOL    HW234946   1.472   3.998   4.346 -1.6830 -0.0380  0.1146
11169SOL     OW34947   5.463   1.562   0.232  0.2563  0.0084 -0.2335
11169SOL    HW134948   5.443   1.483   0.182  0.5605 -0.0421 -0.2800
11169SOL    HW234949   5.519   1.613   0.173 -0.6720  0.6788 -0.5650
11170SOL     OW34950   7.653   6.385  10.933  0.4841 -0.2663 -0.1793
11170SOL    HW134951   7.605   6.305  10.913  0.4476 -0.6345  1.2641
11170SOL    HW234952   7.731   6.355  10.980  1.0704  0.4820 -0.6448
11171SOL     OW34953   5.138   7.409   1.541 -0.1060  0.5975  0.4103
11171SOL    HW134954   5.119   7.494   1.581 -3.1963 -0.1358  0.7208
11171SOL    HW234955   5.057   7.384   1.497  0.7442 -2.1554  0.2199
11172SOL     OW34956   7.225   1.242   8.846 -0.4546 -0.2195  0.5308
11172SOL    HW134957   7.249   1.299   8.919  0.4795  0.6400 -0.4090
11172SOL    HW234958   7.150   1.192   8.878 -0.0188  0.0758  2.0940
11173SOL     OW34959   1.111   5.689   8.313  0.1911  0.3042  0.2519
11173SOL    HW134960   1.101   5.605   8.269 -0.9447  0.3304  0.4214
11173SOL    HW234961   1.203   5.711   8.302  0.2735 -0.4414 -0.7378
11174SOL     OW34962   3.770   5.471  10.181 -0.4353  0.1124 -0.4773
11174SOL    HW134963   3.829   5.419  10.126 -0.8665 -0.7371 -0.1533
11174SOL    HW234964   3.683   5.437  10.161 -0.5641 -0.5291  1.0402
11175SOL     OW34965   4.506   0.475  10.516 -0.9435  0.2564  0.1731
11175SOL    HW134966   4.434   0.427  10.558 -1.0956 -0.6120 -1.0328
11175SOL    HW234967   4.488   0.468  10.423  0.4493  0.4471 -0.1300
11176SOL     OW34968   4.670   3.644  11.642 -0.2415  0.6195  0.2591
11176SOL    HW134969   4.704   3.578  11.703  0.7608  2.1009  1.3603
11176SOL    HW234970   4.629   3.592  11.573  1.7601 -1.2029  0.3198
11177SOL     OW34971   6.534   7.201   4.244  0.2461  0.3808 -0.0880
11177SOL    HW134972   6.531   7.148   4.164  0.0618  0.4972 -0.1580
11177SOL    HW234973   6.623   7.236   4.245  0.3641  0.0881 -0.0512
11178SOL     OW34974   7.795   7.763  12.362  0.2850  0.5589 -0.2556
11178SOL    HW134975   7.878   7.719  12.345  0.3968  0.9735 -0.8359
11178SOL    HW234976   7.796   7.782  12.456 -0.5912 -2.3117  0.4185
11179SOL     OW34977   7.876   3.357   0.292  0.2179  0.1221  0.1243
11179SOL    HW134978   7.833   3.430   0.247 -2.4377 -1.6049 -0.3874
11179SOL    HW234979   7.906   3.299   0.221 -0.8864 -0.9293  0.4692
11180SOL     OW34980   1.684   7.221   9.983 -0.2477 -0.2886 -0.0297
11180SOL    HW134981   1.603   7.259  10.017 -0.2329 -1.1504  1.0110
11180SOL    HW234982   1.663   7.130   9.964 -0.3350  0.2177 -2.7024
11181SOL     OW34983   6.886   7.972   8.968  0.2244 -0.3247 -0.6501
11181SOL    HW134984   6.931   7.967   9.053  0.4447 -0.6693 -0.7824
11181SOL    HW234985   6.900   7.886   8.929 -1.2713 -0.7369 -0.3425
11182SOL     OW34986   3.826   0.520   4.341 -0.0131 -0.0546 -0.2509
11182SOL    HW134987   3.766   0.583   4.381 -3.3205 -1.9099 -1.9333
11182SOL    HW234988   3.801   0.436   4.378  2.0407 -0.8700 -0.5739
11183SOL     OW34989   2.257   5.765   0.383  0.3661 -0.1743 -0.6534
11183SOL    HW134990   2.283   5.674   0.397  1.5373 -0.0045 -1.5823
11183SOL    HW234991   2.165   5.768   0.411 -0.4507 -2.2238 -2.7612
11184SOL     OW34992   3.910   3.605   7.947  0.0569 -0.1480 -0.0877
11184SOL    HW134993   3.821   3.613   7.912  0.8912  1.9808 -1.9285
11184SOL    HW234994   3.948   3.532   7.898 -0.7012 -1.3095  0.9579
11185SOL     OW34995   4.808   7.106   6.851 -0.8112 -0.0449  0.2231
11185SOL    HW134996   4.721   7.067   6.840 -1.5283  1.5605  0.0642
11185SOL    HW234997   4.799   7.195   6.819  0.0259  1.2171  3.1237
11186SOL     OW34998   1.346   6.514   8.488  0.3089 -0.4688  0.0888
11186SOL    HW134999   1.278   6.578   8.466 -1.0754 -1.1475  2.1394
11186SOL    HW235000   1.351   6.515   8.584 -0.0879 -3.6945  0.2616
11187SOL     OW35001   6.469   3.225   8.357 -0.2310 -0.3008 -0.2193
11187SOL    HW135002   6.393   3.212   8.414 -0.6566 -1.3938 -1.0125
11187SOL    HW235003   6.436   3.282   8.287 -0.8757 -2.1561 -1.5201
11188SOL     OW35004   5.560   7.619   9.033 -0.1078 -0.7326  0.7302
11188SOL    HW135005   5.510   7.583   9.106  0.7968 -0.9226  1.2672
11188SOL    HW235006   5.576   7.711   9.058 -0.0364 -0.7224  0.6471
11189SOL     OW35007   2.850   4.919   7.834  0.7388  0.0574 -0.5283
11189SOL    HW135008   2.769   4.873   7.856  0.0392  0.6508 -1.7180
11189SOL    HW235009   2.917   4.877   7.888 -0.4188 -0.1627  0.7965
11190SOL     OW35010   7.714   7.091   3.720  0.2876 -0.2562  0.5085
11190SOL    HW135011   7.749   7.009   3.754 -2.4504 -1.2042  1.3377
11190SOL    HW235012   7.773   7.116   3.649  1.9079 -2.2323  1.0841
11191SOL     OW35013   7.878   3.960   7.902 -0.3454 -0.1407 -0.1776
11191SOL    HW135014   7.825   4.014   7.961  1.0501  0.7128  0.3639
11191SOL    HW235015   7.815   3.910   7.851 -1.6975  1.5305 -0.2359
11192SOL     OW35016   7.806   3.264   6.363 -0.1485  0.5449  0.2551
11192SOL    HW135017   7.837   3.175   6.379  0.3052  0.6505 -0.0049
11192SOL    HW235018   7.765   3.290   6.445 -0.2754  0.1014  0.3380
11193SOL     OW35019   1.211   7.566   6.618 -0.2596 -0.6733 -0.8730
11193SOL    HW135020   1.134   7.524   6.657  0.2264  0.7669  1.8475
11193SOL    HW235021   1.175   7.641   6.570 -0.6903 -1.2531 -1.4843
11194SOL     OW35022   5.068   1.470  10.668  0.0718  0.5179  0.1164
11194SOL    HW135023   5.149   1.430  10.701  1.6843  2.9317 -0.6564
11194SOL    HW235024   5.003   1.451  10.736  1.6101 -0.3442  1.4307
11195SOL     OW35025   0.107   5.278   4.468  0.2913 -0.4931  0.8479
11195SOL    HW135026   0.194   5.295   4.506  0.5526 -0.5675  0.2890
11195SOL    HW235027   0.123   5.213   4.400  0.2514  1.5114 -1.1873
11196SOL     OW35028   6.713   7.474   0.982 -0.0274  0.5689  0.5197
11196SOL    HW135029   6.778   7.545   0.976  1.7505 -1.0039  0.3306
11196SOL    HW235030   6.702   7.444   0.892  4.5193 -3.8007  1.0075
11197SOL     OW35031   0.628   4.610   6.517 -0.4088  0.5020 -0.1612
11197SOL    HW135032   0.533   4.613   6.523 -0.6342 -1.1589 -1.8424
11197SOL    HW235033   0.648   4.517   6.503  1.3485  0.9644 -1.0609
11198SOL     OW35034   5.124   3.198   6.641 -0.4474 -0.1844 -0.1795
11198SOL    HW135035   5.098   3.243   6.721 -1.0177 -1.4772  0.3945
11198SOL    HW235036   5.046   3.151   6.614  1.3275 -5.3976  2.4045
11199SOL     OW35037   5.376   5.580   5.789 -0.6628  0.1561 -0.5528
11199SOL    HW135038   5.440   5.553   5.855 -1.3398 -1.9399 -0.6785
11199SOL    HW235039   5.413   5.549   5.706 -1.1522  0.2104 -0.7948
11200SOL     OW35040   5.703   1.373   4.434  0.0895  0.1737 -0.6046
11200SOL    HW135041   5.647   1.406   4.364  0.8025 -1.7522 -2.1769
11200SOL    HW235042   5.726   1.450   4.485 -2.1970  1.3354 -1.1985
11201SOL     OW35043   2.093   5.611  10.086  0.3132 -0.1486  0.5350
11201SOL    HW135044   2.010   5.626  10.131 -0.2510 -0.0772 -0.5067
11201SOL    HW235045   2.129   5.533  10.129 -0.5443 -0.4935  0.6473
11202SOL     OW35046   0.908   7.289   1.751  0.1270  0.5339 -0.4086
11202SOL    HW135047   0.893   7.324   1.839 -0.0888  1.5807 -0.8490
11202SOL    HW235048   0.821   7.289   1.710 -0.3289 -2.6052  0.2762
11203SOL     OW35049   4.376   0.773   0.120  0.1909  0.6069  0.6389
11203SOL    HW135050   4.298   0.764   0.064 -0.7318  0.1538  1.9412
11203SOL    HW235051   4.424   0.692   0.108 -0.0735  0.4548  0.5967
11204SOL     OW35052   7.288   7.149  12.122 -0.4099  0.0451  0.1199
11204SOL    HW135053   7.213   7.149  12.181  0.5827  0.4586  1.4340
11204SOL    HW235054   7.304   7.057  12.103 -0.1326 -0.1734  1.3342
11205SOL     OW35055   0.477   6.032   1.517 -0.0191 -0.3972  0.1154
11205SOL    HW135056   0.471   6.001   1.608 -0.6816 -2.2218 -0.5137
11205SOL    HW235057   0.565   6.069   1.510 -0.0454  0.0107  1.5502
11206SOL     OW35058   5.514   7.226   7.371  0.1059 -0.1826 -0.0647
11206SOL    HW135059   5.511   7.301   7.430  0.6557 -1.0536  1.1194
11206SOL    HW235060   5.561   7.158   7.420  2.8041 -0.1982 -2.3763
11207SOL     OW35061   7.820   1.939   5.997  0.1752  0.3902  0.2586
11207SOL    HW135062   7.737   1.978   5.967  0.8883  1.1498 -0.8355
11207SOL    HW235063   7.847   1.883   5.924 -0.3092 -1.3821  1.3983
11208SOL     OW35064   3.432   1.868   1.677  0.0996  0.0517  0.4569
11208SOL    HW135065   3.424   1.892   1.585 -0.8781  1.9738  0.9794
11208SOL    HW235066   3.519   1.829   1.685  0.1558 -0.2324 -1.2837
11209SOL     OW35067   3.760   0.828   5.129  0.2422  0.2937  0.5509
11209SOL    HW135068   3.711   0.840   5.047  0.5252  0.3827  0.3918
11209SOL    HW235069   3.781   0.917   5.156  0.0675  0.2677  0.7711
11210SOL     OW35070   7.852   5.926   4.452 -0.2111  0.3411  0.2307
11210SOL    HW135071   7.910   5.998   4.477 -0.1571  1.0961 -1.9170
11210SOL    HW235072   7.791   5.964   4.389 -2.1924 -0.7827  1.3713
11211SOL     OW35073   5.701   5.690  12.322 -0.5297  0.0656 -0.1450
11211SOL    HW135074   5.780   5.699  12.374 -0.9995 -3.5895  1.4751
11211SOL    HW235075   5.731   5.665  12.235  0.1204 -0.0893  0.1238
11212SOL     OW35076   0.979   1.617  11.191  0.1319 -0.5264  0.1828
11212SOL    HW135077   0.896   1.637  11.233 -0.2810 -0.8382 -0.4697
11212SOL    HW235078   1.025   1.701  11.187 -0.7602 -0.0657 -0.7692
11213SOL     OW35079   4.696   6.098   2.715 -0.1694  0.3474 -0.0167
11213SOL    HW135080   4.699   6.010   2.677  0.5128  0.3715 -0.0284
11213SOL    HW235081   4.786   6.116   2.741 -0.3520  0.9463  0.2206
11214SOL     OW35082   2.369   0.576  11.147  0.0658 -0.1854 -0.9202
11214SOL    HW135083   2.276   0.595  11.155  0.1523 -0.0052 -0.3301
11214SOL    HW235084   2.406   0.653  11.104  0.1999  0.4492  0.2857
11215SOL     OW35085   0.318   2.621  10.296  0.0851  0.1369  0.5477
11215SOL    HW135086   0.411   2.620  10.274 -0.0581 -0.4217 -0.0396
11215SOL    HW235087   0.298   2.531  10.322  0.2107  0.7084  2.8896
11216SOL     OW35088   0.071   7.629   7.703 -0.5892  0.0981  0.0561
11216SOL    HW135089   0.053   7.705   7.758  0.1231 -0.6292  1.3656
11216SOL    HW235090   0.165   7.633   7.686 -0.6857 -0.0658 -0.5117
11217SOL     OW35091   2.402   5.691   5.709  0.0736 -0.0631  0.1981
11217SOL    HW135092   2.469   5.756   5.730  1.6140 -1.1123 -1.1725
11217SOL    HW235093   2.331   5.742   5.669  0.9765  0.8449 -0.2871
11218SOL     OW35094   6.350   2.154   7.116 -0.0665 -0.1719 -0.2655
11218SOL    HW135095   6.382   2.228   7.064 -0.4556 -0.5496 -1.0469
11218SOL    HW235096   6.290   2.107   7.058 -0.9173 -0.3093  0.6883
11219SOL     OW35097   3.326   5.812   8.937  0.0420  0.3607 -0.1551
11219SOL    HW135098   3.301   5.878   9.002 -0.8447 -0.2551  0.1577
11219SOL    HW235099   3.246   5.799   8.885  0.3718 -0.0621 -0.5597
11220SOL     OW35100   5.899   3.136  12.366  0.5881 -0.1038 -0.3084
11220SOL    HW135101   5.967   3.072  12.386  0.6284 -0.0185 -0.1727
11220SOL    HW235102   5.842   3.091  12.303  0.3080 -0.4674  0.2044
11221SOL     OW35103   0.849   1.485   7.502 -0.0625 -0.1191 -0.2293
11221SOL    HW135104   0.814   1.524   7.582 -0.6935  1.0688 -1.0583
11221SOL    HW235105   0.813   1.396   7.501  0.0577 -0.1971  0.8531
11222SOL     OW35106   6.806   5.699   9.392 -0.4942  0.3864 -0.0225
11222SOL    HW135107   6.761   5.783   9.399 -2.3023 -0.0507 -3.9108
11222SOL    HW235108   6.891   5.720   9.356 -1.6194  0.5827 -2.8132
11223SOL     OW35109   3.124   2.831   4.696 -0.0061 -0.7023  0.1439
11223SOL    HW135110   3.089   2.743   4.711 -0.4714 -0.6565 -0.6408
11223SOL    HW235111   3.135   2.837   4.602 -0.9858  0.4432  0.0736
11224SOL     OW35112   1.239   0.406  10.064  0.5285 -0.1922 -0.1317
11224SOL    HW135113   1.320   0.409  10.115  0.3170 -0.2074  0.2108
11224SOL    HW235114   1.233   0.315  10.034 -0.3943 -0.7336  1.5619
11225SOL     OW35115   4.738   5.532   5.510 -0.0413  0.2628 -0.0962
11225SOL    HW135116   4.702   5.621   5.517  0.5696  0.7225 -2.0555
11225SOL    HW235117   4.825   5.545   5.473  0.2581 -1.1341  0.0769
11226SOL     OW35118   4.114   2.762  11.259 -0.5004 -0.1031 -0.0158
11226SOL    HW135119   4.137   2.779  11.351  1.6834 -0.1496 -0.4980
11226SOL    HW235120   4.036   2.815  11.244 -0.5338  0.4065  1.7016
11227SOL     OW35121   6.146   1.629   1.535 -0.1891 -0.2769  0.9026
11227SOL    HW135122   6.068   1.660   1.581  1.4983  2.7087  2.0408
11227SOL    HW235123   6.158   1.692   1.464  0.2559 -1.7053 -0.3382
11228SOL     OW35124   6.436   1.172  12.233 -0.2462  0.7962  0.4347
11228SOL    HW135125   6.502   1.198  12.297 -1.2299  1.7956  1.0717
11228SOL    HW235126   6.441   1.076  12.232  1.8029  0.8516 -0.1899
11229SOL     OW35127   0.381   6.888   9.681 -0.1943  0.2049  0.4316
11229SOL    HW135128   0.391   6.968   9.733  0.4492 -0.6593  1.6664
11229SOL    HW235129   0.442   6.900   9.608 -1.1185  1.4320 -0.1832
11230SOL     OW35130   2.432   1.847   9.949 -0.3735  0.0367  0.0723
11230SOL    HW135131   2.478   1.922   9.988  0.5126 -1.1631  1.4490
11230SOL    HW235132   2.365   1.824  10.013 -1.2903  0.2550 -0.8014
11231SOL     OW35133   3.747   1.843   7.678  0.3045  0.5323  0.8073
11231SOL    HW135134   3.791   1.923   7.648 -0.7918  0.3607 -1.5060
11231SOL    HW235135   3.800   1.772   7.642 -0.4817  0.2940  0.0881
11232SOL     OW35136   3.611   7.232   3.540  0.1601 -0.0960 -0.0435
11232SOL    HW135137   3.535   7.254   3.593 -1.2695 -1.1920 -1.5264
11232SOL    HW235138   3.657   7.315   3.528  1.4761 -0.0093  4.0993
11233SOL     OW35139   7.063   5.721   1.804 -0.0904 -0.8413  0.0921
11233SOL    HW135140   7.092   5.661   1.872  2.2006  0.8549  0.7502
11233SOL    HW235141   7.136   5.724   1.741 -0.6422  0.3301 -0.5318
11234SOL     OW35142   7.480   0.841   5.427  0.5221 -0.2359 -0.2105
11234SOL    HW135143   7.473   0.936   5.434 -0.6483 -0.3931  1.5676
11234SOL    HW235144   7.435   0.819   5.346 -0.4069  0.6494  0.0424
11235SOL     OW35145   5.274   3.914   0.588 -0.2412 -0.4929 -0.4185
11235SOL    HW135146   5.325   3.843   0.549  0.6939  0.4385 -0.9360
11235SOL    HW235147   5.338   3.970   0.631 -0.9547  0.0492 -0.0320
11236SOL     OW35148   5.325   5.460   6.625  0.1572 -0.0760  0.1704
11236SOL    HW135149   5.236   5.448   6.592 -0.0096  0.2036  0.5210
11236SOL    HW235150   5.348   5.376   6.665  0.7620 -0.8010 -1.5862
11237SOL     OW35151   4.210   6.037   5.907 -0.0352  0.2586 -0.4331
11237SOL    HW135152   4.155   6.020   5.983 -0.7931  1.3910 -0.7014
11237SOL    HW235153   4.299   6.027   5.939 -0.3669 -0.6641  0.2472
11238SOL     OW35154   7.782   0.730   4.094 -0.2426 -0.0107 -0.1299
11238SOL    HW135155   7.728   0.782   4.154 -0.1320 -1.0897  0.9474
11238SOL    HW235156   7.773   0.640   4.126  0.6240 -0.4764 -1.1422
11239SOL     OW35157   6.465   6.469   1.853 -0.3480  0.4970 -0.2570
11239SOL    HW135158   6.532   6.490   1.787  0.1971 -1.1112 -0.2829
11239SOL    HW235159   6.388   6.446   1.802  0.4440 -2.0091 -0.4997
11240SOL     OW35160   0.358   1.897  10.469 -0.3164  0.1241 -0.4402
11240SOL    HW135161   0.278   1.894  10.416 -0.5529 -0.9594 -0.0441
11240SOL    HW235162   0.377   1.990  10.478 -2.2664  0.4701  0.5565
11241SOL     OW35163   6.946   0.589  11.213  0.0043  0.2324 -0.2657
11241SOL    HW135164   7.004   0.564  11.285  0.2309 -1.3925 -0.9683
11241SOL    HW235165   6.953   0.516  11.151 -0.7749  1.2400 -1.5752
11242SOL     OW35166   1.502   6.180   7.955 -0.4180 -0.7905 -0.5332
11242SOL    HW135167   1.537   6.104   7.908 -0.0506  0.8514 -3.1371
11242SOL    HW235168   1.497   6.248   7.888 -1.7737  1.1687  1.4531
11243SOL     OW35169   7.354   3.968  11.683 -0.2168  0.4427  0.3365
11243SOL    HW135170   7.335   3.982  11.591  1.8724 -1.3305 -0.4652
11243SOL    HW235171   7.269   3.962  11.725 -1.2416  0.1009 -1.6748
11244SOL     OW35172   2.591   6.447  11.981  0.2700  0.1393 -0.3633
11244SOL    HW135173   2.646   6.489  11.916  0.8429  0.6647  0.4413
11244SOL    HW235174   2.639   6.368  12.007  1.9612  1.8069  2.1211
11245SOL     OW35175   0.954   4.340   0.728  0.7055 -0.4860  0.2193
11245SOL    HW135176   0.914   4.256   0.708  0.6913  0.0321 -2.1689
11245SOL    HW235177   1.018   4.354   0.659 -0.2336  2.0489 -0.2663
11246SOL     OW35178   3.290   5.914   7.082 -0.3571 -0.4564 -0.2238
11246SOL    HW135179   3.333   5.970   7.017  1.1541 -1.2253  0.0468
11246SOL    HW235180   3.240   5.851   7.031  1.4089 -1.5251 -0.7572
11247SOL     OW35181   0.986   4.264   2.892 -0.0090  0.1470 -0.1285
11247SOL    HW135182   0.935   4.277   2.972 -1.0460  1.6232 -0.9702
11247SOL    HW235183   0.961   4.178   2.860  0.8852 -0.7336  1.4219
11248SOL     OW35184   3.638   0.714   6.311 -0.0130  0.2799 -0.0808
11248SOL    HW135185   3.610   0.717   6.220 -1.6824 -2.3694  0.2154
11248SOL    HW235186   3.728   0.682   6.307 -0.4111 -0.8276 -0.8258
11249SOL     OW35187   1.990   2.657   6.465  0.2476 -0.3205  0.0726
11249SOL    HW135188   1.901   2.687   6.449  1.1658  2.2296 -0.7114
11249SOL    HW235189   2.042   2.737   6.472  2.2896 -1.6762  1.8859
11250SOL     OW35190   0.124   4.494  11.576 -0.0299  0.5017  0.2984
11250SOL    HW135191   0.092   4.419  11.625  1.5648  0.3054  1.1248
11250SOL    HW235192   0.166   4.457  11.499 -1.2150  0.7162 -0.4734
11251SOL     OW35193   5.488   4.090   2.917  0.6467 -0.2659 -0.4617
11251SOL    HW135194   5.560   4.150   2.897  0.9868 -0.6855 -0.4955
11251SOL    HW235195   5.523   4.032   2.984  0.0720  0.0401  0.1199
11252SOL     OW35196   2.539   5.103   1.469  0.1653 -0.0505 -0.0400
11252SOL    HW135197   2.455   5.098   1.515 -0.1334  1.5087 -0.3724
11252SOL    HW235198   2.523   5.057   1.386 -0.9179  1.6334 -0.8352
11253SOL     OW35199   1.751   5.312   4.464  0.5778 -0.1376 -0.1833
11253SOL    HW135200   1.768   5.374   4.534  0.8392 -1.5552  1.0638
11253SOL    HW235201   1.681   5.256   4.498  0.6460 -0.8006 -1.0890
11254SOL     OW35202   2.058   1.850   1.245 -0.2943 -0.0693 -0.5149
11254SOL    HW135203   2.040   1.876   1.335  0.4518 -0.9225 -0.1015
11254SOL    HW235204   2.149   1.819   1.246 -0.0915  0.4021 -1.6741
11255SOL     OW35205   1.221   5.304  11.727 -0.1573 -0.0932  0.2419
11255SOL    HW135206   1.167   5.373  11.688 -1.0423 -1.0320 -0.2171
11255SOL    HW235207   1.203   5.226  11.675  0.6113 -0.7594  0.9351
11256SOL     OW35208   4.615   7.584   5.643  0.8125 -0.6548  0.2214
11256SOL    HW135209   4.525   7.580   5.676  0.6023  0.3725 -0.1976
11256SOL    HW235210   4.669   7.593   5.721  0.3386  1.4838  0.3619
11257SOL     OW35211   3.255   1.194   0.714 -0.3838  0.0396  0.0968
11257SOL    HW135212   3.320   1.124   0.715  0.0358  0.4010 -0.6432
11257SOL    HW235213   3.227   1.200   0.623 -1.5271 -0.1617  0.4214
11258SOL     OW35214   2.840   1.471   3.208  0.1351  0.2314  0.5377
11258SOL    HW135215   2.786   1.418   3.266 -1.6607  0.1303 -1.1178
11258SOL    HW235216   2.836   1.559   3.244 -1.7837  0.3677  0.0712
11259SOL     OW35217   3.861   5.266   1.933  0.1694  0.0800 -0.1176
11259SOL    HW135218   3.805   5.275   2.010 -0.6385 -0.2077 -0.6559
11259SOL    HW235219   3.822   5.324   1.867  1.4904  1.1738  0.0226
11260SOL     OW35220   7.919   3.419   6.042  0.3283  0.1172 -0.5284
11260SOL    HW135221   7.959   3.421   6.129 -0.0741  0.8503 -0.3525
11260SOL    HW235222   7.850   3.484   6.046 -0.4560 -0.6644 -1.0421
11261SOL     OW35223   1.688   1.587   3.627  0.3555 -0.2923  0.2347
11261SOL    HW135224   1.635   1.508   3.636 -1.9538  0.8933 -1.6966
11261SOL    HW235225   1.771   1.557   3.590  0.9784 -2.1664  2.9123
11262SOL     OW35226   7.797   4.306   9.711 -0.6046 -0.2473  0.2706
11262SOL    HW135227   7.710   4.346   9.714  0.2350  1.7434 -0.1612
11262SOL    HW235228   7.849   4.355   9.775  0.0813 -1.7973  0.9689
11263SOL     OW35229   7.396   4.743   3.550 -0.1002  0.3094 -0.0797
11263SOL    HW135230   7.330   4.803   3.516  0.0916  1.0097  0.7468
11263SOL    HW235231   7.436   4.790   3.623 -1.0015 -1.3729  1.5921
11264SOL     OW35232   1.588   6.963   9.914 -0.0637  0.3201 -0.2955
11264SOL    HW135233   1.499   6.964   9.950  0.1449  1.0836  0.2213
11264SOL    HW235234   1.578   6.992   9.823 -0.5951 -1.6235 -0.9061
11265SOL     OW35235   2.419   4.739   4.974 -0.7521 -0.7747  0.0515
11265SOL    HW135236   2.439   4.791   4.896  2.9174 -1.3609  0.4287
11265SOL    HW235237   2.325   4.749   4.985 -0.8117  2.8482 -1.9520
11266SOL     OW35238   5.715   6.076   2.719 -0.2395 -0.1067 -0.0741
11266SOL    HW135239   5.715   6.076   2.624 -0.9762 -1.8534 -0.1174
11266SOL    HW235240   5.633   6.034   2.743 -0.2798  0.7176  1.3522
11267SOL     OW35241   5.940   0.644  10.064 -0.9482 -0.0533 -0.3636
11267SOL    HW135242   5.948   0.618   9.972  0.3448 -0.9372 -0.0302
11267SOL    HW235243   5.966   0.567  10.114  0.6745  1.0923  0.7036
11268SOL     OW35244   0.049   4.752   3.913  0.2551 -0.2258  0.3957
11268SOL    HW135245   0.093   4.769   3.996 -0.9406  1.5522  0.7161
11268SOL    HW235246   0.038   4.839   3.874  0.0454 -0.9574 -1.2390
11269SOL     OW35247   6.587   3.954   9.984 -0.9541 -0.5432 -0.4354
11269SOL    HW135248   6.524   3.958   9.912 -0.1490  1.0910 -1.1098
11269SOL    HW235249   6.665   3.913   9.946 -0.5276  0.3190 -0.5328
11270SOL     OW35250   2.992   0.899   3.291  0.0865  0.2539  0.2077
11270SOL    HW135251   2.899   0.880   3.301  0.0082  0.9383  0.8730
11270SOL    HW235252   3.006   0.979   3.342  1.1529 -0.1520  0.5841
11271SOL     OW35253   2.155   4.509  12.267 -0.7203 -0.8854 -0.3754
11271SOL    HW135254   2.117   4.596  12.277 -1.7405 -1.4090  0.5679
11271SOL    HW235255   2.181   4.484  12.355  1.7514 -0.6282 -0.9574
11272SOL     OW35256   3.982   7.066   2.791  0.1086  0.5472 -0.4104
11272SOL    HW135257   3.919   7.089   2.722 -0.3810 -2.3932 -1.1019
11272SOL    HW235258   3.930   7.016   2.855  1.0582  1.1464  0.8692
11273SOL     OW35259   4.174   5.511  12.093 -0.0700  0.3170  0.0425
11273SOL    HW135260   4.079   5.498  12.090 -0.1064  0.5079  0.3119
11273SOL    HW235261   4.211   5.428  12.063 -0.3068 -0.1603  1.0230
11274SOL     OW35262   7.763   2.307   2.246 -0.4136 -0.2802 -0.2828
11274SOL    HW135263   7.754   2.273   2.156 -1.1198 -1.8698  0.3475
11274SOL    HW235264   7.791   2.231   2.297  0.0189  0.6200  0.8525
11275SOL     OW35265   3.754   5.938   4.263  0.1395 -0.4015 -0.2048
11275SOL    HW135266   3.825   5.896   4.214  0.7672  0.0457  0.2948
11275SOL    HW235267   3.716   5.867   4.315 -0.3859 -0.8329 -1.1441
11276SOL     OW35268   3.442   4.109   3.753  0.1940 -0.3245 -0.2109
11276SOL    HW135269   3.514   4.066   3.708  0.0171 -1.3226  0.4363
11276SOL    HW235270   3.484   4.175   3.809  0.5710 -0.6067 -0.1592
11277SOL     OW35271   4.061   6.511   3.883  0.1899  0.1966 -0.2291
11277SOL    HW135272   3.969   6.517   3.858  0.4026  0.4506 -0.9775
11277SOL    HW235273   4.103   6.585   3.839  0.4312  1.2211  1.6470
11278SOL     OW35274   5.686   4.757   2.213 -0.4508 -0.0431  0.0884
11278SOL    HW135275   5.637   4.676   2.219 -0.5724  0.0566  0.4452
11278SOL    HW235276   5.769   4.732   2.172 -0.2490 -0.4539  0.7433
11279SOL     OW35277   2.071   5.630   7.221  0.4279  0.3180 -0.0694
11279SOL    HW135278   2.018   5.644   7.300  0.5991 -0.1256  0.1270
11279SOL    HW235279   2.008   5.615   7.151  0.2665 -2.2299  0.5275
11280SOL     OW35280   0.953   2.796   3.597 -0.1812  0.0696 -0.5819
11280SOL    HW135281   1.013   2.817   3.668 -0.5438 -2.2449  0.4959
11280SOL    HW235282   1.004   2.811   3.517  2.1448 -2.3578  0.2868
11281SOL     OW35283   3.423   3.006   2.512  0.0998  0.2614 -0.4871
11281SOL    HW135284   3.446   2.981   2.423  1.9322 -0.0716  0.0397
11281SOL    HW235285   3.380   2.928   2.548  1.5549 -0.5178 -0.3418
11282SOL     OW35286   3.477   5.216   3.963 -0.4510 -0.8484  0.6487
11282SOL    HW135287   3.561   5.169   3.965 -0.7738 -1.4305  0.8469
11282SOL    HW235288   3.465   5.239   3.870  0.5273  0.3693  0.7962
11283SOL     OW35289   0.283   5.314   2.295 -0.2455  0.5312 -0.0438
11283SOL    HW135290   0.212   5.379   2.291  0.2038  0.9746 -1.5302
11283SOL    HW235291   0.289   5.292   2.388 -1.9088  0.9486  0.2129
11284SOL     OW35292   1.086   7.814  10.084  0.1169 -0.2804  0.0334
11284SOL    HW135293   1.048   7.801   9.997  1.0921  1.0398 -0.6342
11284SOL    HW235294   1.178   7.787  10.074  0.9694  2.3818 -0.1595
11285SOL     OW35295   6.758   5.672   5.523 -0.3704  0.3575 -0.6586
11285SOL    HW135296   6.791   5.583   5.533 -1.3080  0.1333  0.8089
11285SOL    HW235297   6.832   5.728   5.545 -0.3029 -0.1089  0.3540
11286SOL     OW35298   4.025   6.153   2.532  0.3639  0.1889  0.0806
11286SOL    HW135299   3.965   6.208   2.582  1.5015  0.5644  1.0695
11286SOL    HW235300   4.104   6.147   2.586  0.3933 -2.2054 -0.1204
11287SOL     OW35301   0.134   0.606   1.109  0.9566  0.0161 -0.1102
11287SOL    HW135302   0.045   0.628   1.135  0.9096 -0.2260 -0.0610
11287SOL    HW235303   0.182   0.597   1.191  1.3064  1.2668 -0.1623
11288SOL     OW35304   1.934   3.347   4.518 -0.0278  0.2552 -0.0400
11288SOL    HW135305   2.028   3.362   4.515  0.0375 -0.1874 -0.2015
11288SOL    HW235306   1.901   3.384   4.436  0.1132 -0.3380 -0.3666
11289SOL     OW35307   2.790   0.677  11.817 -0.2103  0.0490  0.4900
11289SOL    HW135308   2.805   0.583  11.819 -1.1451 -0.1226  0.2004
11289SOL    HW235309   2.753   0.693  11.730  0.0770  0.7079  0.4831
11290SOL     OW35310   2.819   4.896   4.761  0.2815 -0.3900 -0.0837
11290SOL    HW135311   2.726   4.896   4.780  0.2430  2.3485  0.1546
11290SOL    HW235312   2.861   4.866   4.842 -0.2544  3.4384  1.8355
11291SOL     OW35313   2.160   7.142  11.820 -0.2395  0.2411  0.1093
11291SOL    HW135314   2.093   7.079  11.847 -0.1923  0.4400  0.6999
11291SOL    HW235315   2.116   7.198  11.756  0.0280 -1.0614 -1.2748
11292SOL     OW35316   2.060   5.888   4.750  0.4113  0.1485 -0.2027
11292SOL    HW135317   2.116   5.956   4.787  0.7268  0.6346 -1.5503
11292SOL    HW235318   2.115   5.843   4.686 -0.1822 -0.5576 -0.2300
11293SOL     OW35319   4.177   6.440   5.502 -0.1234 -0.2341 -0.2443
11293SOL    HW135320   4.195   6.439   5.596 -1.6916 -0.8044  0.0783
11293SOL    HW235321   4.159   6.349   5.481  1.5199 -0.3419 -1.4090
11294SOL     OW35322   4.639   5.678  12.191 -0.4239  0.8834 -0.3292
11294SOL    HW135323   4.553   5.692  12.230 -0.9619 -0.4244 -0.9869
11294SOL    HW235324   4.634   5.591  12.153  0.8806  1.1697 -1.2148
11295SOL     OW35325   7.851   1.137   4.712  0.3703  0.4659  0.5237
11295SOL    HW135326   7.946   1.125   4.721  0.6671  1.0954 -1.4300
11295SOL    HW235327   7.823   1.066   4.655 -0.3234  0.4002  0.9319
11296SOL     OW35328   1.249   0.252  10.360  0.1101  0.1374 -0.0806
11296SOL    HW135329   1.311   0.190  10.322  0.9678  0.8529  0.1367
11296SOL    HW235330   1.302   0.327  10.388 -0.8369  0.7523  0.1433
11297SOL     OW35331   4.011   5.696  10.904 -0.0516  0.2046 -0.1253
11297SOL    HW135332   3.919   5.709  10.881  0.5746  4.2305 -1.2184
11297SOL    HW235333   4.044   5.634  10.839 -1.9005 -1.1804  0.1958
11298SOL     OW35334   7.639   7.451   2.351  0.1659 -0.1034 -0.3179
11298SOL    HW135335   7.689   7.532   2.349 -0.2131  0.1404 -0.0178
11298SOL    HW235336   7.681   7.395   2.285  1.3618 -0.2216  0.5154
11299SOL     OW35337   5.327   2.241  12.166  0.3110  0.4314 -0.1483
11299SOL    HW135338   5.350   2.168  12.223 -1.9847  0.7130  1.2994
11299SOL    HW235339   5.373   2.316  12.203  0.3330  0.2504  0.1944
11300SOL     OW35340   1.923   2.636   7.267 -0.6338 -0.4858  0.1668
11300SOL    HW135341   1.937   2.558   7.213 -0.1984 -1.3075  1.4070
11300SOL    HW235342   1.983   2.701   7.231 -1.9725 -0.2302 -1.7460
11301SOL     OW35343   7.416   2.399  10.255  0.5564 -0.6347 -0.4070
11301SOL    HW135344   7.399   2.306  10.242  2.1618 -1.3189  1.7749
11301SOL    HW235345   7.510   2.403  10.272  0.4092  1.3150  0.1174
11302SOL     OW35346   5.977   6.465   7.731 -0.0035 -0.0900 -0.4826
11302SOL    HW135347   6.009   6.499   7.648  1.7136  1.1643  0.6088
11302SOL    HW235348   5.989   6.538   7.793  0.5827 -1.5902  1.2614
11303SOL     OW35349   6.634   7.331   7.936 -0.0526  0.2837  0.0420
11303SOL    HW135350   6.629   7.259   8.000  1.3905  2.1272  2.4071
11303SOL    HW235351   6.728   7.348   7.927 -0.3700  2.5503  0.4147
11304SOL     OW35352   6.143   5.267   5.764  0.7120  0.4692 -0.0949
11304SOL    HW135353   6.189   5.331   5.709 -0.3632  1.2244 -0.1528
11304SOL    HW235354   6.148   5.185   5.714 -0.8713  1.2982 -1.7336
11305SOL     OW35355   4.742   4.184   9.847 -0.4447  0.5139 -0.2227
11305SOL    HW135356   4.829   4.202   9.810 -1.0797  2.0764 -1.0376
11305SOL    HW235357   4.760   4.154   9.937  0.8851  2.5488  0.2549
11306SOL     OW35358   2.206   5.811   8.102 -0.3028 -0.1005  0.1185
11306SOL    HW135359   2.255   5.794   8.182 -3.7460  0.0894  2.4844
11306SOL    HW235360   2.200   5.726   8.059  3.6196  0.1885 -1.4580
11307SOL     OW35361   7.208   6.745  11.567 -0.1754  0.0492  0.2319
11307SOL    HW135362   7.148   6.690  11.517  1.3204 -1.8093  0.3711
11307SOL    HW235363   7.249   6.685  11.629  1.6520  1.3001  0.3023
11308SOL     OW35364   1.575   4.562   0.958 -0.5679 -0.3028  0.3323
11308SOL    HW135365   1.636   4.525   1.022  0.4477 -1.1885 -1.0769
11308SOL    HW235366   1.609   4.650   0.941  0.2705 -0.7387 -0.3380
11309SOL     OW35367   0.622   0.393   8.449 -0.0825 -0.1684 -0.2466
11309SOL    HW135368   0.579   0.422   8.369  0.0940 -0.6178 -0.5090
11309SOL    HW235369   0.552   0.389   8.514 -0.2423  0.1160 -0.3976
11310SOL     OW35370   6.830   6.233   3.271  0.2749 -0.3091  0.0411
11310SOL    HW135371   6.875   6.315   3.292  0.6261 -0.2438 -0.8929
11310SOL    HW235372   6.762   6.225   3.338  0.4269  0.5955  0.3221
11311SOL     OW35373   4.569   3.234   6.687  0.6891 -0.3465  0.0200
11311SOL    HW135374   4.567   3.277   6.602  0.2542 -0.1242  0.1394
11311SOL    HW235375   4.557   3.305   6.750 -1.3538 -0.7411  0.1737
11312SOL     OW35376   2.072   5.431  10.613 -0.1755 -0.2005  0.6981
11312SOL    HW135377   2.132   5.476  10.553 -1.6125  0.8526  0.0066
11312SOL    HW235378   2.129   5.399  10.683  1.4035 -0.5772 -0.6865
11313SOL     OW35379   5.815   4.597   3.515 -0.3297 -0.0214  0.1635
11313SOL    HW135380   5.832   4.654   3.439 -0.2967 -0.7021 -0.3549
11313SOL    HW235381   5.814   4.509   3.478  0.4230 -0.4352  1.0792
11314SOL     OW35382   1.432   0.278  10.588 -0.0473  0.3272 -0.3214
11314SOL    HW135383   1.484   0.263  10.509  0.1880 -0.1333 -0.0783
11314SOL    HW235384   1.477   0.228  10.657  0.8821  2.2600  0.5605
11315SOL     OW35385   2.738   3.090   3.461  0.0153  0.3857  0.2604
11315SOL    HW135386   2.712   3.061   3.548 -1.1889  2.1078  0.5381
11315SOL    HW235387   2.668   3.059   3.403  0.9605 -1.0089 -0.1710
11316SOL     OW35388   0.170   3.000   1.675  0.5303  0.5449 -0.6101
11316SOL    HW135389   0.218   3.057   1.616  0.4323  0.2556 -0.9754
11316SOL    HW235390   0.090   3.048   1.696 -0.1128  0.0744 -1.8519
11317SOL     OW35391   7.730   0.562   4.545 -0.6516  0.8415  1.0109
11317SOL    HW135392   7.758   0.493   4.604 -2.7831 -1.0799 -0.0653
11317SOL    HW235393   7.637   0.576   4.566 -1.1624  0.8888 -1.0497
11318SOL     OW35394   0.415   5.955   7.332 -0.7839 -0.7540 -0.5103
11318SOL    HW135395   0.504   5.990   7.343 -1.1621 -0.4034  2.4145
11318SOL    HW235396   0.358   6.028   7.358 -1.8077 -1.7656  0.1667
11319SOL     OW35397   2.706   5.130   2.078 -0.3614 -0.1719  0.0073
11319SOL    HW135398   2.799   5.152   2.075 -0.3001 -0.4396 -0.0640
11319SOL    HW235399   2.678   5.159   2.165 -0.2570  0.0877 -0.0449
11320SOL     OW35400   2.032   4.108  10.107 -0.4099  0.2179  0.3529
11320SOL    HW135401   2.051   4.021  10.142 -0.3091 -0.3384 -1.0462
11320SOL    HW235402   2.098   4.165  10.147 -1.0017 -0.1540  1.9544
11321SOL     OW35403   3.933   2.209  11.803  0.4335 -0.6642  0.3393
11321SOL    HW135404   3.918   2.254  11.886 -1.4154  0.5669 -0.6038
11321SOL    HW235405   3.870   2.248  11.742  1.8107 -1.4381 -1.6937
11322SOL     OW35406   0.072   3.708  12.259  0.1435  0.6808 -0.2332
11322SOL    HW135407   0.097   3.616  12.270 -0.2844  0.6981  1.0214
11322SOL    HW235408   0.002   3.705  12.193 -1.0859 -0.1166  1.0562
11323SOL     OW35409   5.726   7.408  12.276  0.3534 -0.6568  0.2900
11323SOL    HW135410   5.728   7.330  12.221  2.3267  1.2226 -2.6576
11323SOL    HW235411   5.662   7.466  12.233  0.4899  0.1394  1.1228
11324SOL     OW35412   4.668   0.595   5.128  0.5703  0.1715  0.2474
11324SOL    HW135413   4.651   0.543   5.206  0.7875  0.1170  0.2615
11324SOL    HW235414   4.706   0.533   5.066  0.5789  0.2550  0.1681
11325SOL     OW35415   1.191   2.581   5.126  0.4662 -0.0613  0.2062
11325SOL    HW135416   1.253   2.654   5.121  1.9096 -1.1175  1.7391
11325SOL    HW235417   1.236   2.515   5.179 -1.2833 -1.5889 -0.1281
11326SOL     OW35418   0.864   7.934  10.221 -0.0322  0.5139 -0.4590
11326SOL    HW135419   0.802   7.908  10.153 -0.3006 -2.4093  0.7339
11326SOL    HW235420   0.945   7.887  10.199  0.3553  0.7750  0.3591
11327SOL     OW35421   2.473   4.686  11.411  0.1088 -0.2953 -0.7490
11327SOL    HW135422   2.455   4.598  11.380 -0.4401  0.1564 -1.7578
11327SOL    HW235423   2.426   4.692  11.494  3.5258 -2.3236  1.5729
11328SOL     OW35424   2.675   3.512   8.755  0.1868 -0.4500  0.6976
11328SOL    HW135425   2.641   3.487   8.669 -0.9785  0.5321  0.8421
11328SOL    HW235426   2.600   3.553   8.800  1.2252  0.6411  1.5212
11329SOL     OW35427   1.675   7.954   6.776  0.0090  0.3899 -0.0435
11329SOL    HW135428   1.630   8.038   6.768 -0.8560 -0.0647 -0.0609
11329SOL    HW235429   1.718   7.942   6.691  1.6488  1.6405  0.5566
11330SOL     OW35430   1.965   3.009  12.189 -0.8608 -0.0118  0.1969
11330SOL    HW135431   2.039   3.026  12.130 -0.6820 -0.5811  0.2503
11330SOL    HW235432   1.966   3.082  12.251  2.6498 -2.2934  3.2563
11331SOL     OW35433   2.598   6.313   0.115 -0.2807 -0.0862  0.3359
11331SOL    HW135434   2.582   6.282   0.026 -1.4891  0.9342  0.1778
11331SOL    HW235435   2.549   6.251   0.170  0.5851 -0.8047  0.3299
11332SOL     OW35436   0.888   4.851   1.196  0.1224 -0.4558  0.8273
11332SOL    HW135437   0.895   4.779   1.259 -0.1331 -0.3112  1.0280
11332SOL    HW235438   0.978   4.873   1.174  0.4445  1.5337  3.5200
11333SOL     OW35439   2.892   4.994   1.169 -0.2853 -0.0414 -0.1688
11333SOL    HW135440   2.844   5.039   1.239  2.1305  2.2370  0.1890
11333SOL    HW235441   2.958   4.941   1.215  0.9027  0.9672 -0.6559
11334SOL     OW35442   6.202   5.061   5.031  0.5254 -0.1552 -0.9011
11334SOL    HW135443   6.280   5.099   5.072  0.5310 -1.0724 -0.0217
11334SOL    HW235444   6.236   5.006   4.960  0.7079 -0.8239 -0.3012
11335SOL     OW35445   3.290   0.250   1.509  0.1450  0.4680  0.0169
11335SOL    HW135446   3.218   0.211   1.458 -0.2545 -0.5404  1.2756
11335SOL    HW235447   3.347   0.289   1.444 -0.9995  0.3508 -1.1072
11336SOL     OW35448   3.100   7.024   0.979 -0.3378 -0.1315 -0.2755
11336SOL    HW135449   3.183   6.998   0.940 -1.6339 -1.4193 -2.3286
11336SOL    HW235450   3.061   7.084   0.915 -1.2960 -0.0780  0.3378
11337SOL     OW35451   0.961   7.147   7.337  0.2493 -0.1449  1.1794
11337SOL    HW135452   0.997   7.097   7.264  0.1045 -0.8258  1.5594
11337SOL    HW235453   1.037   7.162   7.395 -0.0642 -1.7257  2.0616
11338SOL     OW35454   7.542   1.700   3.605  0.4924 -0.1458 -0.2626
11338SOL    HW135455   7.612   1.686   3.668 -0.8586  0.7977  1.5207
11338SOL    HW235456   7.462   1.682   3.654 -0.6024  0.4573 -1.7629
11339SOL     OW35457   1.348   6.991   3.438 -0.5638 -0.2253 -0.1603
11339SOL    HW135458   1.393   7.065   3.397 -2.1069  1.3043  0.7681
11339SOL    HW235459   1.337   6.928   3.366 -0.7301  1.1902 -1.4444
11340SOL     OW35460   1.395   6.732   4.662 -0.4439  0.0578  0.3882
11340SOL    HW135461   1.341   6.811   4.658  1.2455  1.2374  0.1174
11340SOL    HW235462   1.331   6.661   4.671 -2.2238  1.1520 -2.2882
11341SOL     OW35463   4.467   5.527   1.216 -0.4729  0.1370  0.0646
11341SOL    HW135464   4.515   5.606   1.193 -0.9554  0.7223  0.9740
11341SOL    HW235465   4.489   5.511   1.308 -1.8531  0.3183  0.4505
11342SOL     OW35466   5.012   0.073   1.362 -0.1768 -0.2487 -0.7625
11342SOL    HW135467   4.965   0.026   1.431 -0.0362 -2.2766 -1.9381
11342SOL    HW235468   5.053   0.147   1.406 -1.6898 -0.3390  0.9281
11343SOL     OW35469   3.721   4.479   4.171  0.2227 -0.2746 -0.7490
11343SOL    HW135470   3.650   4.534   4.138 -0.0952  0.1648  0.5926
11343SOL    HW235471   3.799   4.532   4.160 -0.0528  0.3702  0.3298
11344SOL     OW35472   4.602   5.051  12.204 -0.0280 -0.3161  0.0250
11344SOL    HW135473   4.526   5.088  12.158 -0.1057  0.4688  0.7568
11344SOL    HW235474   4.637   5.125  12.254  0.8136 -0.8457  0.2256
11345SOL     OW35475   6.579   3.828   5.564  0.4980 -0.5733  0.5029
11345SOL    HW135476   6.493   3.787   5.555  0.6745 -0.7196 -0.8637
11345SOL    HW235477   6.635   3.760   5.601  0.3436 -0.9599  0.0378
11346SOL     OW35478   7.468   5.239   5.081 -0.5678 -0.0878  0.7843
11346SOL    HW135479   7.386   5.268   5.121 -1.7299 -3.1641  0.9092
11346SOL    HW235480   7.444   5.215   4.992  0.3384 -0.3457  0.6006
11347SOL     OW35481   4.747   7.248   4.188  0.1551 -0.3323 -0.6155
11347SOL    HW135482   4.833   7.253   4.146  0.7858 -1.3295  0.4621
11347SOL    HW235483   4.702   7.177   4.142  0.1539 -0.2287 -0.7732
11348SOL     OW35484   6.321   5.212   6.272  0.5596  0.0493 -0.3396
11348SOL    HW135485   6.343   5.121   6.256  1.1912  0.5282 -2.5056
11348SOL    HW235486   6.273   5.240   6.195  0.1571  1.4987  0.3858
11349SOL     OW35487   4.286   2.726   5.835  0.6207  0.2796  0.2831
11349SOL    HW135488   4.217   2.772   5.883  0.9997  1.1614  0.0067
11349SOL    HW235489   4.365   2.737   5.889  0.9313  0.8274 -0.2587
11350SOL     OW35490   7.019   2.481   5.948 -0.1588  0.1814 -0.2525
11350SOL    HW135491   6.956   2.428   5.996 -0.5929  1.1114  0.2448
11350SOL    HW235492   7.000   2.464   5.856 -0.5822 -0.1826 -0.1016
11351SOL     OW35493   0.976   4.622  10.733  0.1331 -0.0099  0.2158
11351SOL    HW135494   1.035   4.630  10.658  0.0863  0.8896  0.2656
11351SOL    HW235495   1.021   4.562  10.792  0.1939 -0.6947 -0.5025
11352SOL     OW35496   7.482   2.925   5.425 -0.4627  0.0624 -0.5552
11352SOL    HW135497   7.528   2.845   5.399 -0.2141 -0.7413  2.1148
11352SOL    HW235498   7.537   2.996   5.392  2.5638 -0.8666  2.0000
11353SOL     OW35499   0.087   7.300   7.216  0.4278  0.0974 -0.5231
11353SOL    HW135500   0.067   7.381   7.170  0.0410  0.6223  0.5334
11353SOL    HW235501   0.182   7.292   7.211  0.5922  1.2372  0.3510
11354SOL     OW35502   4.918   4.700   0.721  0.2345  0.4933  0.9410
11354SOL    HW135503   4.969   4.622   0.743 -0.2017  0.6656  2.7006
11354SOL    HW235504   4.902   4.692   0.626  1.6107 -0.6844  0.7724
11355SOL     OW35505   5.603   5.142  12.121 -0.0008 -0.7487  0.3684
11355SOL    HW135506   5.588   5.136  12.027  0.5826 -0.2452  0.2355
11355SOL    HW235507   5.562   5.225  12.146 -0.4783 -1.0588  0.6281
11356SOL     OW35508   0.783   3.898  10.247  0.4962 -0.1748  0.0192
11356SOL    HW135509   0.704   3.863  10.287 -0.0591  0.1178 -0.7928
11356SOL    HW235510   0.759   3.914  10.155  1.6173 -0.4667 -0.3424
11357SOL     OW35511   1.623   3.526  10.939 -0.8340  0.5907  0.1282
11357SOL    HW135512   1.699   3.577  10.907 -0.5410  0.0031 -0.1223
11357SOL    HW235513   1.558   3.593  10.961 -1.5837  1.0515 -2.9565
11358SOL     OW35514   0.655   0.997   7.759  0.4278  0.2523  0.6179
11358SOL    HW135515   0.563   1.008   7.784  0.2895  1.1175 -0.2167
11358SOL    HW235516   0.655   0.921   7.700  0.0843  0.8568 -0.1746
11359SOL     OW35517   2.084   7.533   1.089 -0.0742 -0.0221 -0.3565
11359SOL    HW135518   2.130   7.613   1.115 -0.1796 -0.4084  1.1529
11359SOL    HW235519   2.037   7.506   1.168 -0.3942 -1.3307 -0.9637
11360SOL     OW35520   0.787   0.446   2.351 -0.1882  0.0178  0.1124
11360SOL    HW135521   0.837   0.378   2.305  0.6898 -0.1260  1.2394
11360SOL    HW235522   0.746   0.400   2.424 -1.0699  0.3616 -0.1575
11361SOL     OW35523   4.584   5.177   3.635 -0.3204 -0.1363  0.0587
11361SOL    HW135524   4.505   5.126   3.650  0.0781 -0.6657  0.3569
11361SOL    HW235525   4.619   5.144   3.552 -0.0743 -0.3389  0.2407
11362SOL     OW35526   0.159   2.846   8.793 -0.1828 -0.0815 -0.7279
11362SOL    HW135527   0.102   2.852   8.869  0.0277 -0.1781 -0.5613
11362SOL    HW235528   0.100   2.831   8.719 -0.4733  0.9938 -0.7300
11363SOL     OW35529   2.310   0.048  12.358  0.0575 -0.0331 -0.7827
11363SOL    HW135530   2.369  -0.023  12.332 -0.2022 -0.3800 -0.4513
11363SOL    HW235531   2.246   0.005  12.416  0.9217  0.7915  0.8590
11364SOL     OW35532   7.720   1.256  12.358  0.0029 -0.6384  0.2748
11364SOL    HW135533   7.699   1.166  12.385 -1.6443 -1.0614 -2.1383
11364SOL    HW235534   7.733   1.250  12.264  0.4918  1.5856  0.1610
11365SOL     OW35535   0.409   7.789   5.041 -0.7517  0.3545  0.1083
11365SOL    HW135536   0.490   7.840   5.036 -0.5010 -0.1100 -0.9659
11365SOL    HW235537   0.381   7.796   5.132  0.4205  0.6482  0.4613
11366SOL     OW35538   1.320   2.471   7.848  0.3850 -0.0066 -0.4463
11366SOL    HW135539   1.395   2.435   7.894  0.2545 -0.7017 -0.7606
11366SOL    HW235540   1.271   2.519   7.915  0.2520 -0.9141  0.1226
11367SOL     OW35541   4.847   2.348   9.117 -0.3962  0.4445 -0.0032
11367SOL    HW135542   4.839   2.340   9.212  0.4475  2.4538  0.2908
11367SOL    HW235543   4.795   2.276   9.083  1.1460 -1.8100  1.9839
11368SOL     OW35544   6.054   5.826   5.818 -0.0488 -0.0334  0.2007
11368SOL    HW135545   6.126   5.819   5.881  1.6439 -1.2677 -1.7358
11368SOL    HW235546   5.993   5.888   5.858  1.8265  0.6615  2.1900
11369SOL     OW35547   4.809   5.017   3.940 -0.2752 -0.1252 -0.2254
11369SOL    HW135548   4.767   5.090   3.895 -1.8487 -1.1569 -0.5019
11369SOL    HW235549   4.816   5.047   4.031  2.2760  1.6847 -0.9268
11370SOL     OW35550   0.123   4.638   5.684  0.4615  0.2385  0.9071
11370SOL    HW135551   0.030   4.632   5.664  0.3021 -0.1890  1.7485
11370SOL    HW235552   0.165   4.655   5.599 -0.3909  0.6198  0.5548
11371SOL     OW35553   4.737   0.191   0.884  0.3470  0.5631 -0.1225
11371SOL    HW135554   4.821   0.166   0.922  1.2115 -1.0547 -2.7967
11371SOL    HW235555   4.713   0.116   0.829 -1.4129  2.1683 -1.6780
11372SOL     OW35556   3.422   4.693   1.180 -0.2833  0.3047  0.3059
11372SOL    HW135557   3.367   4.770   1.194  0.0272  0.4585  0.7124
11372SOL    HW235558   3.441   4.693   1.087 -2.4297 -0.7375 -0.1977
11373SOL     OW35559   3.359   0.616   2.587  0.3461 -0.4458  0.1388
11373SOL    HW135560   3.454   0.611   2.576  0.5375 -1.6642  1.9105
11373SOL    HW235561   3.346   0.614   2.682 -1.4975 -2.1169 -0.0785
11374SOL     OW35562   0.147   1.311   6.484  0.1509 -0.3217  0.1156
11374SOL    HW135563   0.160   1.371   6.557  0.5277 -0.0129 -0.2003
11374SOL    HW235564   0.202   1.235   6.504  2.0892  0.7260 -0.9301
11375SOL     OW35565   6.501   0.438   2.516 -0.1004  0.1591  0.3342
11375SOL    HW135566   6.488   0.372   2.449  0.2690  0.0343  0.3799
11375SOL    HW235567   6.565   0.398   2.576 -1.0871 -0.0917  1.2417
11376SOL     OW35568   3.886   2.691   5.916  0.1775  0.1581 -0.1427
11376SOL    HW135569   3.804   2.739   5.905 -0.3588 -0.5817  0.5002
11376SOL    HW235570   3.914   2.670   5.827 -0.6794 -0.1583 -0.3471
11377SOL     OW35571   0.590   7.754   3.646 -0.5902 -0.1019 -0.6293
11377SOL    HW135572   0.649   7.809   3.594 -0.2445  0.1922  0.0611
11377SOL    HW235573   0.521   7.813   3.675  0.2396  0.1804  0.8285
11378SOL     OW35574   2.554   2.872   2.312  0.1015  0.1356  0.5360
11378SOL    HW135575   2.522   2.957   2.280 -0.9479 -0.2329  0.5539
11378SOL    HW235576   2.626   2.850   2.253  0.5035  1.1224  0.6399
11379SOL     OW35577   1.895   1.744   9.350 -0.4075  0.1772 -0.7972
11379SOL    HW135578   1.966   1.730   9.412  0.0057 -0.4973 -1.4094
11379SOL    HW235579   1.821   1.772   9.404 -0.2146 -0.9345  0.0656
11380SOL     OW35580   4.510   6.259   3.238  0.0277  0.6229  0.0130
11380SOL    HW135581   4.525   6.168   3.263 -2.7462 -0.1584 -0.8119
11380SOL    HW235582   4.578   6.278   3.173  1.3366 -0.4325  1.0239
11381SOL     OW35583   4.624   5.962  10.398  0.5468  0.2621 -0.0458
11381SOL    HW135584   4.696   5.898  10.395 -1.2344 -1.9600  1.2035
11381SOL    HW235585   4.554   5.916  10.445 -0.7351  3.3289  1.2788
11382SOL     OW35586   5.237   4.196   3.356 -0.1389  0.0345  0.5581
11382SOL    HW135587   5.256   4.235   3.441 -1.0485 -0.7032  1.1198
11382SOL    HW235588   5.151   4.231   3.332  0.1465  0.3018 -0.1034
11383SOL     OW35589   0.676   2.670   4.795 -0.1462 -0.2540  0.6240
11383SOL    HW135590   0.652   2.763   4.792 -0.5447 -0.3811 -0.7932
11383SOL    HW235591   0.771   2.670   4.780 -0.3047 -0.1209 -0.4594
11384SOL     OW35592   2.615   0.615   6.096 -0.6359  0.0193  0.4218
11384SOL    HW135593   2.614   0.645   6.187 -0.6506 -0.5464  0.6135
11384SOL    HW235594   2.563   0.679   6.048 -1.8691 -0.4793  1.0743
11385SOL     OW35595   1.161   5.913   5.143 -0.3219  0.0933  0.1973
11385SOL    HW135596   1.111   5.833   5.159  0.0646  0.0263  1.0982
11385SOL    HW235597   1.206   5.897   5.059 -2.1108  0.3211 -0.8506
11386SOL     OW35598   3.810   6.173   6.669  0.0893 -0.1506 -0.2470
11386SOL    HW135599   3.840   6.241   6.728 -2.9553  0.5845  0.6598
11386SOL    HW235600   3.758   6.115   6.724 -0.6940 -0.9133 -1.7291
11387SOL     OW35601   6.009   2.113   5.750 -0.1243 -0.0770 -0.1560
11387SOL    HW135602   5.930   2.090   5.799 -0.0554 -0.4518 -0.2198
11387SOL    HW235603   6.076   2.053   5.783  0.8752  2.0044  1.9129
11388SOL     OW35604   7.031   0.901   7.941 -0.6618 -0.0068 -0.2517
11388SOL    HW135605   7.118   0.877   7.974 -1.0177  0.3037  0.9498
11388SOL    HW235606   7.002   0.824   7.892 -0.4389 -0.7943  0.8181
11389SOL     OW35607   0.804   0.690   5.633  0.4185 -0.4932 -0.1111
11389SOL    HW135608   0.817   0.597   5.615 -1.0045 -0.9231  0.9513
11389SOL    HW235609   0.734   0.717   5.574  0.5778 -0.1818 -0.1618
11390SOL     OW35610   7.839   7.914   5.413  0.1169  0.2434  0.7306
11390SOL    HW135611   7.920   7.897   5.366 -0.0080 -1.3296  1.0079
11390SOL    HW235612   7.859   7.894   5.504 -0.7313 -0.8759  0.7046
11391SOL     OW35613   6.799   2.326   9.953 -0.0527  0.0153  0.3883
11391SOL    HW135614   6.879   2.315   9.902 -1.8523 -0.3466 -2.6177
11391SOL    HW235615   6.747   2.248   9.933 -2.8271  2.0960 -1.2065
11392SOL     OW35616   7.175   5.962   5.837 -0.2243  0.2098  0.2863
11392SOL    HW135617   7.160   6.056   5.826 -1.4730  0.4019  2.9041
11392SOL    HW235618   7.270   5.953   5.840 -0.0260  1.0872 -1.8632
11393SOL     OW35619   3.062   3.960   7.075  0.4013 -0.0731  0.2163
11393SOL    HW135620   3.006   3.958   6.998 -1.2880 -0.3759  1.3757
11393SOL    HW235621   3.091   4.051   7.081 -0.0273  0.1120 -0.3929
11394SOL     OW35622   0.628   3.877  12.023 -0.3571 -0.0207  0.3190
11394SOL    HW135623   0.723   3.866  12.018 -0.5338 -1.5366 -0.5051
11394SOL    HW235624   0.606   3.931  11.948 -0.2469 -0.5254 -0.0792
11395SOL     OW35625   7.966   1.672   5.158  0.1335  0.0899 -0.4662
11395SOL    HW135626   7.888   1.725   5.177  0.5804  0.5274  0.2167
11395SOL    HW235627   7.944   1.624   5.079 -0.8599  0.1470 -0.2359
11396SOL     OW35628   3.486   5.966   1.231 -0.1785  0.0085  0.0158
11396SOL    HW135629   3.548   5.896   1.212  0.6592  0.9066 -0.6610
11396SOL    HW235630   3.453   5.946   1.319  1.1456 -0.4403  0.4378
11397SOL     OW35631   1.778   4.983   7.759 -0.0201 -0.5460  0.4275
11397SOL    HW135632   1.856   4.952   7.713 -0.7601  0.0689 -1.3203
11397SOL    HW235633   1.778   4.934   7.841  2.3222 -0.3868  0.5974
11398SOL     OW35634   5.134   6.898  10.040  0.2619 -0.7163  0.7850
11398SOL    HW135635   5.157   6.935  10.126 -1.1393 -0.2758  0.9840
11398SOL    HW235636   5.089   6.817  10.060 -0.6216 -0.3041  0.4913
11399SOL     OW35637   6.892   2.493  12.016 -0.1393  0.3780 -0.0962
11399SOL    HW135638   6.832   2.553  12.060  0.3303  0.3891  0.5547
11399SOL    HW235639   6.874   2.504  11.923 -1.4568  0.0424  0.1012
11400SOL     OW35640   4.634   5.603   9.884 -1.0662 -0.3597 -0.1461
11400SOL    HW135641   4.632   5.526   9.828 -0.3676 -0.7696  0.3725
11400SOL    HW235642   4.544   5.636   9.884 -1.1026 -0.3961 -1.4258
11401SOL     OW35643   0.559   3.080   9.016  0.6396  0.5597  0.6919
11401SOL    HW135644   0.505   3.005   8.991 -1.4454  1.5217  2.0038
11401SOL    HW235645   0.579   3.065   9.109  1.0059  1.1354  0.7108
11402SOL     OW35646   0.887   3.390  10.449 -0.4857  0.1613  0.7731
11402SOL    HW135647   0.895   3.455  10.379  2.1141 -2.3745 -1.5846
11402SOL    HW235648   0.794   3.365  10.448 -0.3980 -0.6367 -2.8405
11403SOL     OW35649   0.681   1.965   3.109 -0.4877  0.1881  0.8537
11403SOL    HW135650   0.742   2.005   3.170  0.4987  0.5654 -0.3363
11403SOL    HW235651   0.659   1.881   3.148  1.1860 -0.1715  1.0906
11404SOL     OW35652   0.339   2.984   4.721  0.0480 -0.8639 -0.5058
11404SOL    HW135653   0.337   2.890   4.710 -1.6516 -0.7306 -1.5705
11404SOL    HW235654   0.250   3.008   4.748  0.0615  0.5741 -1.6132
11405SOL     OW35655   4.151   2.541  10.812 -0.2869 -0.1906 -0.0728
11405SOL    HW135656   4.138   2.500  10.727 -0.1038 -3.2083  1.2388
11405SOL    HW235657   4.135   2.472  10.876  1.1406  1.5015  2.3270
11406SOL     OW35658   1.790   4.361   0.063 -0.7957  0.0317 -0.2014
11406SOL    HW135659   1.696   4.374   0.058 -0.8437 -0.6178 -1.4707
11406SOL    HW235660   1.826   4.447   0.082 -1.4349  1.0542 -3.0632
11407SOL     OW35661   6.617   6.677   2.038  0.5564 -0.1797  0.6143
11407SOL    HW135662   6.561   6.600   2.047  1.4334 -0.6509  2.6405
11407SOL    HW235663   6.683   6.667   2.107  1.2522  1.9270  0.3354
11408SOL     OW35664   1.813   6.633   8.482  0.6112  0.3212  0.5751
11408SOL    HW135665   1.866   6.704   8.447  2.1084 -0.7719  0.5546
11408SOL    HW235666   1.818   6.563   8.416 -0.8070  0.1481  0.6070
11409SOL     OW35667   7.177   2.083  11.486  0.2162 -0.2734 -0.0775
11409SOL    HW135668   7.163   1.988  11.479  0.9460 -0.4024  0.0706
11409SOL    HW235669   7.162   2.102  11.579  1.7819 -0.5666  0.2747
11410SOL     OW35670   0.564   5.176   4.608  0.4350  0.1465 -0.0427
11410SOL    HW135671   0.503   5.128   4.664  0.9497 -1.2419 -0.6163
11410SOL    HW235672   0.548   5.142   4.520  0.3996  1.4928 -0.5837
11411SOL     OW35673   5.959   4.344  11.938 -0.3050 -0.1619 -0.1026
11411SOL    HW135674   5.883   4.321  11.991  0.5037  2.1925  2.2855
11411SOL    HW235675   5.924   4.355  11.849 -2.9126  1.4775  1.0218
11412SOL     OW35676   3.561   4.681   4.073 -0.1377  0.2658 -0.2736
11412SOL    HW135677   3.602   4.765   4.053 -0.7615  0.3067 -1.5021
11412SOL    HW235678   3.484   4.703   4.124 -0.4817  0.4798 -0.8759
11413SOL     OW35679   5.488   3.069   4.413  0.8686  0.4227  0.0043
11413SOL    HW135680   5.407   3.120   4.413  1.1500  0.9207 -1.6289
11413SOL    HW235681   5.501   3.044   4.505 -1.5517 -0.3693  0.1933
11414SOL     OW35682   7.327   6.042   4.276  0.1744  0.2379 -0.1417
11414SOL    HW135683   7.367   5.955   4.275  0.2583  0.2478 -2.3640
11414SOL    HW235684   7.233   6.025   4.278  0.1930  0.0978 -0.4420
11415SOL     OW35685   2.965   1.903   5.546 -0.6497  0.0328 -0.1491
11415SOL    HW135686   3.017   1.823   5.555  0.9009  0.9467 -0.7419
11415SOL    HW235687   2.995   1.959   5.618 -1.6501  0.1431  0.1978
11416SOL     OW35688   7.601   3.443   4.569 -0.4003  0.5435  0.0123
11416SOL    HW135689   7.652   3.392   4.506  1.7030  1.9712  0.4639
11416SOL    HW235690   7.549   3.503   4.515  0.0035  0.5186 -0.4015
11417SOL     OW35691   5.306   4.183   1.367 -0.2451  0.1849 -0.4017
11417SOL    HW135692   5.238   4.214   1.307 -0.6385  0.9650  0.4200
11417SOL    HW235693   5.280   4.218   1.453  1.0294  0.2394 -0.0200
11418SOL     OW35694   2.910   7.694   4.151  0.5428 -0.0633  0.5370
11418SOL    HW135695   2.882   7.719   4.239 -0.2511 -1.0365  0.5735
11418SOL    HW235696   2.939   7.603   4.160  1.7235  0.2538  0.0571
11419SOL     OW35697   5.676   2.734   3.812  0.5229 -0.0700  0.3078
11419SOL    HW135698   5.739   2.779   3.869  0.3678 -1.1352  1.3660
11419SOL    HW235699   5.728   2.704   3.738  1.1389 -0.3788  0.8560
11420SOL     OW35700   0.005   2.063   1.799  0.1128  0.0072  0.2295
11420SOL    HW135701   0.023   2.156   1.790 -2.2303  0.3740 -1.7214
11420SOL    HW235702   0.059   2.022   1.731 -0.6382  0.2410 -0.5230
11421SOL     OW35703   7.428   3.464   9.872 -0.5627  0.4630 -0.1641
11421SOL    HW135704   7.429   3.559   9.864 -0.0103  0.5791  1.0833
11421SOL    HW235705   7.419   3.432   9.782  0.4517  1.6712 -0.7119
11422SOL     OW35706   0.883   1.072   2.440 -0.5539 -0.0553 -0.4774
11422SOL    HW135707   0.937   1.142   2.402 -1.6044  1.0264 -0.0651
11422SOL    HW235708   0.922   1.055   2.526 -0.0251 -0.2947 -0.7650
11423SOL     OW35709   3.026   5.013  11.041  0.3361  0.1271  0.2849
11423SOL    HW135710   2.974   5.011  11.121 -0.2821 -0.2191 -0.1137
11423SOL    HW235711   3.015   5.103  11.008 -2.0113 -0.5628 -1.0468
11424SOL     OW35712   6.702   4.517   7.350  0.3849  0.7150 -0.0296
11424SOL    HW135713   6.797   4.507   7.359  0.2710  0.6402  1.2891
11424SOL    HW235714   6.676   4.447   7.291  1.1829  0.9203 -0.6428
11425SOL     OW35715   1.909   5.046   5.734 -0.1962  0.7334 -0.5084
11425SOL    HW135716   1.852   5.007   5.668  1.2507 -1.5742 -0.4756
11425SOL    HW235717   1.856   5.048   5.814  0.3460 -3.6501  0.1668
11426SOL     OW35718   6.071   5.580   3.878  0.3654  0.0103  0.2041
11426SOL    HW135719   6.076   5.628   3.960  0.6053 -0.2696  0.3565
11426SOL    HW235720   6.130   5.627   3.819  1.5472 -0.7880  0.7146
11427SOL     OW35721   2.082   1.703   5.101  0.7221  0.0819 -0.0309
11427SOL    HW135722   2.117   1.780   5.145  0.5295 -0.0835  0.4250
11427SOL    HW235723   2.158   1.659   5.064  0.9750 -0.1478  0.7404
11428SOL     OW35724   1.248   7.326   3.549  0.1067 -0.2759  0.1804
11428SOL    HW135725   1.211   7.259   3.492 -2.5899 -0.8002  2.3077
11428SOL    HW235726   1.199   7.317   3.631  2.9323  1.2049  2.1890
11429SOL     OW35727   4.030   1.133   8.455 -0.2928 -0.4431  0.7579
11429SOL    HW135728   4.009   1.162   8.367 -1.7470  0.8136  1.4637
11429SOL    HW235729   4.086   1.057   8.443 -0.3906 -0.2468 -1.2331
11430SOL     OW35730   5.869   7.017  11.008  0.1979  0.4163  0.1608
11430SOL    HW135731   5.830   7.081  11.066 -0.7526  0.2571 -0.2920
11430SOL    HW235732   5.830   7.034  10.922  1.3922  0.4930 -0.3984
11431SOL     OW35733   7.905   1.378   0.596  0.0662 -0.2611 -0.1833
11431SOL    HW135734   7.932   1.387   0.504  0.1703  0.7610 -0.0651
11431SOL    HW235735   7.837   1.445   0.607  0.3124 -0.1382  0.5835
11432SOL     OW35736   5.093   6.935   0.134  0.1458  0.4610  0.3693
11432SOL    HW135737   5.100   7.005   0.199  1.4366 -0.9233  1.8198
11432SOL    HW235738   5.177   6.937   0.088  0.9323 -1.1728  1.6181
11433SOL     OW35739   1.321   3.108   9.741  0.4172 -0.4108 -0.3886
11433SOL    HW135740   1.367   3.163   9.804  0.6665 -0.4911 -0.4976
11433SOL    HW235741   1.325   3.158   9.659  0.2898 -0.4079 -0.3942
11434SOL     OW35742   2.513   4.292   2.368  0.6528 -0.4162 -0.5822
11434SOL    HW135743   2.554   4.378   2.377 -1.0614  0.5343 -1.3353
11434SOL    HW235744   2.481   4.272   2.455  1.9792 -0.8145 -0.1620
11435SOL     OW35745   2.516   0.197   8.319  0.4325  0.4071 -0.0970
11435SOL    HW135746   2.492   0.138   8.391  1.3622 -0.4094 -0.4346
11435SOL    HW235747   2.437   0.201   8.265  0.2405 -0.2424  0.1272
11436SOL     OW35748   4.915   3.300   5.602 -0.0111  0.3535 -0.5742
11436SOL    HW135749   4.845   3.348   5.558 -1.9569 -1.4342  0.3949
11436SOL    HW235750   4.925   3.344   5.687 -0.2549  0.3454 -0.5419
11437SOL     OW35751   5.570   1.627  11.500  0.5462  0.3263  0.3683
11437SOL    HW135752   5.601   1.555  11.445  1.5005  0.8572  0.2010
11437SOL    HW235753   5.617   1.704  11.469  1.2934  0.6119  2.0765
11438SOL     OW35754   4.748   0.954   9.396 -0.3630 -0.5459 -0.1093
11438SOL    HW135755   4.767   1.044   9.424  1.2266 -0.5193 -1.1626
11438SOL    HW235756   4.798   0.899   9.457 -1.3681 -0.7353  0.5617
11439SOL     OW35757   4.756   0.089   6.957  0.1508 -0.3482 -0.2494
11439SOL    HW135758   4.667   0.083   6.923  0.1292  0.7129 -0.3988
11439SOL    HW235759   4.795   0.162   6.909  1.3647 -1.2912 -0.7719
11440SOL     OW35760   0.045   2.683   5.597 -0.0029  0.5640 -0.0518
11440SOL    HW135761   0.068   2.616   5.662 -0.7357 -1.1756 -1.4808
11440SOL    HW235762  -0.040   2.654   5.563  1.5115 -0.2043 -3.6989
11441SOL     OW35763   6.154   4.605   4.584 -0.4110 -0.0115 -0.2209
11441SOL    HW135764   6.077   4.553   4.561 -0.8728  1.5251 -2.4935
11441SOL    HW235765   6.192   4.559   4.659 -1.3468 -2.9907 -1.4115
11442SOL     OW35766   5.017   4.200   9.769  0.0499  0.3260  0.4125
11442SOL    HW135767   5.066   4.191   9.687 -0.2564  2.3599 -0.0445
11442SOL    HW235768   5.084   4.194   9.838  0.2076 -2.2701  0.1405
11443SOL     OW35769   4.260   1.637  11.740 -0.3380  0.0513 -0.0653
11443SOL    HW135770   4.171   1.608  11.718 -0.7141  1.3903 -0.4602
11443SOL    HW235771   4.279   1.705  11.674  0.1542  1.2298  1.2382
11444SOL     OW35772   5.773   7.776   1.921 -0.1492  0.6988 -0.3263
11444SOL    HW135773   5.822   7.850   1.887 -1.6443  1.1330 -1.6324
11444SOL    HW235774   5.832   7.736   1.986  1.3615  1.9716 -0.8547
11445SOL     OW35775   2.534   5.955  11.286  0.1303  0.3332  0.1125
11445SOL    HW135776   2.587   5.876  11.294 -0.3027 -0.0049 -0.2699
11445SOL    HW235777   2.489   5.962  11.371 -0.3445 -0.2215 -0.0797
11446SOL     OW35778   4.792   7.067   2.046  0.1718 -0.1708 -0.5589
11446SOL    HW135779   4.712   7.117   2.064  0.8383  1.3140 -1.5102
11446SOL    HW235780   4.805   7.077   1.952  1.4167 -0.5028 -0.4299
11447SOL     OW35781   3.988   6.922  10.190  0.1399 -0.0794 -0.1233
11447SOL    HW135782   4.071   6.943  10.233  0.9494 -0.9450 -1.1968
11447SOL    HW235783   3.936   6.878  10.257  1.1984 -0.9876  0.1246
11448SOL     OW35784   0.513   5.246   2.998 -0.3970  0.0056 -0.2825
11448SOL    HW135785   0.446   5.218   3.061 -2.5310  1.7888 -1.5939
11448SOL    HW235786   0.514   5.176   2.932 -2.4812  0.8137 -1.2640
11449SOL     OW35787   2.924   0.063  11.841  0.1844 -0.3414 -0.8379
11449SOL    HW135788   2.952   0.011  11.917 -2.0063 -0.0166  0.2605
11449SOL    HW235789   2.964   0.149  11.855  0.5527 -0.5532 -0.5634
11450SOL     OW35790   4.413   1.751   7.559  0.5061 -0.0360 -0.2576
11450SOL    HW135791   4.370   1.686   7.504  1.5663 -0.1033 -1.0545
11450SOL    HW235792   4.466   1.700   7.620  0.7895  0.0684 -0.4149
11451SOL     OW35793   4.371   3.546   9.888 -0.4627 -0.2119 -0.1062
11451SOL    HW135794   4.378   3.624   9.833 -0.5984 -0.4652 -0.4904
11451SOL    HW235795   4.458   3.535   9.926 -0.5668  0.3875  0.3142
11452SOL     OW35796   6.375   0.922   6.581  0.2773 -0.7261 -0.5469
11452SOL    HW135797   6.351   0.906   6.489  2.0370 -1.2204 -0.9689
11452SOL    HW235798   6.335   1.006   6.602 -0.0082 -0.5077 -1.8483
11453SOL     OW35799   4.191   3.143   0.170 -0.2850  0.5634 -0.1195
11453SOL    HW135800   4.186   3.195   0.090 -1.4620 -0.8762 -1.0314
11453SOL    HW235801   4.134   3.068   0.154  1.9989 -1.4949  0.7628
11454SOL     OW35802   4.999   7.591   1.696  0.1686  0.4070 -0.1356
11454SOL    HW135803   5.026   7.523   1.757 -0.6469 -1.0357 -1.2956
11454SOL    HW235804   4.915   7.560   1.662 -0.6118  2.3914 -0.1446
11455SOL     OW35805   7.452   2.134   5.261  0.4656  0.0097  0.2150
11455SOL    HW135806   7.503   2.082   5.323  1.7604  0.3388 -0.5456
11455SOL    HW235807   7.516   2.191   5.219 -0.7278  1.3865  0.1682
11456SOL     OW35808   5.706   3.812   6.780  0.1132 -0.1808 -0.6292
11456SOL    HW135809   5.616   3.817   6.811  0.1988  0.3541 -0.4469
11456SOL    HW235810   5.756   3.782   6.855  0.2319  0.5225 -0.4176
11457SOL     OW35811   7.376   0.973   4.076 -0.4699  0.0301 -0.4109
11457SOL    HW135812   7.367   1.055   4.028 -2.3815  0.2916  0.3177
11457SOL    HW235813   7.357   0.905   4.011 -0.7481  0.2577 -0.5655
11458SOL     OW35814   4.120   2.628   4.559  0.1853 -0.2111  0.6540
11458SOL    HW135815   4.109   2.603   4.651  1.0521 -0.9481  0.5642
11458SOL    HW235816   4.074   2.561   4.510 -0.3875  0.2532  0.5415
11459SOL     OW35817   4.346   5.857   0.158 -0.1743  0.3350  0.2444
11459SOL    HW135818   4.417   5.807   0.117  0.0026  0.7302  0.0665
11459SOL    HW235819   4.306   5.906   0.086  0.0799  0.9627  0.5280
11460SOL     OW35820   6.654   6.579   9.212  0.0929  0.4075  0.6719
11460SOL    HW135821   6.669   6.674   9.210 -0.4859  0.4937 -0.1321
11460SOL    HW235822   6.653   6.553   9.120 -0.3635 -0.2786  0.8585
11461SOL     OW35823   7.959   4.201   8.414  0.4490  0.2518  0.0381
11461SOL    HW135824   7.952   4.295   8.397 -0.4532  0.3846  1.0026
11461SOL    HW235825   8.040   4.191   8.464 -0.0771  0.7069  1.0139
11462SOL     OW35826   6.139   2.115   7.827  0.4263 -0.0268  0.3254
11462SOL    HW135827   6.172   2.073   7.747 -1.2027 -0.8610  0.0357
11462SOL    HW235828   6.115   2.042   7.884 -0.1732  0.5398  0.8196
11463SOL     OW35829   3.499   2.924   4.437 -0.0174  0.1109 -0.7042
11463SOL    HW135830   3.538   2.851   4.485  0.6192  1.7819  1.5084
11463SOL    HW235831   3.570   2.957   4.381  0.0883 -0.1689 -0.7334
11464SOL     OW35832   6.703   0.600   4.045 -0.0626 -0.6116 -0.3447
11464SOL    HW135833   6.673   0.580   4.133  1.5759 -1.5314  0.0545
11464SOL    HW235834   6.661   0.535   3.989 -1.9255  0.6075 -0.4502
11465SOL     OW35835   2.025   7.766  11.519  0.0158  0.3035 -0.0618
11465SOL    HW135836   2.012   7.732  11.431 -2.8990 -1.1671  0.7848
11465SOL    HW235837   2.094   7.712  11.557  0.4915  0.1981 -1.0611
11466SOL     OW35838   4.057   2.187   1.875  0.1012  0.1010  0.0691
11466SOL    HW135839   4.061   2.113   1.936  1.6530  0.6803  0.7235
11466SOL    HW235840   4.014   2.152   1.797  1.6509 -1.7664 -0.0112
11467SOL     OW35841   1.411   3.031   0.389  0.2525  0.4363  0.1314
11467SOL    HW135842   1.373   2.959   0.339  0.6769 -0.2427  0.7562
11467SOL    HW235843   1.377   3.110   0.347  0.0738 -0.1183 -0.7997
11468SOL     OW35844   0.078   5.799   0.048  0.0984  0.5176 -0.4793
11468SOL    HW135845   0.062   5.718   0.000  0.4028  0.4379 -0.4472
11468SOL    HW235846   0.139   5.848  -0.007  0.2657  0.5285 -0.2852
11469SOL     OW35847   6.660   0.890   3.976 -0.0831  0.3047 -0.7033
11469SOL    HW135848   6.748   0.855   3.992 -0.0484  1.6516  3.0557
11469SOL    HW235849   6.675   0.982   3.957 -0.6173  0.0217 -2.6876
11470SOL     OW35850   2.832   4.931   3.901 -0.6570 -0.1234 -0.0305
11470SOL    HW135851   2.781   4.947   3.822  0.4505 -0.4627 -0.8419
11470SOL    HW235852   2.910   4.884   3.871 -0.1763 -0.2036  1.2524
11471SOL     OW35853   2.039   0.671   5.941  0.3442 -0.0437  0.7945
11471SOL    HW135854   1.971   0.686   6.006  0.5319 -0.0905  1.0041
11471SOL    HW235855   2.121   0.690   5.987  0.3970  1.9564  0.0090
11472SOL     OW35856   7.169   4.245   4.712  0.0322 -0.0426  0.1220
11472SOL    HW135857   7.092   4.302   4.721 -0.6226 -0.6466 -1.2952
11472SOL    HW235858   7.231   4.296   4.661  0.1183  0.0319  0.3026
11473SOL     OW35859   4.671   4.645   9.546  0.0620 -0.1004 -0.3715
11473SOL    HW135860   4.733   4.605   9.607  0.0322  0.4204  0.0129
11473SOL    HW235861   4.598   4.673   9.600 -0.3169 -0.3247 -0.7633
11474SOL     OW35862   2.433   5.602  10.798  0.1428 -0.6147  0.7369
11474SOL    HW135863   2.440   5.632  10.888 -0.3918 -0.4413  0.7266
11474SOL    HW235864   2.381   5.670  10.754  0.0103 -0.9232  0.4089
11475SOL     OW35865   7.028   1.634   8.359  0.3795  0.9029 -0.1050
11475SOL    HW135866   6.958   1.568   8.357 -0.6952  2.0347 -0.8140
11475SOL    HW235867   6.993   1.705   8.411  0.9875  1.5207 -0.5187
11476SOL     OW35868   1.592   2.728   5.323 -0.3350  0.0230  0.1304
11476SOL    HW135869   1.600   2.794   5.254 -0.6415 -1.0132 -0.9198
11476SOL    HW235870   1.663   2.666   5.305  0.5743  0.5439  1.6922
11477SOL     OW35871   2.944   6.790   0.630 -0.5115  0.3509  0.1101
11477SOL    HW135872   2.958   6.798   0.725 -1.6143 -0.2834  0.3459
11477SOL    HW235873   2.884   6.862   0.609 -0.4249  0.3701 -0.0704
11478SOL     OW35874   7.629   0.700  10.210 -0.0999 -0.1166  0.5504
11478SOL    HW135875   7.665   0.788  10.207  0.0202 -0.1600  0.7708
11478SOL    HW235876   7.655   0.665  10.295  0.0115 -0.4328  0.3899
11479SOL     OW35877   1.456   3.738  10.986 -0.4606  0.0006 -0.4176
11479SOL    HW135878   1.391   3.807  11.001 -0.7046 -0.1179 -0.9162
11479SOL    HW235879   1.404   3.657  10.985 -0.2798 -0.1112 -0.6381
11480SOL     OW35880   0.319   2.483   8.054  1.2670 -0.3116  0.0598
11480SOL    HW135881   0.342   2.547   8.121 -0.7331  2.1997 -1.4505
11480SOL    HW235882   0.227   2.464   8.069  0.9323 -0.1473 -1.5801
11481SOL     OW35883   3.849   7.977  12.122  0.5486 -0.0343 -0.1424
11481SOL    HW135884   3.865   7.920  12.197  4.2305 -2.0195 -2.1634
11481SOL    HW235885   3.838   7.916  12.048  2.3142  1.7823 -2.0256
11482SOL     OW35886   4.564   2.825   8.410 -0.3715 -0.2125 -0.3587
11482SOL    HW135887   4.645   2.839   8.362 -1.1409  0.5070 -1.4926
11482SOL    HW235888   4.561   2.896   8.474  0.6093 -1.1185  0.7249
11483SOL     OW35889   6.265   6.012   8.193 -0.2630  0.3323  0.1678
11483SOL    HW135890   6.325   6.078   8.227 -1.0488  2.0008 -1.4761
11483SOL    HW235891   6.321   5.945   8.154  0.5487  0.0586  1.7598
11484SOL     OW35892   4.581   1.598  10.673  0.4182  0.7621  0.3711
11484SOL    HW135893   4.492   1.573  10.699  0.3227  0.6094 -0.0966
11484SOL    HW235894   4.572   1.685  10.635  0.2583  0.2245 -0.8585
11485SOL     OW35895   1.001   2.914   9.116 -0.2221 -0.1605 -0.2509
11485SOL    HW135896   1.010   2.818   9.117 -1.1484 -0.2547  0.5906
11485SOL    HW235897   0.939   2.931   9.046 -1.2516 -0.3220  0.5861
11486SOL     OW35898   0.891   4.514   2.021  0.0892 -0.0133  0.0258
11486SOL    HW135899   0.907   4.606   2.046  2.0390 -0.2140 -0.2895
11486SOL    HW235900   0.976   4.484   1.988 -0.7599 -1.6797 -0.7224
11487SOL     OW35901   1.919   3.765   2.930  0.8212  0.1553  0.2900
11487SOL    HW135902   1.944   3.801   2.845 -1.0454 -1.5791 -1.0948
11487SOL    HW235903   1.851   3.824   2.962  0.2056 -0.1967 -0.3372
11488SOL     OW35904   3.573   5.457   9.263 -0.1811  0.1856 -0.3645
11488SOL    HW135905   3.661   5.453   9.300  0.1181  2.1003 -0.7675
11488SOL    HW235906   3.516   5.472   9.339  0.2334  2.2770 -0.4173
11489SOL     OW35907   4.339   2.537   2.895 -0.0902  0.2799 -0.3329
11489SOL    HW135908   4.312   2.504   2.810 -0.1685 -1.4280  0.3132
11489SOL    HW235909   4.337   2.460   2.952 -0.1212  1.3911  1.2300
11490SOL     OW35910   0.281   0.188   1.475  0.1360  0.1562  0.0658
11490SOL    HW135911   0.328   0.133   1.412  0.7616 -0.0297  0.6775
11490SOL    HW235912   0.243   0.125   1.537 -0.1083  0.3582  0.1228
11491SOL     OW35913   6.742   1.644   4.982  0.5477  0.4276  0.2058
11491SOL    HW135914   6.648   1.664   4.983  0.2317 -0.9452  0.9757
11491SOL    HW235915   6.750   1.564   5.033  2.0869  0.2259 -0.2895
11492SOL     OW35916   7.406   3.122   6.518 -0.2971 -0.2955  0.1732
11492SOL    HW135917   7.391   3.054   6.452  1.5051 -0.7351  0.1703
11492SOL    HW235918   7.402   3.075   6.602  0.7870 -0.3946  0.1795
11493SOL     OW35919   5.313   7.618   9.971 -0.0336  0.3342  0.2735
11493SOL    HW135920   5.298   7.673   9.895 -0.6789  2.7047  1.9893
11493SOL    HW235921   5.225   7.594  10.002  0.2075 -0.3706  0.4494
11494SOL     OW35922   4.173   2.805  11.512 -0.1329  0.4412  0.5645
11494SOL    HW135923   4.131   2.745  11.574  1.1877 -1.2899 -0.1277
11494SOL    HW235924   4.261   2.820  11.549  0.3220  0.1672 -0.3812
11495SOL     OW35925   1.487   2.745   5.914  0.0933 -0.4275  0.1708
11495SOL    HW135926   1.413   2.780   5.963  0.5544  2.7695 -1.1045
11495SOL    HW235927   1.477   2.650   5.918 -2.9046 -0.1626  1.7145
11496SOL     OW35928   0.907   3.318  11.952  0.1145 -0.0891 -0.2228
11496SOL    HW135929   0.833   3.356  11.905  0.3916 -1.5227 -1.9546
11496SOL    HW235930   0.874   3.233  11.983  0.4084  0.1811  0.8328
11497SOL     OW35931   5.010   6.726   8.318  0.1168 -0.1459 -0.4971
11497SOL    HW135932   5.046   6.814   8.329  0.1350 -0.2780  0.6434
11497SOL    HW235933   4.917   6.741   8.299 -0.5301  0.1299  2.4085
11498SOL     OW35934   4.874   0.643   5.710 -0.0722 -0.7510 -0.1369
11498SOL    HW135935   4.865   0.654   5.615 -0.0622  2.0767  0.1262
11498SOL    HW235936   4.968   0.634   5.724  0.0136 -0.1899 -0.3249
11499SOL     OW35937   5.564   2.243   3.227  0.1241  0.3897  0.0035
11499SOL    HW135938   5.484   2.208   3.188 -0.4447 -0.3772  1.7639
11499SOL    HW235939   5.548   2.338   3.233  0.0556  0.4671 -1.1860
11500SOL     OW35940   7.723   7.256   3.339  0.4772 -0.1648 -0.1696
11500SOL    HW135941   7.770   7.315   3.281 -0.0812 -0.4884 -0.9532
11500SOL    HW235942   7.746   7.168   3.308  0.5613 -0.3507  0.4009
11501SOL     OW35943   1.954   7.786   1.415  0.3847  0.5096 -0.3127
11501SOL    HW135944   1.937   7.692   1.420 -1.7564  0.8168 -0.8096
11501SOL    HW235945   1.900   7.817   1.343  0.6314  2.2213  0.1801
11502SOL     OW35946   4.451   1.407   1.615  0.0735 -0.1948 -0.5103
11502SOL    HW135947   4.391   1.340   1.649  0.7315 -0.7225 -0.3784
11502SOL    HW235948   4.406   1.490   1.632  1.5552 -0.0556  4.5228
11503SOL     OW35949   7.099   5.650   4.740 -0.2491  0.7844 -0.1390
11503SOL    HW135950   7.078   5.719   4.677  0.0497  0.8356 -0.1824
11503SOL    HW235951   7.109   5.697   4.823  0.7470  0.9026 -0.3162
11504SOL     OW35952   7.243   3.326   8.977  0.3204  0.1126 -0.2747
11504SOL    HW135953   7.311   3.263   8.953 -0.8690 -0.7294 -1.6200
11504SOL    HW235954   7.220   3.369   8.894 -1.0740  0.0581  0.0646
11505SOL     OW35955   1.620   4.535   3.766 -0.1068 -0.2453 -0.0501
11505SOL    HW135956   1.612   4.480   3.688  0.5428  0.8447 -0.9267
11505SOL    HW235957   1.553   4.502   3.826 -0.9114 -0.8473 -1.2326
11506SOL     OW35958   4.544   4.641   9.077  0.1274 -0.2300  0.2082
11506SOL    HW135959   4.580   4.674   9.160 -1.1565 -0.6626  0.9773
11506SOL    HW235960   4.455   4.676   9.075  0.7825  1.6153 -2.0989
11507SOL     OW35961   6.923   7.068   8.892 -0.1523  0.0969  0.1152
11507SOL    HW135962   6.871   6.994   8.923  0.2782 -1.0497 -1.7829
11507SOL    HW235963   6.951   7.112   8.972  0.1625 -2.1873  1.3452
11508SOL     OW35964   4.856   7.201   3.918  0.7704 -0.5433  0.0640
11508SOL    HW135965   4.773   7.210   3.871  1.0336 -0.3429 -0.3789
11508SOL    HW235966   4.876   7.107   3.914  0.8313 -0.5176 -0.3038
11509SOL     OW35967   1.026   4.481   9.067  0.1618  0.1255  0.9040
11509SOL    HW135968   1.032   4.482   9.162  1.4633  2.4664  0.8909
11509SOL    HW235969   0.937   4.511   9.048 -0.0328 -0.1472  1.3873
11510SOL     OW35970   1.957   6.704   9.181  0.1906 -0.1008  0.4343
11510SOL    HW135971   2.011   6.758   9.238 -0.3900 -0.3346  1.2272
11510SOL    HW235972   1.991   6.720   9.093 -0.3433  2.0025  0.5699
11511SOL     OW35973   7.075   1.236   8.358  0.8364 -0.4566 -0.3111
11511SOL    HW135974   7.048   1.177   8.428  3.4988  0.4352  1.6562
11511SOL    HW235975   7.162   1.204   8.332  0.2760 -0.2364 -2.6449
11512SOL     OW35976   0.969   4.189   9.826  0.1467  0.4150 -0.1153
11512SOL    HW135977   1.024   4.266   9.841  1.5464 -0.6655  0.5930
11512SOL    HW235978   1.012   4.119   9.877 -0.0663 -1.2595 -2.1180
11513SOL     OW35979   5.948   2.139   1.099  0.0845  0.1202  0.1017
11513SOL    HW135980   5.985   2.063   1.054 -1.4274 -1.6768  1.7139
11513SOL    HW235981   6.022   2.180   1.144  1.2294  0.6937 -2.1505
11514SOL     OW35982   0.089   7.889   2.705 -0.0277  0.1642 -0.3515
11514SOL    HW135983   0.071   7.800   2.675 -0.0778 -0.0420  0.2717
11514SOL    HW235984   0.060   7.890   2.796  1.0444  0.4748  0.0049
11515SOL     OW35985   3.033   2.035   5.010 -0.1730 -0.2771  0.3719
11515SOL    HW135986   2.985   2.110   5.044  1.0774 -0.0599  1.7651
11515SOL    HW235987   3.013   2.033   4.917  0.4439  2.3256  0.1070
11516SOL     OW35988   7.779   4.102   2.592  0.1615  0.4625  0.1750
11516SOL    HW135989   7.734   4.134   2.514 -0.0644  0.9345  0.4940
11516SOL    HW235990   7.722   4.033   2.627  0.0679  0.5207  0.1382
11517SOL     OW35991   4.323   6.774  10.062 -0.0507  0.1826 -0.3812
11517SOL    HW135992   4.254   6.836  10.040  0.4779  0.5671 -1.0126
11517SOL    HW235993   4.364   6.810  10.141 -0.2699  0.1935 -0.2708
11518SOL     OW35994   1.961   4.736  12.251 -1.0973 -0.4778  0.1340
11518SOL    HW135995   1.906   4.791  12.196 -0.0707  0.6779  0.2140
11518SOL    HW235996   2.045   4.782  12.254 -0.4677 -1.6317  0.8954
11519SOL     OW35997   1.643   2.032   7.329 -0.3669  0.4439 -0.1389
11519SOL    HW135998   1.642   2.127   7.340 -1.1911  0.2379  2.0159
11519SOL    HW235999   1.553   2.011   7.302 -0.3950  0.2134  0.1312
11520SOL     OW36000   6.813   1.564   4.384  0.1427 -0.3215 -0.0111
11520SOL    HW136001   6.830   1.494   4.321  0.4045 -0.1198 -0.1614
11520SOL    HW236002   6.899   1.593   4.412  0.0536  0.6306 -0.6970
11521SOL     OW36003   7.056   3.924   9.629  0.2493  0.1393 -0.2113
11521SOL    HW136004   7.087   3.872   9.703 -0.4054 -0.1402 -0.1226
11521SOL    HW236005   7.084   3.874   9.552  0.3639  0.0958 -0.1424
11522SOL     OW36006   6.852   6.033  11.449 -0.1190  0.1829 -0.6121
11522SOL    HW136007   6.845   5.963  11.513 -0.7411  0.9030  0.1177
11522SOL    HW236008   6.796   6.005  11.377 -0.5155  0.0188 -0.2406
11523SOL     OW36009   6.675   0.521   0.188 -0.2477 -0.6333  0.4644
11523SOL    HW136010   6.727   0.540   0.266 -1.7842 -0.1969  1.4254
11523SOL    HW236011   6.713   0.441   0.153  2.3515  0.7150 -0.0582
11524SOL     OW36012   3.217   5.989   2.266 -0.5016  0.2619  0.3602
11524SOL    HW136013   3.210   6.082   2.288 -0.3094 -0.0167  1.6385
11524SOL    HW236014   3.277   5.953   2.331 -2.1638 -1.1689  1.1729
11525SOL     OW36015   2.895   0.052  10.700  0.1778 -0.6613 -0.3452
11525SOL    HW136016   2.894  -0.033  10.744 -1.0280 -0.9636 -0.9250
11525SOL    HW236017   2.853   0.111  10.762  1.5946 -0.3274  0.3272
11526SOL     OW36018   0.044   0.532   6.865  0.3758  0.4323 -0.2348
11526SOL    HW136019  -0.023   0.473   6.831  0.9078  0.2242 -0.9368
11526SOL    HW236020   0.121   0.477   6.878 -0.5535 -0.2186  4.1515
11527SOL     OW36021   0.388   1.810   3.144  0.0648  0.4165  0.0561
11527SOL    HW136022   0.310   1.785   3.193 -1.1453 -2.2458 -2.8561
11527SOL    HW236023   0.361   1.888   3.095 -0.3274  0.3010  0.0804
11528SOL     OW36024   1.180   6.853   7.264  0.1665 -0.4718  0.0952
11528SOL    HW136025   1.168   6.836   7.357 -0.4210  0.7918  0.2724
11528SOL    HW236026   1.274   6.872   7.255  0.3728 -1.3369  0.2802
11529SOL     OW36027   6.364   3.483  11.747 -0.1007 -0.4805  0.3398
11529SOL    HW136028   6.304   3.421  11.706  0.2296 -0.2439 -0.5216
11529SOL    HW236029   6.308   3.555  11.776 -0.3339 -0.6260  0.2528
11530SOL     OW36030   5.613   2.657  10.989  0.4084  0.6268 -0.5770
11530SOL    HW136031   5.674   2.624  10.923 -1.6816 -0.7460 -1.9365
11530SOL    HW236032   5.607   2.751  10.972  0.6992  0.4591 -1.6656
11531SOL     OW36033   1.138   7.600   5.804  0.0429 -0.2858 -0.6164
11531SOL    HW136034   1.084   7.654   5.746  0.2673 -0.1113 -0.6634
11531SOL    HW236035   1.117   7.630   5.892 -0.6080 -0.8324 -0.5766
11532SOL     OW36036   2.415   4.299   8.095  0.1317  0.0350  0.4776
11532SOL    HW136037   2.452   4.219   8.060  0.2353  0.5702 -0.7170
11532SOL    HW236038   2.404   4.356   8.018 -0.7519  0.8365  1.1591
11533SOL     OW36039   3.696   3.630  11.991  0.2157 -0.0455 -0.1026
11533SOL    HW136040   3.702   3.702  12.053 -1.6554  1.9028 -2.0487
11533SOL    HW236041   3.787   3.614  11.963  0.7056  1.1880  0.7388
11534SOL     OW36042   2.554   5.282   8.638 -0.3451 -0.5315 -0.3323
11534SOL    HW136043   2.558   5.235   8.555  1.3586  2.1002 -1.9036
11534SOL    HW236044   2.618   5.239   8.694 -0.2861 -1.3009 -0.9795
11535SOL     OW36045   4.583   3.010   0.551  0.1946 -0.2001 -0.3919
11535SOL    HW136046   4.504   3.059   0.528 -0.3907 -0.4130  1.0469
11535SOL    HW236047   4.653   3.055   0.505 -0.7045  0.2554 -1.3582
11536SOL     OW36048   0.578   5.354  11.937 -0.0563  1.0381  0.2390
11536SOL    HW136049   0.579   5.322  12.027 -2.6390  1.0899  0.3618
11536SOL    HW236050   0.587   5.275  11.884 -1.2401  0.6643  0.5603
11537SOL     OW36051   5.459   2.366   7.289 -0.3779 -0.2809  0.4687
11537SOL    HW136052   5.481   2.373   7.196  1.6618 -0.9848  0.8265
11537SOL    HW236053   5.478   2.452   7.325 -0.0720 -0.3205  0.4100
11538SOL     OW36054   5.109   3.907   3.039 -0.0297 -0.8050  0.0741
11538SOL    HW136055   5.042   3.973   3.058  3.4689  2.6933  1.5561
11538SOL    HW236056   5.136   3.925   2.949 -0.4584 -1.7351 -0.2629
11539SOL     OW36057   5.441   2.482  12.231 -0.1548  0.0326  0.0452
11539SOL    HW136058   5.526   2.512  12.262 -0.0215 -0.6621  0.3499
11539SOL    HW236059   5.386   2.482  12.310 -0.1041 -0.7024  0.0826
11540SOL     OW36060   7.790   2.543   9.623  0.4429  0.0810  0.4389
11540SOL    HW136061   7.855   2.560   9.555  0.1591 -1.0299 -0.1452
11540SOL    HW236062   7.786   2.624   9.674  1.3672  0.5958 -0.2771
11541SOL     OW36063   3.771   1.171   6.512  0.8833  0.3816 -0.1857
11541SOL    HW136064   3.844   1.169   6.574  0.1869  0.0802  0.6539
11541SOL    HW236065   3.693   1.173   6.567  0.2397  0.0250 -1.0575
11542SOL     OW36066   4.986   0.383   7.400  0.3219  0.1316 -0.6133
11542SOL    HW136067   5.072   0.344   7.387  0.5128  0.7852 -1.3581
11542SOL    HW236068   4.944   0.326   7.464  0.7719 -1.0311 -1.3087
11543SOL     OW36069   2.022   3.057   5.950 -0.3122 -1.0849 -0.1536
11543SOL    HW136070   1.955   3.122   5.926  0.3446 -0.5739 -0.6472
11543SOL    HW236071   2.101   3.109   5.965  1.4447 -1.9796 -4.7593
11544SOL     OW36072   0.640   7.626  12.443 -0.4391 -0.3689 -0.3007
11544SOL    HW136073   0.725   7.586  12.461 -0.5128 -0.7409 -0.7596
11544SOL    HW236074   0.594   7.623  12.526 -0.3275 -0.9634 -0.2615
11545SOL     OW36075   3.616   2.795   7.506 -0.5036  0.4200 -0.3154
11545SOL    HW136076   3.553   2.741   7.553  0.7883 -1.7139 -0.8799
11545SOL    HW236077   3.584   2.798   7.416 -0.4585  0.4052 -0.3321
11546SOL     OW36078   0.216   0.082   8.687  0.5598 -0.5629  0.6168
11546SOL    HW136079   0.133   0.121   8.715 -0.9501 -2.6145 -0.6416
11546SOL    HW236080   0.229   0.114   8.598  1.6187  0.4065  1.0910
11547SOL     OW36081   6.343   2.256   5.699 -0.5712  0.2424 -0.0934
11547SOL    HW136082   6.343   2.170   5.658 -2.9257  0.3942 -0.5371
11547SOL    HW236083   6.296   2.244   5.782  1.0743  0.6674  0.9484
11548SOL     OW36084   7.865   7.905   0.330  0.6818 -0.0198  0.4125
11548SOL    HW136085   7.804   7.978   0.333  0.0169 -0.5959  1.0526
11548SOL    HW236086   7.821   7.838   0.277  1.1140 -0.1145  0.1643
11549SOL     OW36087   6.130   6.300   0.488 -0.5841 -0.2710  0.7329
11549SOL    HW136088   6.189   6.307   0.413  1.1125  0.6363  2.0687
11549SOL    HW236089   6.079   6.221   0.471 -0.2425 -0.0969 -1.3443
11550SOL     OW36090   2.699   3.317   9.058  0.4340 -0.9087  0.3232
11550SOL    HW136091   2.665   3.394   9.105  0.0309 -0.3791 -0.8136
11550SOL    HW236092   2.736   3.262   9.127 -0.1300 -0.1407  1.2691
11551SOL     OW36093   0.520   1.540   8.411 -0.4045 -0.1669 -0.4021
11551SOL    HW136094   0.538   1.468   8.351  1.4748  0.7154 -0.9954
11551SOL    HW236095   0.568   1.518   8.491 -0.3055  0.1470 -0.3734
11552SOL     OW36096   2.430   4.782   0.925  0.1701  0.6571 -0.3523
11552SOL    HW136097   2.484   4.715   0.966  0.5550  1.1650 -0.0140
11552SOL    HW236098   2.365   4.733   0.874  0.2956  0.0329  0.0793
11553SOL     OW36099   4.881   5.853  10.353  0.4040 -0.3271  0.0418
11553SOL    HW136100   4.921   5.929  10.311  2.7802 -1.9130 -0.8358
11553SOL    HW236101   4.945   5.827  10.420  0.1291 -2.0633 -0.3188
11554SOL     OW36102   2.892   0.353   1.468  0.0246  0.3742 -0.0603
11554SOL    HW136103   2.808   0.395   1.490 -0.6294 -1.0995  0.3983
11554SOL    HW236104   2.877   0.260   1.485  2.0093  0.1583  0.8169
11555SOL     OW36105   0.855   4.147   7.563  0.4258 -0.4306 -0.7001
11555SOL    HW136106   0.814   4.132   7.648  1.1515 -1.0741 -0.4583
11555SOL    HW236107   0.796   4.103   7.501 -0.2534  0.2838 -0.5673
11556SOL     OW36108   4.642   2.939   6.377  0.2662 -0.3529 -0.3678
11556SOL    HW136109   4.593   2.908   6.301 -1.2376 -0.0250  0.4339
11556SOL    HW236110   4.643   3.035   6.367 -0.2550 -0.2859  0.2166
11557SOL     OW36111   0.525   2.828  10.616 -0.2877  0.2152 -0.3196
11557SOL    HW136112   0.617   2.839  10.638 -0.3322  1.0732 -0.5573
11557SOL    HW236113   0.523   2.754  10.555  0.4006  1.0411 -1.3710
11558SOL     OW36114   0.673   4.969   7.660 -0.1127 -0.2303 -0.2391
11558SOL    HW136115   0.613   5.029   7.704 -0.6151 -0.4751 -0.5801
11558SOL    HW236116   0.734   5.025   7.613  1.7929  0.1451  2.4257
11559SOL     OW36117   7.423   6.482  12.158 -0.2511  0.0879  0.1781
11559SOL    HW136118   7.502   6.536  12.150 -0.5483  0.2936 -2.0350
11559SOL    HW236119   7.439   6.428  12.236  0.7819  2.1430  1.4656
11560SOL     OW36120   6.690   6.727   7.452  0.1239  0.1751 -0.1511
11560SOL    HW136121   6.775   6.771   7.442  0.6879 -0.4114  1.6168
11560SOL    HW236122   6.708   6.635   7.434 -0.4692  0.2440 -1.1642
11561SOL     OW36123   0.668   2.497  11.370  0.7642 -0.4326 -0.0309
11561SOL    HW136124   0.697   2.544  11.292 -0.1473  0.5245  0.1962
11561SOL    HW236125   0.660   2.406  11.341  0.2261 -0.0554 -1.1115
11562SOL     OW36126   4.494   2.778   3.011 -0.7531 -0.0048  0.0886
11562SOL    HW136127   4.473   2.812   2.924 -0.8354 -1.4540 -0.4808
11562SOL    HW236128   4.447   2.695   3.016  0.0140 -0.3908  1.1582
11563SOL     OW36129   7.674   6.663   8.251 -1.1402 -0.5728 -0.0570
11563SOL    HW136130   7.589   6.619   8.253 -1.6014  0.3016  0.1494
11563SOL    HW236131   7.677   6.712   8.333  0.0424 -1.4551  0.4512
11564SOL     OW36132   7.076   4.780   6.960  0.1325 -0.5104 -0.0924
11564SOL    HW136133   7.013   4.809   6.894 -1.0618 -4.9773 -1.2690
11564SOL    HW236134   7.160   4.782   6.914  0.2679  1.5820  0.1524
11565SOL     OW36135   1.320   3.210   2.448 -0.9235 -0.0224 -0.2874
11565SOL    HW136136   1.273   3.232   2.368 -1.1749 -1.2135 -0.4969
11565SOL    HW236137   1.311   3.287   2.505 -0.0623  1.1601 -1.6863
11566SOL     OW36138   3.262   0.005   3.582 -0.1154 -0.9709  0.0190
11566SOL    HW136139   3.323   0.027   3.511 -1.1922  1.1460 -0.3297
11566SOL    HW236140   3.191  -0.042   3.538 -0.3938 -0.3736 -0.1751
11567SOL     OW36141   3.468   6.612  10.668 -0.5734  0.0843  0.0123
11567SOL    HW136142   3.398   6.553  10.695 -0.1185 -0.4323  0.0703
11567SOL    HW236143   3.423   6.683  10.623 -1.2138  0.2197  0.8427
11568SOL     OW36144   5.633   3.075   7.443 -0.3833  0.2815  0.4588
11568SOL    HW136145   5.651   3.103   7.353 -1.0887  0.3426  0.3339
11568SOL    HW236146   5.539   3.089   7.454 -0.3329  0.0866  1.1415
11569SOL     OW36147   1.217   1.091   1.599  0.6664  0.1334  0.6457
11569SOL    HW136148   1.148   1.146   1.637 -0.0467 -1.9342  2.5172
11569SOL    HW236149   1.170   1.026   1.547  1.2866 -0.5693  0.9603
11570SOL     OW36150   3.724   7.740   3.871  0.5926 -0.5438 -0.1145
11570SOL    HW136151   3.735   7.657   3.826 -2.0710 -0.3940 -1.1536
11570SOL    HW236152   3.630   7.752   3.880  0.9177  1.5818  1.5340
11571SOL     OW36153   4.264   5.138   1.749  0.0546 -0.2680 -0.5447
11571SOL    HW136154   4.237   5.213   1.801 -0.0327  0.2222 -1.2785
11571SOL    HW236155   4.318   5.085   1.808 -1.5254 -0.6690  0.5793
11572SOL     OW36156   3.946   0.113   9.904  0.2358 -0.0119 -0.4583
11572SOL    HW136157   3.890   0.191   9.902 -1.1567 -0.9793 -0.3165
11572SOL    HW236158   4.013   0.130   9.838 -1.5957  0.1858 -2.3607
11573SOL     OW36159   3.927   2.554   0.128  0.0722 -0.2694 -0.0528
11573SOL    HW136160   3.840   2.584   0.103  1.0236  2.3571 -0.4765
11573SOL    HW236161   3.924   2.546   0.223 -0.9094 -1.3265 -0.1474
11574SOL     OW36162   1.351   6.365   4.450 -0.3969  0.4272 -0.3288
11574SOL    HW136163   1.416   6.428   4.481  1.7132 -1.9628  0.4117
11574SOL    HW236164   1.335   6.390   4.359 -0.4735  2.6336  0.2411
11575SOL     OW36165   7.937   4.127   4.154 -0.0410 -0.0940  0.2289
11575SOL    HW136166   7.951   4.112   4.247 -1.4913  2.7000  1.0111
11575SOL    HW236167   7.969   4.216   4.139 -2.2128  0.5149 -1.3084
11576SOL     OW36168   7.226   7.803   8.815 -0.5657  0.6332  0.4740
11576SOL    HW136169   7.238   7.715   8.779  0.8839  0.8504  0.3441
11576SOL    HW236170   7.313   7.828   8.847 -0.8496  2.1514  0.1742
11577SOL     OW36171   7.400   1.246   0.383  0.0337 -0.1624 -0.2050
11577SOL    HW136172   7.368   1.282   0.299  1.3816  1.3485 -0.1267
11577SOL    HW236173   7.493   1.230   0.368 -0.3534 -3.1287  0.0067
11578SOL     OW36174   2.432   6.625   1.036  0.2873  0.2214  0.0437
11578SOL    HW136175   2.448   6.545   0.986 -1.3089  0.7815 -1.4275
11578SOL    HW236176   2.341   6.648   1.017  0.7848  2.5423  0.2042
11579SOL     OW36177   2.525   0.357   2.008  0.3513  0.3163  0.5745
11579SOL    HW136178   2.436   0.335   2.036 -0.8184  0.4005 -2.6238
11579SOL    HW236179   2.514   0.433   1.950  2.3388 -0.3843 -0.8425
11580SOL     OW36180   3.228   2.233   3.595 -0.1648 -0.4503  0.2055
11580SOL    HW136181   3.320   2.257   3.603 -0.3411 -0.1128  1.5609
11580SOL    HW236182   3.209   2.184   3.676 -0.9024 -1.4710 -0.5518
11581SOL     OW36183   7.607   3.608   2.811  0.1597  0.1536  0.2563
11581SOL    HW136184   7.662   3.535   2.838  0.6352  0.5875  0.4908
11581SOL    HW236185   7.523   3.593   2.855  0.5955  0.3056  1.1808
11582SOL     OW36186   2.913   3.827   1.794  0.6224  0.7512  0.4266
11582SOL    HW136187   2.958   3.911   1.805  2.8727  0.0034 -1.9578
11582SOL    HW236188   2.983   3.765   1.774 -1.1249 -1.4118  0.6100
11583SOL     OW36189   0.921   2.078  11.413  0.2032  0.5360 -0.0675
11583SOL    HW136190   1.014   2.080  11.391  0.3833 -0.3465  0.5785
11583SOL    HW236191   0.876   2.064  11.330  0.7636 -1.0384 -0.1238
11584SOL     OW36192   0.883   5.459  10.877 -0.4642  0.2967 -0.0308
11584SOL    HW136193   0.870   5.543  10.921 -1.9737  0.3993 -0.6393
11584SOL    HW236194   0.825   5.399  10.922 -0.5645 -0.0455 -0.6028
11585SOL     OW36195   7.892   5.565   4.763  0.5904 -0.4428 -0.1788
11585SOL    HW136196   7.879   5.659   4.772 -1.7386 -0.7251 -0.0794
11585SOL    HW236197   7.982   5.550   4.791  0.9684  1.7260 -0.1054
11586SOL     OW36198   1.600   6.425  11.487 -0.3159  0.0829 -0.1005
11586SOL    HW136199   1.577   6.333  11.477  0.6118 -0.3292  1.2610
11586SOL    HW236200   1.616   6.436  11.581  1.8793  1.0542 -0.5169
11587SOL     OW36201   5.506   6.131  11.291  0.5377 -0.0336  0.2522
11587SOL    HW136202   5.502   6.214  11.339  0.4368 -0.3612  0.8171
11587SOL    HW236203   5.421   6.090  11.307  0.0964  0.2998 -1.0437
11588SOL     OW36204   4.653   1.106   8.578 -0.0821 -0.2397 -0.0013
11588SOL    HW136205   4.680   1.104   8.670  0.2316  1.3975 -0.0277
11588SOL    HW236206   4.624   1.196   8.564 -1.9900 -0.9607 -1.0018
11589SOL     OW36207   0.328   3.267   3.022  0.0062 -0.2811 -0.0833
11589SOL    HW136208   0.374   3.325   2.962 -1.0486  1.6673  0.8988
11589SOL    HW236209   0.252   3.236   2.973  1.0524 -1.6185 -0.9169
11590SOL     OW36210   6.310   7.242   8.428  0.5034 -0.5959 -0.2580
11590SOL    HW136211   6.401   7.226   8.405  0.3435 -0.9656 -0.6436
11590SOL    HW236212   6.294   7.185   8.503  0.3176 -1.2730 -0.7984
11591SOL     OW36213   5.624   3.950   3.441  0.2187  0.1333 -0.2842
11591SOL    HW136214   5.590   4.021   3.387 -0.2461 -0.0866 -0.2925
11591SOL    HW236215   5.546   3.913   3.483  0.1341 -1.8164 -2.0030
11592SOL     OW36216   0.007   6.879   8.457  0.2659 -0.0485 -0.6168
11592SOL    HW136217  -0.051   6.955   8.468  0.7834  0.2854 -0.1411
11592SOL    HW236218  -0.018   6.820   8.528 -1.0169 -0.9087 -1.7554
11593SOL     OW36219   0.136   0.557   5.652 -0.2106 -0.6980 -0.3172
11593SOL    HW136220   0.160   0.586   5.564 -0.3319  1.0003  0.1731
11593SOL    HW236221   0.216   0.570   5.704 -0.2055 -1.4809 -0.1192
11594SOL     OW36222   3.473   6.882   1.679 -0.0773  0.0682  0.0933
11594SOL    HW136223   3.529   6.885   1.601  0.2662 -1.5625  0.2371
11594SOL    HW236224   3.512   6.815   1.734 -1.0809  0.2624  1.0815
11595SOL     OW36225   0.372   4.513   9.678 -0.4469 -0.4660 -0.4853
11595SOL    HW136226   0.442   4.451   9.656  1.4480  1.5908 -0.6699
11595SOL    HW236227   0.344   4.488   9.766  1.3674 -0.6506  0.0731
11596SOL     OW36228   3.440   5.927   9.317  0.1526 -0.1560 -0.5154
11596SOL    HW136229   3.486   5.957   9.396  0.5293  2.4315 -1.6438
11596SOL    HW236230   3.347   5.931   9.340  0.2905 -1.9946  0.6031
11597SOL     OW36231   5.066   1.601   1.790 -0.0663 -0.2049 -0.3631
11597SOL    HW136232   5.113   1.563   1.864 -1.1972  0.5292  0.7781
11597SOL    HW236233   5.102   1.690   1.782 -0.4768 -0.0231 -0.2019
11598SOL     OW36234   3.731   7.601   4.742  0.2371  0.0393  0.0816
11598SOL    HW136235   3.674   7.651   4.801  1.5024  0.6527  0.8248
11598SOL    HW236236   3.713   7.638   4.655 -0.6166  0.0944  0.2670
11599SOL     OW36237   3.768   7.570  12.465 -0.1630 -0.2470 -0.7713
11599SOL    HW136238   3.687   7.520  12.452  0.1049 -0.2925 -2.5811
11599SOL    HW236239   3.739   7.662  12.469 -0.3818 -0.3254 -0.5453
11600SOL     OW36240   3.390   1.371   9.215 -0.2148  0.0947 -0.1775
11600SOL    HW136241   3.323   1.433   9.186  0.3062  0.6958 -0.1130
11600SOL    HW236242   3.392   1.381   9.310 -1.0599 -0.9879 -0.0334
11601SOL     OW36243   0.471   7.309  11.579 -0.3931  0.0261  0.4111
11601SOL    HW136244   0.389   7.259  11.575  0.3872 -1.2304 -0.4454
11601SOL    HW236245   0.540   7.244  11.563  0.6759  1.3445 -0.5213
11602SOL     OW36246   1.612   3.314   5.379 -0.0542  0.0143 -0.3133
11602SOL    HW136247   1.613   3.219   5.392 -1.3065  0.1575  1.2595
11602SOL    HW236248   1.549   3.345   5.444 -0.2055  1.8608 -1.2928
11603SOL     OW36249   5.863   0.596   1.437  0.0871  0.3004 -0.4557
11603SOL    HW136250   5.849   0.690   1.442  0.9965  0.7276 -3.7282
11603SOL    HW236251   5.782   0.561   1.400 -0.8812 -0.5541  2.1880
11604SOL     OW36252   2.702   1.837   1.822 -0.0290  0.6588 -0.2752
11604SOL    HW136253   2.642   1.911   1.833 -0.9785 -0.2301  0.8200
11604SOL    HW236254   2.749   1.832   1.906  0.2144  0.1721 -0.4379
11605SOL     OW36255   7.737   7.901  12.128 -0.6049 -0.0766 -0.0685
11605SOL    HW136256   7.755   7.867  12.215  0.4283 -0.1667 -0.3150
11605SOL    HW236257   7.793   7.851  12.069 -1.7832 -0.4999 -0.8924
11606SOL     OW36258   3.424   0.179  10.973 -0.1914 -0.1848 -0.6347
11606SOL    HW136259   3.432   0.262  11.021  0.9803 -0.8388  0.3578
11606SOL    HW236260   3.400   0.115  11.040  1.6690 -1.1585 -0.8263
11607SOL     OW36261   2.243   4.343   9.202 -0.1621  0.1214 -0.1541
11607SOL    HW136262   2.176   4.411   9.200  1.2066  1.5459  0.0131
11607SOL    HW236263   2.268   4.338   9.295 -1.5764 -2.0511  0.1919
11608SOL     OW36264   3.933   0.663   7.514 -0.4101  0.4954 -0.3577
11608SOL    HW136265   4.006   0.609   7.485 -0.0770  0.5150  0.4281
11608SOL    HW236266   3.973   0.729   7.570 -0.7921  1.6457 -1.3818
11609SOL     OW36267   2.498   1.978   6.014 -0.2843  0.3333 -0.1524
11609SOL    HW136268   2.555   1.937   6.079 -1.2333  0.0669  0.5280
11609SOL    HW236269   2.443   2.038   6.065 -0.5851  0.6222 -0.8043
11610SOL     OW36270   7.277   7.413  10.438 -0.2974  0.0990 -0.5850
11610SOL    HW136271   7.336   7.356  10.487 -0.9422 -0.8887 -0.9111
11610SOL    HW236272   7.264   7.489  10.494  1.4056  0.4160 -0.5828
11611SOL     OW36273   7.630   0.801   5.784  0.3429 -0.4527 -0.4503
11611SOL    HW136274   7.659   0.716   5.750  0.6909  0.1785 -1.8197
11611SOL    HW236275   7.673   0.865   5.727 -0.6439  0.6220 -0.0181
11612SOL     OW36276   3.216   6.522   9.718  0.1796 -0.6060  0.7249
11612SOL    HW136277   3.226   6.461   9.792 -1.4069 -1.2093  0.4881
11612SOL    HW236278   3.149   6.481   9.663 -0.7444  1.2242  0.4083
11613SOL     OW36279   5.037   4.828   2.729 -0.5049 -0.6253 -0.3920
11613SOL    HW136280   4.997   4.913   2.748 -0.1130 -0.5586  0.1662
11613SOL    HW236281   4.996   4.767   2.790  0.3067 -0.5318  0.2792
11614SOL     OW36282   4.935   3.439   3.440 -0.2363 -0.1710 -0.3317
11614SOL    HW136283   5.002   3.378   3.470 -2.0083 -0.9914  2.4156
11614SOL    HW236284   4.965   3.525   3.470  1.1562  0.0403 -2.1779
11615SOL     OW36285   2.597   7.304  10.429 -0.1369 -0.1195  0.9398
11615SOL    HW136286   2.637   7.216  10.429  0.3326  0.0798  1.6398
11615SOL    HW236287   2.662   7.359  10.472 -0.1551  0.7163 -0.0726
11616SOL     OW36288   6.904   2.693   3.873  0.2870 -0.6080  0.4415
11616SOL    HW136289   6.933   2.731   3.790  0.2973  0.4732  0.9218
11616SOL    HW236290   6.816   2.727   3.886  0.0572 -1.2499  0.5934
11617SOL     OW36291   1.587   7.618   1.072 -0.0662 -0.6286  0.3233
11617SOL    HW136292   1.495   7.598   1.087  0.2036 -0.5826  2.1953
11617SOL    HW236293   1.592   7.714   1.073  0.4881 -0.5576  4.0651
11618SOL     OW36294   0.031   4.525   8.686 -0.1819 -0.5064 -0.1556
11618SOL    HW136295   0.013   4.521   8.592  0.2969  0.6520 -0.3215
11618SOL    HW236296   0.008   4.439   8.720 -0.6768 -0.8242 -1.2836
11619SOL     OW36297   6.655   2.372   8.470 -0.1654 -0.5284 -0.0046
11619SOL    HW136298   6.632   2.460   8.500  2.2649  0.4345 -0.6673
11619SOL    HW236299   6.728   2.386   8.409 -1.1802 -2.8537 -1.9049
11620SOL     OW36300   1.510   4.350   1.632  0.1085  0.1899 -0.5236
11620SOL    HW136301   1.427   4.329   1.674  0.1593  2.0003  0.5862
11620SOL    HW236302   1.552   4.414   1.691  2.4239 -0.8673 -0.8931
11621SOL     OW36303   1.858   6.575   1.872  0.5515 -0.1540  0.0714
11621SOL    HW136304   1.911   6.497   1.889  0.1676 -0.6761 -1.0111
11621SOL    HW236305   1.920   6.641   1.841  0.3780 -1.6506 -4.1015
11622SOL     OW36306   1.681   6.365   7.093  0.0751  0.4056 -0.4388
11622SOL    HW136307   1.637   6.436   7.139 -1.1225 -0.5535 -0.0658
11622SOL    HW236308   1.745   6.331   7.156 -0.9633 -0.3444  0.2318
11623SOL     OW36309   2.231   5.135   0.959 -0.2244 -0.6526  0.3061
11623SOL    HW136310   2.137   5.138   0.943  0.0020  1.0029 -0.8919
11623SOL    HW236311   2.256   5.225   0.976  1.0017 -1.2103  1.6963
11624SOL     OW36312   0.242   2.507  10.830 -0.0698 -0.0301 -0.3989
11624SOL    HW136313   0.290   2.552  10.760 -0.8225  0.1894 -0.7925
11624SOL    HW236314   0.309   2.460  10.879  0.7009  1.2276 -0.1954
11625SOL     OW36315   2.543   5.203  11.237  0.3427 -0.5612  0.2066
11625SOL    HW136316   2.498   5.191  11.153 -2.9957  1.2654  1.5169
11625SOL    HW236317   2.556   5.114  11.270 -3.2874 -1.3454  0.0226
11626SOL     OW36318   2.999   1.213   0.223  0.3587 -0.3829 -0.4053
11626SOL    HW136319   2.918   1.242   0.265  0.2893  1.4272 -1.7014
11626SOL    HW236320   2.975   1.197   0.132  1.3346 -0.4585 -0.6598
11627SOL     OW36321   7.722   6.754   9.031  0.1737  0.1016  0.4799
11627SOL    HW136322   7.670   6.834   9.036  0.3760  0.1547  3.2761
11627SOL    HW236323   7.745   6.735   9.122  0.1250 -3.1517 -0.0804
11628SOL     OW36324   6.028   3.416   1.289  0.0186 -0.1266  0.1437
11628SOL    HW136325   6.019   3.385   1.379 -0.8334  1.0143  0.4741
11628SOL    HW236326   5.951   3.381   1.243  0.1939 -0.2930 -0.0280
11629SOL     OW36327   5.387   3.228   0.552  0.4422 -0.5421  0.1981
11629SOL    HW136328   5.406   3.316   0.585  1.2439 -0.8510  0.5960
11629SOL    HW236329   5.321   3.194   0.613 -1.3991  0.4943 -1.1216
11630SOL     OW36330   1.260   6.406   2.082 -0.2678 -0.0839 -0.0882
11630SOL    HW136331   1.218   6.345   2.021 -0.7067  0.2441 -0.1212
11630SOL    HW236332   1.287   6.352   2.156 -2.2032 -0.0852  0.6941
11631SOL     OW36333   3.137   6.828   8.259  0.3285  0.5997  0.2411
11631SOL    HW136334   3.081   6.797   8.188 -1.6914  2.6588  0.8160
11631SOL    HW236335   3.085   6.894   8.304  2.5413  1.2728  2.0273
11632SOL     OW36336   6.134   3.874   1.891 -0.5245 -0.3017 -0.3501
11632SOL    HW136337   6.047   3.905   1.914  0.0289 -0.3462  2.0504
11632SOL    HW236338   6.132   3.780   1.908 -1.1795 -1.1893 -4.3589
11633SOL     OW36339   6.925   0.871   8.930  0.2842 -0.7015 -0.2950
11633SOL    HW136340   6.876   0.878   8.848 -0.7312 -0.5090  0.3200
11633SOL    HW236341   6.951   0.779   8.935 -1.0782 -1.0877 -0.0325
11634SOL     OW36342   2.720   0.560  10.985 -0.3434 -0.2453 -0.5279
11634SOL    HW136343   2.662   0.636  10.992 -0.3147 -0.1857 -0.9001
11634SOL    HW236344   2.757   0.567  10.897 -0.3723 -0.7133 -0.5768
11635SOL     OW36345   0.869   3.791   3.400  0.0731  0.1071 -0.0085
11635SOL    HW136346   0.895   3.706   3.435  2.8897 -0.0200 -2.0104
11635SOL    HW236347   0.947   3.845   3.408 -1.5218  2.4231  0.7994
11636SOL     OW36348   2.196   1.546  10.694 -0.3383  0.2298 -0.2957
11636SOL    HW136349   2.221   1.462  10.731 -1.1184  0.2742  0.3619
11636SOL    HW236350   2.101   1.551  10.707 -0.5130  0.6077 -1.5800
11637SOL     OW36351   0.292   7.778  11.884 -0.0396  0.2935 -0.0476
11637SOL    HW136352   0.318   7.721  11.811 -0.4299 -0.1629  0.1591
11637SOL    HW236353   0.219   7.731  11.925  1.1616 -0.2483  1.5957
11638SOL     OW36354   5.843   7.241   5.028 -1.0857  0.1745 -0.6113
11638SOL    HW136355   5.924   7.211   4.986 -0.9489  1.5747 -1.4295
11638SOL    HW236356   5.777   7.178   5.000 -0.7042  0.2551 -1.7630
11639SOL     OW36357   5.258   1.581   0.560  0.2856 -0.1369  0.1256
11639SOL    HW136358   5.200   1.633   0.616  0.4853 -0.0708  0.2728
11639SOL    HW236359   5.249   1.492   0.592 -0.7731 -0.3588 -0.7271
11640SOL     OW36360   4.192   7.378  11.854 -0.1432 -0.8477 -0.2750
11640SOL    HW136361   4.278   7.390  11.813 -0.0141  1.2302  0.4596
11640SOL    HW236362   4.211   7.342  11.941  0.0966  0.3726  0.2035
11641SOL     OW36363   7.134   5.585   5.568  0.1692  0.2921  0.3047
11641SOL    HW136364   7.104   5.503   5.529 -0.0709 -0.1511  1.3686
11641SOL    HW236365   7.111   5.652   5.505  0.1704 -0.4377 -0.4892
11642SOL     OW36366   4.591   2.714  11.873 -0.2055 -0.2181  0.0079
11642SOL    HW136367   4.528   2.666  11.820 -0.5385 -0.0867  0.2771
11642SOL    HW236368   4.636   2.647  11.924 -0.5139 -0.2697  0.2184
11643SOL     OW36369   7.026   0.274   2.814  0.0572 -0.1380 -0.4636
11643SOL    HW136370   7.118   0.301   2.812  0.1911 -0.6227 -1.2368
11643SOL    HW236371   7.017   0.213   2.741 -0.7482 -0.5407 -0.0423
11644SOL     OW36372   1.833   6.315   2.909 -0.7793 -0.1874  0.1801
11644SOL    HW136373   1.927   6.313   2.892 -0.6690  0.3123  0.6734
11644SOL    HW236374   1.793   6.300   2.824 -0.2670 -2.1573  0.2492
11645SOL     OW36375   6.143   6.985   1.759 -0.1542  0.1833  0.2985
11645SOL    HW136376   6.149   6.889   1.760 -0.1042  0.1747 -0.3494
11645SOL    HW236377   6.188   7.011   1.679  0.0368  0.7684  0.5923
11646SOL     OW36378   2.631   6.913   5.436  0.4686  0.1305  0.6814
11646SOL    HW136379   2.629   6.818   5.442 -0.2053  0.1005  0.1210
11646SOL    HW236380   2.621   6.932   5.343  0.5749  0.7499  0.7904
11647SOL     OW36381   2.269   1.675   9.406  0.0604  0.0618  0.4190
11647SOL    HW136382   2.317   1.600   9.370 -1.4575 -0.2732 -1.0177
11647SOL    HW236383   2.235   1.643   9.490  2.5717  0.4342  1.6675
11648SOL     OW36384   5.542   7.892   6.377  0.7701 -0.0391 -0.2470
11648SOL    HW136385   5.514   7.859   6.463 -1.3721  0.7412 -0.5826
11648SOL    HW236386   5.637   7.903   6.386  0.2619  4.5957  3.7755
11649SOL     OW36387   2.974   4.455   3.901  0.6808  0.0929 -0.6839
11649SOL    HW136388   2.986   4.370   3.943 -1.2762  0.5540  0.9821
11649SOL    HW236389   3.043   4.510   3.939 -0.0881  0.0781  0.8358
11650SOL     OW36390   7.790   1.884  12.438  0.1062  0.2506  0.3288
11650SOL    HW136391   7.861   1.824  12.412 -0.0703 -0.6423  1.7988
11650SOL    HW236392   7.771   1.934  12.359  1.0906 -0.8142 -0.6199
11651SOL     OW36393   4.565   7.428   8.035  0.3519 -0.1128  0.2102
11651SOL    HW136394   4.628   7.486   7.991 -0.6657  0.7668 -0.1421
11651SOL    HW236395   4.556   7.354   7.975  2.1612 -1.0206  0.9658
11652SOL     OW36396   2.863   6.173   4.586 -0.9561 -0.1863 -0.0290
11652SOL    HW136397   2.846   6.083   4.559 -1.2674 -0.0086 -0.4339
11652SOL    HW236398   2.958   6.178   4.594 -0.9214 -0.4806 -0.2478
11653SOL     OW36399   7.597   1.613  10.381  0.0688 -0.1303 -0.5339
11653SOL    HW136400   7.555   1.616  10.295  0.1325 -0.2844 -0.5710
11653SOL    HW236401   7.537   1.562  10.435  0.1347 -0.2216 -0.5467
11654SOL     OW36402   3.952   6.012   7.563 -0.4659 -0.0221  0.3629
11654SOL    HW136403   3.931   6.095   7.606 -1.5985 -0.4552  0.6975
11654SOL    HW236404   3.882   5.952   7.591  0.5909 -1.2320  0.5230
11655SOL     OW36405   3.311   1.895   8.719  0.2579 -0.0352 -0.0190
11655SOL    HW136406   3.235   1.914   8.664 -0.8266 -2.3295  0.5568
11655SOL    HW236407   3.370   1.846   8.661  0.0608 -0.6052  0.2522
11656SOL     OW36408   7.626   3.229   2.178 -0.2016  0.4107  0.6505
11656SOL    HW136409   7.641   3.228   2.083 -0.5373  0.8023  0.5900
11656SOL    HW236410   7.560   3.297   2.191 -1.2160 -0.6145  1.0063
11657SOL     OW36411   4.982   0.385  10.339 -0.0952  0.0520  0.5788
11657SOL    HW136412   4.940   0.316  10.391 -0.9403 -0.9170 -1.2662
11657SOL    HW236413   4.912   0.449  10.325 -0.6875 -0.9504 -1.4428
11658SOL     OW36414   3.377   0.798  11.439 -0.9602 -0.2983 -0.2384
11658SOL    HW136415   3.376   0.880  11.389  0.0829 -0.3501 -0.3748
11658SOL    HW236416   3.392   0.730  11.374  1.5601 -0.2606  0.2094
11659SOL     OW36417   5.272   6.734   2.112  0.0933  0.0325 -0.3114
11659SOL    HW136418   5.263   6.815   2.162 -1.0520 -0.1505 -0.1907
11659SOL    HW236419   5.189   6.727   2.064  0.5355 -0.6234 -0.9787
11660SOL     OW36420   0.851   3.767   0.983 -0.3039  0.0560 -0.2586
11660SOL    HW136421   0.796   3.840   1.011  1.1189  1.5053 -1.0716
11660SOL    HW236422   0.916   3.758   1.052  0.1933  0.3134 -0.6863
11661SOL     OW36423   4.588   5.733   0.769 -0.3083  0.3542  0.5539
11661SOL    HW136424   4.546   5.818   0.753 -0.0084  0.4344  0.1730
11661SOL    HW236425   4.674   5.741   0.727 -0.4581 -0.3021  0.1117
11662SOL     OW36426   4.270   4.638  11.196  0.3764 -0.0055  0.6485
11662SOL    HW136427   4.297   4.691  11.272 -1.0159  1.5762  0.1226
11662SOL    HW236428   4.175   4.631  11.206  0.0866  0.7853 -1.2724
11663SOL     OW36429   5.522   2.909  10.866 -0.0790 -0.4102 -0.2890
11663SOL    HW136430   5.539   2.869  10.781 -1.0479 -0.0610 -0.6653
11663SOL    HW236431   5.600   2.963  10.883 -0.2968  0.3109 -1.4393
11664SOL     OW36432   2.482   3.496   5.629 -0.4176 -0.6469  0.0650
11664SOL    HW136433   2.423   3.569   5.612 -0.7030 -0.6664  0.9102
11664SOL    HW236434   2.444   3.423   5.581 -1.1393 -0.6821  0.6740
11665SOL     OW36435   2.405   6.337   6.157  0.3920  0.9672 -0.7094
11665SOL    HW136436   2.414   6.246   6.188 -0.7159  1.4817  1.3327
11665SOL    HW236437   2.334   6.334   6.093 -0.4738  0.5542  0.2447
11666SOL     OW36438   5.014   4.622  12.218 -0.2124  0.4022 -0.3390
11666SOL    HW136439   5.045   4.712  12.210  0.8988  0.2369  1.3800
11666SOL    HW236440   5.093   4.572  12.240 -0.7759 -1.0431 -1.4493
11667SOL     OW36441   7.626   5.130   6.281  0.3427 -0.0753  0.5543
11667SOL    HW136442   7.541   5.117   6.322  0.5451 -0.2878  0.9020
11667SOL    HW236443   7.622   5.076   6.202 -0.2627  0.7819 -0.0251
11668SOL     OW36444   3.025   7.895   1.742 -0.0451  0.0166 -0.1378
11668SOL    HW136445   3.111   7.934   1.725  0.9019 -1.9956 -0.2684
11668SOL    HW236446   2.979   7.960   1.795  1.4674  1.2479 -0.2833
11669SOL     OW36447   7.363   4.297   5.190 -0.0858  0.0072  0.6785
11669SOL    HW136448   7.459   4.295   5.182 -0.1160  1.4720 -0.6916
11669SOL    HW236449   7.332   4.238   5.121 -0.1798  0.1757  0.5773
11670SOL     OW36450   7.208   1.705  11.761 -0.8245  0.1368 -0.0342
11670SOL    HW136451   7.183   1.619  11.793  0.2935 -0.2513 -0.1504
11670SOL    HW236452   7.246   1.749  11.837  1.7661 -0.7580 -0.6885
11671SOL     OW36453   1.493   0.073   3.012 -0.2235  0.3457 -0.0404
11671SOL    HW136454   1.416   0.023   3.039 -0.0474 -0.9540 -1.7932
11671SOL    HW236455   1.554   0.065   3.086 -1.3160  0.4287  0.8880
11672SOL     OW36456   4.836   3.137   3.817  0.2478 -0.0166  0.4827
11672SOL    HW136457   4.765   3.189   3.855  0.1886 -1.0265  1.8453
11672SOL    HW236458   4.830   3.052   3.862  2.3796 -0.0989  0.7046
11673SOL     OW36459   3.071   6.156  11.115 -0.1690 -0.2924 -0.1483
11673SOL    HW136460   3.090   6.244  11.147 -1.8553 -0.1801  0.6089
11673SOL    HW236461   2.998   6.126  11.168  0.1815 -2.0532 -0.6009
11674SOL     OW36462   1.999   7.574   6.981 -0.4885  0.3668  0.1459
11674SOL    HW136463   1.928   7.607   7.036 -0.3693 -0.3116  0.7266
11674SOL    HW236464   1.969   7.588   6.891 -1.9299 -1.0656  0.3692
11675SOL     OW36465   5.697   4.461  10.051 -0.2522 -0.4578 -0.0870
11675SOL    HW136466   5.699   4.370  10.079  1.1427  0.1451  1.9941
11675SOL    HW236467   5.659   4.508  10.125 -1.2452  0.6607 -1.2467
11676SOL     OW36468   1.180   4.299   5.871  0.1053  0.1766  0.1570
11676SOL    HW136469   1.247   4.325   5.808 -1.0354 -0.3192 -1.3051
11676SOL    HW236470   1.218   4.320   5.957  1.2536  1.8967 -0.7237
11677SOL     OW36471   0.004   6.773   3.592 -0.0410  0.1611 -0.1260
11677SOL    HW136472  -0.058   6.795   3.522 -0.1714  1.8730  0.4912
11677SOL    HW236473  -0.044   6.792   3.673  0.3302 -1.1884  0.4391
11678SOL     OW36474   0.149   1.888  10.319  0.0180  0.1861  0.6727
11678SOL    HW136475   0.167   1.844  10.236 -0.1733 -0.8316  1.1558
11678SOL    HW236476   0.053   1.890  10.324  0.0193 -0.8671  1.4269
11679SOL     OW36477   6.637   4.388  11.085  0.3620  0.3058 -0.0997
11679SOL    HW136478   6.591   4.365  11.166  0.2584 -0.3759 -0.3406
11679SOL    HW236479   6.610   4.477  11.066  2.0100  1.2831  1.7483
11680SOL     OW36480   6.830   7.152   6.505 -0.2230  0.4068 -0.5214
11680SOL    HW136481   6.866   7.173   6.419  0.8256  1.2767  0.0951
11680SOL    HW236482   6.766   7.221   6.522  0.8479  1.2779  0.1162
11681SOL     OW36483   1.400   6.980   8.808  0.4099  0.5339 -0.4172
11681SOL    HW136484   1.396   7.022   8.894  0.3301  0.5555 -0.4308
11681SOL    HW236485   1.451   7.039   8.754  0.9736  0.2318 -0.2206
11682SOL     OW36486   0.175   6.938   4.783 -0.0408 -0.3944 -0.1228
11682SOL    HW136487   0.137   6.935   4.870  2.4391  0.7359  1.0979
11682SOL    HW236488   0.165   6.849   4.749 -2.1416 -0.5445  0.7667
11683SOL     OW36489   2.754   7.246   0.659 -0.3488 -0.2085  0.0070
11683SOL    HW136490   2.769   7.325   0.607 -0.6078 -0.3018 -0.2091
11683SOL    HW236491   2.666   7.258   0.696 -0.5094 -0.5316 -0.2688
11684SOL     OW36492   1.647   5.963   7.100 -0.3741  0.0961 -0.5381
11684SOL    HW136493   1.623   5.897   7.035 -0.3741 -0.7814  0.3273
11684SOL    HW236494   1.725   5.928   7.143  0.8911  1.6471 -1.4712
11685SOL     OW36495   6.836   4.444   6.151 -0.1888 -0.1442 -0.4367
11685SOL    HW136496   6.758   4.444   6.096 -2.0233 -1.3277  1.9586
11685SOL    HW236497   6.837   4.530   6.193  0.8896  0.5485 -1.8130
11686SOL     OW36498   3.727   1.615   7.984 -0.1289  0.0713 -0.2767
11686SOL    HW136499   3.634   1.636   7.992  0.0917  1.0724 -0.1221
11686SOL    HW236500   3.737   1.581   7.895 -0.7930 -0.9064  0.0191
11687SOL     OW36501   2.042   2.169   7.771 -0.0367  0.5280 -0.2407
11687SOL    HW136502   1.994   2.135   7.847  0.4977 -0.3825 -0.2975
11687SOL    HW236503   1.976   2.175   7.702 -0.5854  1.6170  0.3510
11688SOL     OW36504   2.209   3.698   7.316  0.0160 -0.0349 -0.0782
11688SOL    HW136505   2.175   3.709   7.227  0.7296 -0.4117 -0.3979
11688SOL    HW236506   2.232   3.605   7.322 -1.0282 -0.2587  0.8655
11689SOL     OW36507   3.579   1.279   4.188  0.4663  0.1673  0.3740
11689SOL    HW136508   3.607   1.371   4.191 -1.1420  0.9347 -2.8101
11689SOL    HW236509   3.621   1.238   4.263  2.5831  3.1343  0.9905
11690SOL     OW36510   7.638   4.453   0.533 -0.3958  0.5327 -0.1025
11690SOL    HW136511   7.702   4.384   0.513 -1.2054 -0.0758 -0.6243
11690SOL    HW236512   7.637   4.508   0.455 -0.6926  0.4032 -0.1882
11691SOL     OW36513   4.908   4.021  12.057  0.1691 -0.2724  0.5359
11691SOL    HW136514   4.892   3.930  12.083 -0.8979 -0.5001 -0.7610
11691SOL    HW236515   4.906   4.070  12.139 -0.1837 -1.3002  1.1706
11692SOL     OW36516   6.506   0.378   2.877 -0.0786  0.2080 -0.0134
11692SOL    HW136517   6.483   0.467   2.850  0.4893  0.2882 -0.2452
11692SOL    HW236518   6.587   0.359   2.830  0.0353 -0.2730  0.3697
11693SOL     OW36519   2.158   3.106   4.671  0.0845 -0.1314 -0.4814
11693SOL    HW136520   2.136   3.146   4.755 -1.5748 -0.8669 -0.5101
11693SOL    HW236521   2.164   3.012   4.689 -1.9902 -0.5138 -1.4194
11694SOL     OW36522   7.394   5.002   2.071  0.5571  0.3828 -0.1314
11694SOL    HW136523   7.387   5.031   1.980  0.3519 -0.1475 -0.2884
11694SOL    HW236524   7.477   5.039   2.102  0.6557  0.5117 -0.5512
11695SOL     OW36525   3.159   5.601   3.253 -0.2330  0.1300  0.1606
11695SOL    HW136526   3.096   5.640   3.313 -1.7673 -0.6836 -0.8693
11695SOL    HW236527   3.184   5.518   3.295  0.9336  0.8844  1.0259
11696SOL     OW36528   0.168   2.938   2.610 -0.3114 -0.1758  0.7603
11696SOL    HW136529   0.083   2.900   2.590  0.2874 -2.1274  1.6157
11696SOL    HW236530   0.170   2.943   2.706  0.9175 -1.1920  0.8167
11697SOL     OW36531   1.243   0.672   6.745 -0.3167 -0.1317  0.1800
11697SOL    HW136532   1.175   0.689   6.679  0.2758  0.0338 -0.3900
11697SOL    HW236533   1.206   0.601   6.799 -0.7355 -0.3868 -0.4272
11698SOL     OW36534   2.636   4.135   4.801  0.5126 -0.3882  0.4149
11698SOL    HW136535   2.669   4.105   4.716  0.7266  0.6914  0.1110
11698SOL    HW236536   2.558   4.080   4.817  1.3974 -1.7211  0.3073
11699SOL     OW36537   3.330   3.066   1.300 -0.7755 -0.0581 -0.2880
11699SOL    HW136538   3.353   3.010   1.373  0.4326 -0.0452 -0.6431
11699SOL    HW236539   3.387   3.143   1.309 -0.3125 -0.2357 -1.4448
11700SOL     OW36540   4.091   5.157   7.665  0.2515  0.0478 -0.4302
11700SOL    HW136541   4.183   5.138   7.649  0.6453  0.8107  0.8033
11700SOL    HW236542   4.060   5.085   7.720 -0.5096 -1.3815 -2.6099
11701SOL     OW36543   0.316   0.208   8.037 -0.5442  0.4211  0.1545
11701SOL    HW136544   0.256   0.281   8.053  0.6702  1.4217  0.3023
11701SOL    HW236545   0.387   0.245   7.984  0.6871 -0.3426  1.1933
11702SOL     OW36546   7.415   4.970  12.080  0.2574  0.2970 -0.2117
11702SOL    HW136547   7.437   4.895  12.024 -0.0701  0.0759 -0.0520
11702SOL    HW236548   7.483   5.034  12.062  0.4708  0.0103 -0.4494
11703SOL     OW36549   1.145   5.879  12.021 -0.2903 -0.6281 -0.2159
11703SOL    HW136550   1.160   5.923  11.937 -0.4301 -1.4492 -0.6862
11703SOL    HW236551   1.198   5.928  12.084 -1.5861  1.1169 -0.4178
11704SOL     OW36552   4.850   4.126  10.166 -0.5000 -0.1788 -0.4718
11704SOL    HW136553   4.821   4.155  10.252  2.3006 -1.2079  0.9657
11704SOL    HW236554   4.915   4.191  10.139  0.2420 -1.0050 -0.7575
11705SOL     OW36555   5.743   6.883   2.329  0.3831 -0.2349 -0.2896
11705SOL    HW136556   5.787   6.883   2.243 -1.8885  0.2257 -1.5445
11705SOL    HW236557   5.660   6.928   2.313 -0.5472 -1.0175  1.9519
11706SOL     OW36558   6.052   0.541  11.614 -0.7959  0.1165  0.8843
11706SOL    HW136559   6.066   0.446  11.611  1.4091  0.3148  2.1963
11706SOL    HW236560   6.064   0.570  11.524  1.5367 -0.5845  0.8911
11707SOL     OW36561   1.721   3.501   6.974 -0.2995  0.0007  0.3090
11707SOL    HW136562   1.638   3.462   6.945 -0.2721  0.8034 -0.8929
11707SOL    HW236563   1.777   3.425   6.995 -1.1843 -0.5507  0.7465
11708SOL     OW36564   0.864   2.932   7.467 -0.1542  0.4441 -0.5206
11708SOL    HW136565   0.898   2.954   7.553 -0.9824  0.3754 -0.1678
11708SOL    HW236566   0.861   3.015   7.420 -0.5752  0.6366 -0.1640
11709SOL     OW36567   6.857   0.376  12.142  0.0741 -0.7343 -0.0460
11709SOL    HW136568   6.871   0.293  12.096 -0.7152 -0.4864 -0.7684
11709SOL    HW236569   6.780   0.414  12.099  0.5588  0.4762  0.1324
11710SOL     OW36570   6.142   4.198   3.302 -0.1608 -0.4073  0.4440
11710SOL    HW136571   6.093   4.240   3.231 -0.3725  0.2108  0.9530
11710SOL    HW236572   6.081   4.136   3.340 -0.0360 -0.7655  0.0684
11711SOL     OW36573   3.930   4.503   3.359  0.4865  0.3787 -0.3464
11711SOL    HW136574   3.848   4.474   3.399 -0.0157 -2.3131 -2.9476
11711SOL    HW236575   3.972   4.557   3.425 -2.0376 -0.5393  2.1785
11712SOL     OW36576   2.171   2.324   5.447 -0.4982 -0.1529 -0.2257
11712SOL    HW136577   2.150   2.231   5.463 -0.8219  0.4190  3.7943
11712SOL    HW236578   2.261   2.323   5.415 -0.7185 -1.8633 -0.8998
11713SOL     OW36579   5.224   3.376   6.254  0.1265 -0.4322 -0.1469
11713SOL    HW136580   5.309   3.416   6.238 -1.2250  3.5159  1.2596
11713SOL    HW236581   5.173   3.393   6.175 -0.3693  0.3459  0.3334
11714SOL     OW36582   3.145   0.640  12.287  0.0557  0.0545  0.1088
11714SOL    HW136583   3.113   0.714  12.339  0.7740 -0.3171  1.1107
11714SOL    HW236584   3.240   0.647  12.290  0.1897 -1.7025  1.4456
11715SOL     OW36585   4.469   4.477   9.354  0.1546 -0.3481 -0.5255
11715SOL    HW136586   4.551   4.521   9.376  1.1040 -1.8686 -0.8311
11715SOL    HW236587   4.485   4.438   9.268 -1.2040  0.0339 -0.9754
11716SOL     OW36588   2.121   1.576   3.600  0.6494  0.2098 -0.5763
11716SOL    HW136589   2.059   1.509   3.571  0.4052  0.6148 -1.0036
11716SOL    HW236590   2.109   1.581   3.695  0.1144  0.2055 -0.6445
11717SOL     OW36591   3.236   6.020  12.296  0.0820  0.0981 -0.2064
11717SOL    HW136592   3.200   5.951  12.239 -0.7513 -0.5454  1.0583
11717SOL    HW236593   3.326   5.994  12.311  0.0519 -0.1946 -0.5119
11718SOL     OW36594   0.345   4.522   8.350  0.2264 -0.0164 -0.2869
11718SOL    HW136595   0.297   4.525   8.267 -1.8995 -0.5360  0.8471
11718SOL    HW236596   0.313   4.598   8.398  1.3857  0.2404  0.1099
11719SOL     OW36597   6.414   4.712   7.452  0.1003 -0.5141 -0.0825
11719SOL    HW136598   6.323   4.695   7.475 -0.1899  1.0389  0.0459
11719SOL    HW236599   6.465   4.665   7.519 -0.6906  1.3075  1.9286
11720SOL     OW36600   4.651   4.783   2.557 -0.2987 -0.6640  0.2730
11720SOL    HW136601   4.698   4.751   2.635  0.9142 -1.0427 -0.5894
11720SOL    HW236602   4.697   4.743   2.484 -2.0893 -1.1862 -0.6251
11721SOL     OW36603   0.437   4.506   7.478  0.1264  0.9519  0.1339
11721SOL    HW136604   0.489   4.572   7.523  1.7424  0.2339 -0.5754
11721SOL    HW236605   0.500   4.461   7.420 -0.9878 -0.9056  0.2701
11722SOL     OW36606   1.673   2.433   7.035 -0.4461 -0.0974 -0.1286
11722SOL    HW136607   1.596   2.388   7.001  0.7289 -0.4141 -2.6163
11722SOL    HW236608   1.684   2.508   6.977 -0.1329  1.2315  1.5846
11723SOL     OW36609   4.692   1.485   3.165 -0.4235  0.8738  0.1344
11723SOL    HW136610   4.694   1.391   3.183  0.3977  1.0924  1.2420
11723SOL    HW236611   4.767   1.521   3.211 -0.7242  2.0933 -0.2659
11724SOL     OW36612   3.713   5.899   0.065  0.4566 -0.6073  0.2907
11724SOL    HW136613   3.710   5.848  -0.016 -0.3280  0.0851 -0.1403
11724SOL    HW236614   3.755   5.842   0.129  0.4769 -1.4175 -0.4347
11725SOL     OW36615   0.562   4.068   0.500 -0.5070 -0.9346  1.0419
11725SOL    HW136616   0.488   4.026   0.457 -0.3602 -1.1553  1.0013
11725SOL    HW236617   0.529   4.154   0.526 -0.5225 -0.6979  0.2622
11726SOL     OW36618   0.793   3.382   6.676  0.3870 -0.4157  0.2274
11726SOL    HW136619   0.838   3.462   6.702  0.3137 -0.0947 -0.6094
11726SOL    HW236620   0.728   3.368   6.745  0.8710 -0.1500  0.7481
11727SOL     OW36621   4.447   7.759  10.542 -0.1500  0.1041 -0.5376
11727SOL    HW136622   4.400   7.676  10.536 -0.2325  0.1461 -0.4737
11727SOL    HW236623   4.539   7.735  10.545 -0.2019 -0.2525  3.3850
11728SOL     OW36624   4.998   3.076   6.051  0.8034  0.6530 -0.1023
11728SOL    HW136625   5.074   3.028   6.016  0.8265 -0.0314  0.8468
11728SOL    HW236626   4.922   3.030   6.015  0.8266 -0.0918  0.7609
11729SOL     OW36627   3.116   3.033   2.491 -0.1464  0.1209 -0.8504
11729SOL    HW136628   3.123   3.019   2.586 -1.3441 -0.7531 -0.8697
11729SOL    HW236629   3.206   3.031   2.460  0.1775 -1.0296  0.0803
11730SOL     OW36630   2.797   7.768   0.402 -0.1187 -0.0440  0.2425
11730SOL    HW136631   2.786   7.808   0.488  0.0087 -1.4114  0.9089
11730SOL    HW236632   2.710   7.777   0.361 -0.3640  0.0134  0.7658
11731SOL     OW36633   5.077   0.778   1.977 -0.4088  0.2273 -0.8249
11731SOL    HW136634   5.152   0.837   1.970  0.6479 -0.8866  0.4573
11731SOL    HW236635   5.007   0.833   2.013  0.6351  0.6815  0.6271
11732SOL     OW36636   7.125   1.247   2.516  0.3381 -0.1588 -0.2205
11732SOL    HW136637   7.147   1.188   2.444 -0.8890  0.4447 -1.1152
11732SOL    HW236638   7.030   1.240   2.525  0.3271  0.7481  0.4829
11733SOL     OW36639   4.532   7.910  10.289  0.6660  0.2591 -0.0133
11733SOL    HW136640   4.496   7.835  10.241  4.3797 -0.8696 -1.3761
11733SOL    HW236641   4.552   7.876  10.376 -0.5296  0.6194  0.4231
11734SOL     OW36642   7.558   1.408   1.345 -0.9122 -0.3652 -0.0185
11734SOL    HW136643   7.501   1.447   1.279 -0.6358  0.9425  0.4717
11734SOL    HW236644   7.512   1.425   1.428 -0.2250 -0.0639  0.3048
11735SOL     OW36645   2.715   7.303   2.313  0.1287  0.7053 -0.3392
11735SOL    HW136646   2.757   7.389   2.319 -1.3663  1.4460  0.1707
11735SOL    HW236647   2.781   7.241   2.346  0.5361  1.9042  1.2263
11736SOL     OW36648   0.051   7.686   7.319 -0.1543 -0.0766 -0.3280
11736SOL    HW136649  -0.021   7.645   7.367 -0.7864 -0.2021 -1.3451
11736SOL    HW236650   0.127   7.675   7.376 -0.8743 -0.2236  0.6297
11737SOL     OW36651   7.796   2.454   0.952  0.2996  0.2161  0.2527
11737SOL    HW136652   7.775   2.392   0.882 -0.7290  1.5279 -0.6486
11737SOL    HW236653   7.877   2.497   0.923  0.9325 -0.5759  0.8081
11738SOL     OW36654   5.820   1.603  10.997 -0.2710  0.2384 -0.0240
11738SOL    HW136655   5.879   1.574  10.927  1.9797 -2.1960  2.6000
11738SOL    HW236656   5.855   1.689  11.023  0.1869  0.2164 -0.5451
11739SOL     OW36657   1.131   3.566   8.694  0.0638 -0.5471 -0.0383
11739SOL    HW136658   1.047   3.547   8.651  0.1827 -0.8316 -0.1413
11739SOL    HW236659   1.174   3.481   8.702 -0.1061 -0.5431  0.9546
11740SOL     OW36660   7.010   7.449   0.515  0.2637 -0.0283  0.2603
11740SOL    HW136661   6.998   7.414   0.426 -2.6922 -0.4156  0.7004
11740SOL    HW236662   6.950   7.398   0.569  1.0947  1.0196  2.2728
11741SOL     OW36663   0.893   3.860  12.000 -0.1876 -0.2264  0.6080
11741SOL    HW136664   0.919   3.768  11.998  1.4951  0.2137 -0.1495
11741SOL    HW236665   0.933   3.898  11.921  1.2745  1.6592  2.1461
11742SOL     OW36666   7.962   0.717   3.672 -0.7119  0.2814  0.0729
11742SOL    HW136667   8.018   0.771   3.728  0.3418 -0.5252 -0.1693
11742SOL    HW236668   7.954   0.767   3.590 -0.5798  0.5249  0.2062
11743SOL     OW36669   4.844   7.943   1.586  0.4524 -0.1568  0.0131
11743SOL    HW136670   4.757   7.982   1.597  0.3490 -0.5031  0.4122
11743SOL    HW236671   4.827   7.857   1.546  0.7321  0.5276 -1.6784
11744SOL     OW36672   3.913   0.445   0.814 -0.3120  0.1109 -0.4904
11744SOL    HW136673   4.000   0.480   0.830  0.9894 -1.9628 -2.4953
11744SOL    HW236674   3.872   0.507   0.754  1.8225 -1.3538 -3.7111
11745SOL     OW36675   4.072   0.761  10.056 -0.2733 -0.2709 -0.0209
11745SOL    HW136676   4.096   0.849  10.084  2.0574 -0.8081 -0.1530
11745SOL    HW236677   4.011   0.775   9.983 -0.1606  1.2072  0.1463
11746SOL     OW36678   6.721   4.448   9.282 -0.5245 -0.3392  0.1764
11746SOL    HW136679   6.712   4.532   9.326 -0.7582 -0.8565  1.1379
11746SOL    HW236680   6.791   4.462   9.218 -2.1900  1.2771 -1.4293
11747SOL     OW36681   7.279   1.051   6.587 -0.0151 -0.2497 -0.4927
11747SOL    HW136682   7.360   1.062   6.637  0.4636 -2.4210 -0.6755
11747SOL    HW236683   7.253   1.139   6.563  1.9159  0.5577  0.1953
11748SOL     OW36684   7.895   5.985  11.676 -0.2212  0.1017 -0.4390
11748SOL    HW136685   7.849   6.034  11.608  1.4778  0.9204 -1.0632
11748SOL    HW236686   7.850   6.010  11.757 -0.0596  1.9322 -0.8583
11749SOL     OW36687   0.449   7.363   6.618 -0.2737  0.2384  0.0972
11749SOL    HW136688   0.484   7.410   6.693  0.6207  0.5386 -0.4935
11749SOL    HW236689   0.384   7.423   6.580 -0.2284  0.3700  0.2271
11750SOL     OW36690   4.992   2.549  11.953 -0.1564  0.4209 -0.2296
11750SOL    HW136691   4.996   2.507  11.867 -1.1966  0.2349 -0.1938
11750SOL    HW236692   5.038   2.488  12.011  1.8149  1.2132 -0.8910
11751SOL     OW36693   1.121   4.813   8.690  0.2512  0.1389  0.2778
11751SOL    HW136694   1.185   4.789   8.624  0.8576  0.8300  0.5913
11751SOL    HW236695   1.098   4.904   8.670 -0.1447  0.1031  0.5492
11752SOL     OW36696   3.687   0.162   7.845  0.6675  0.2419  0.5131
11752SOL    HW136697   3.742   0.085   7.833  0.7465  0.1885  1.1836
11752SOL    HW236698   3.603   0.127   7.876  0.6512  0.4070  0.6619
11753SOL     OW36699   6.665   6.032   0.926 -0.1687 -0.1996 -0.4237
11753SOL    HW136700   6.607   5.988   0.987 -1.4978  1.9891  0.0076
11753SOL    HW236701   6.607   6.064   0.857  0.9854 -0.5679 -1.6129
11754SOL     OW36702   6.164   3.396   2.687 -0.0177  0.5191 -1.1446
11754SOL    HW136703   6.219   3.321   2.664 -0.4883 -0.4060  0.5622
11754SOL    HW236704   6.176   3.407   2.782 -1.1612  1.6165 -1.0902
11755SOL     OW36705   1.038   0.960   0.525 -0.5347  0.1753 -0.3160
11755SOL    HW136706   1.116   0.954   0.580 -1.2615 -0.3823  0.6847
11755SOL    HW236707   1.040   0.880   0.471 -0.8899 -0.2997  0.3666
11756SOL     OW36708   1.758   6.546  11.756  0.8139 -0.0523  0.1698
11756SOL    HW136709   1.794   6.529  11.843 -0.3761 -1.3407  0.4599
11756SOL    HW236710   1.734   6.638  11.757 -0.5654 -0.3818  1.7758
11757SOL     OW36711   5.896   7.462  11.570 -0.0209  0.4771 -0.5898
11757SOL    HW136712   5.918   7.404  11.497 -1.6144  1.7944 -2.2215
11757SOL    HW236713   5.803   7.484  11.556 -0.1337  1.4554  1.3647
11758SOL     OW36714   4.542   0.988   0.175 -0.4183 -0.2527 -0.2106
11758SOL    HW136715   4.491   0.908   0.181 -0.8610  0.0409  0.0610
11758SOL    HW236716   4.552   1.004   0.081 -0.9972 -0.2164 -0.2718
11759SOL     OW36717   7.970   2.816   9.998 -0.0933  0.0949 -0.2609
11759SOL    HW136718   7.923   2.785  10.075 -2.6879  1.6290 -1.0903
11759SOL    HW236719   7.952   2.910   9.995 -0.0820  0.0896 -2.6875
11760SOL     OW36720   6.354   3.777   6.616  0.2031  0.0244 -0.6221
11760SOL    HW136721   6.306   3.857   6.595  0.4567 -0.1828 -2.0792
11760SOL    HW236722   6.431   3.779   6.560  1.1764 -0.3582  0.6486
11761SOL     OW36723   4.235   0.620  10.879  0.1271  0.5278  0.1566
11761SOL    HW136724   4.216   0.628  10.973  1.2290 -1.2032  0.5887
11761SOL    HW236725   4.163   0.663  10.835 -0.5623  1.1228  1.8117
11762SOL     OW36726   4.623   1.320   8.759 -0.5683  0.2548  0.3715
11762SOL    HW136727   4.547   1.366   8.793 -0.6925  1.1353 -1.0330
11762SOL    HW236728   4.637   1.248   8.821 -2.2678  0.3222  0.8828
11763SOL     OW36729   7.692   2.042  11.818 -0.1499  0.5667 -0.3367
11763SOL    HW136730   7.683   2.126  11.772  3.0014  0.7920 -0.7928
11763SOL    HW236731   7.685   2.064  11.911 -4.4477  0.4291 -0.4584
11764SOL     OW36732   7.336   2.643   3.415 -0.4429 -0.0108  0.1387
11764SOL    HW136733   7.418   2.657   3.461  0.5262 -0.0347 -1.4851
11764SOL    HW236734   7.332   2.548   3.401 -0.7492 -0.0095  0.2097
11765SOL     OW36735   5.233   6.941   7.546 -0.1516 -0.0475 -0.0652
11765SOL    HW136736   5.257   6.976   7.461 -0.2093 -0.4286 -0.2383
11765SOL    HW236737   5.141   6.919   7.539 -0.4200  0.8692  0.4186
11766SOL     OW36738   4.539   0.297   5.943  0.0013  0.0048 -0.0557
11766SOL    HW136739   4.508   0.307   6.033 -0.6615  0.9075 -0.3698
11766SOL    HW236740   4.576   0.382   5.921  1.1991 -0.5420 -0.2757
11767SOL     OW36741   2.068   4.073   0.856 -0.0605  0.2290  0.6144
11767SOL    HW136742   2.040   3.988   0.891 -0.6319  0.1207 -0.0826
11767SOL    HW236743   1.989   4.108   0.815  0.6784  0.1745 -0.9048
11768SOL     OW36744   7.526   4.775   6.993 -0.0831  0.1447 -0.5540
11768SOL    HW136745   7.460   4.709   7.015 -0.3860  0.6750  0.1988
11768SOL    HW236746   7.513   4.843   7.059  0.1133  1.0302 -1.4180
11769SOL     OW36747   6.559   7.007   3.018  0.1132 -0.0427 -0.4937
11769SOL    HW136748   6.564   6.916   2.987 -0.7327  0.4265 -2.1276
11769SOL    HW236749   6.465   7.025   3.021  0.2813  0.8106 -0.2650
11770SOL     OW36750   2.974   1.094   7.627 -0.7347  0.1142 -0.7083
11770SOL    HW136751   2.954   1.011   7.671  2.1088 -0.7726 -0.8400
11770SOL    HW236752   2.942   1.083   7.538  0.9439 -1.5574 -1.1750
11771SOL     OW36753   2.534   7.266   9.357  0.1415  0.0924 -0.4149
11771SOL    HW136754   2.571   7.340   9.405  2.5524 -0.4105 -1.3484
11771SOL    HW236755   2.540   7.292   9.265 -0.9630 -0.4543 -0.6647
11772SOL     OW36756   0.816   5.308   7.063 -0.1104 -0.0021  0.0869
11772SOL    HW136757   0.905   5.274   7.073  0.4691  1.3544 -0.2659
11772SOL    HW236758   0.808   5.331   6.971 -0.2997  1.2444  0.3912
11773SOL     OW36759   2.112   7.551   8.394  0.1653 -0.5095  0.4431
11773SOL    HW136760   2.037   7.610   8.408  0.0771  0.1206 -2.1969
11773SOL    HW236761   2.072   7.465   8.382 -0.2406 -0.0728 -1.5877
11774SOL     OW36762   4.045   2.445   3.053 -0.0092 -0.3893  0.6780
11774SOL    HW136763   3.971   2.446   3.113  1.6636 -0.2127  2.8433
11774SOL    HW236764   4.094   2.525   3.073  0.5148 -0.1981 -1.1102
11775SOL     OW36765   7.374   3.166   9.938  0.0304 -0.3272 -0.0068
11775SOL    HW136766   7.373   3.234   9.871 -2.1434 -0.1682  0.1180
11775SOL    HW236767   7.323   3.202  10.010  1.6599 -0.8154  1.4529
11776SOL     OW36768   3.423   0.637   7.808  0.6837  0.4805 -0.3763
11776SOL    HW136769   3.468   0.636   7.724 -1.0694 -2.6885 -1.4554
11776SOL    HW236770   3.456   0.559   7.854  1.4719  2.0336  1.8928
11777SOL     OW36771   6.199   1.750   6.815  0.1753  0.2903  0.0569
11777SOL    HW136772   6.167   1.685   6.753  0.6254 -1.7209  1.8065
11777SOL    HW236773   6.280   1.783   6.776  1.2957 -2.0904  0.2189
11778SOL     OW36774   0.693   2.893   5.610 -0.4095  0.4834  0.4428
11778SOL    HW136775   0.777   2.923   5.576 -1.2833  3.6678  0.7174
11778SOL    HW236776   0.658   2.838   5.540  1.8262 -0.8775  0.3133
11779SOL     OW36777   5.704   2.360  12.198  0.0248  0.2315  0.1875
11779SOL    HW136778   5.785   2.370  12.148 -0.4789  1.9865 -0.3426
11779SOL    HW236779   5.700   2.438  12.253 -2.4339  1.3914 -1.4854
11780SOL     OW36780   2.574   4.343   7.253 -0.0305  0.0657 -0.2381
11780SOL    HW136781   2.595   4.402   7.326  0.3795  0.5130 -0.7145
11780SOL    HW236782   2.620   4.380   7.178  0.0938 -0.7714 -0.5823
11781SOL     OW36783   0.481   1.810   9.737  0.2183 -0.2007 -0.0945
11781SOL    HW136784   0.488   1.793   9.830  0.0455 -2.4752 -0.4377
11781SOL    HW236785   0.485   1.723   9.696 -3.0933  0.3658 -1.9776
11782SOL     OW36786   3.726   3.503   0.444 -0.3525 -0.4252 -0.2545
11782SOL    HW136787   3.637   3.492   0.476 -0.1796  0.6995  0.6707
11782SOL    HW236788   3.723   3.582   0.391 -0.2467 -1.3057 -1.6264
11783SOL     OW36789   0.846   1.697  11.670 -0.2230 -0.3294 -0.2053
11783SOL    HW136790   0.816   1.672  11.582  1.3650 -0.5131 -0.7300
11783SOL    HW236791   0.941   1.687  11.666  0.3400  3.4258  0.3092
11784SOL     OW36792   5.260   0.645   9.742 -0.3749 -0.4648  0.0491
11784SOL    HW136793   5.338   0.664   9.795  0.4340  0.2557 -1.3322
11784SOL    HW236794   5.193   0.705   9.777 -0.0901 -0.5231  0.7253
11785SOL     OW36795   3.598   2.025   2.466 -0.1179  0.3862  0.0968
11785SOL    HW136796   3.515   2.064   2.494  0.0872  0.6274  0.3799
11785SOL    HW236797   3.599   1.938   2.506 -0.6823 -0.0125 -0.7238
11786SOL     OW36798   5.306   0.014   7.597  0.0638 -0.2785 -0.2453
11786SOL    HW136799   5.266  -0.043   7.663 -2.0644  1.9990  0.5804
11786SOL    HW236800   5.398   0.018   7.622 -0.5050 -0.2375  2.1031
11787SOL     OW36801   2.649   1.514   4.746  0.4256  0.2249 -0.6832
11787SOL    HW136802   2.631   1.449   4.814  0.0253 -0.8552 -1.7806
11787SOL    HW236803   2.743   1.530   4.751  0.4076  0.1115  0.0722
11788SOL     OW36804   3.054   3.054  11.175 -0.0583  0.0367 -0.1672
11788SOL    HW136805   3.109   2.999  11.119  0.3784 -0.5200  0.7801
11788SOL    HW236806   3.100   3.057  11.259 -1.2303 -0.0422  0.5094
11789SOL     OW36807   7.913   5.187   4.991  0.1057  0.3796 -0.1449
11789SOL    HW136808   7.985   5.126   4.975  0.1767  0.5986 -0.6837
11789SOL    HW236809   7.894   5.225   4.905 -1.1971 -0.2709 -0.1655
11790SOL     OW36810   2.876   5.122   6.305 -0.4212  0.3009 -0.2341
11790SOL    HW136811   2.963   5.090   6.280 -0.3831  0.0684  0.1870
11790SOL    HW236812   2.840   5.159   6.224  0.0088  0.2656 -0.4476
11791SOL     OW36813   1.680   2.322   0.806  0.0457 -0.0512  0.3437
11791SOL    HW136814   1.608   2.333   0.868 -2.4902 -3.3135 -1.6910
11791SOL    HW236815   1.656   2.376   0.731 -0.0816 -0.7351 -0.1258
11792SOL     OW36816   5.002   7.735   7.132  0.1899  0.0141 -0.5145
11792SOL    HW136817   5.071   7.713   7.070  1.0474 -0.8313  0.6872
11792SOL    HW236818   4.990   7.655   7.184 -0.4847  0.6942  0.4174
11793SOL     OW36819   5.417   3.019   9.079 -0.1608 -0.8794  0.7114
11793SOL    HW136820   5.349   3.057   9.136 -1.7642 -3.6558  0.8182
11793SOL    HW236821   5.369   2.964   9.018  1.8215 -0.5442 -1.2805
11794SOL     OW36822   1.303   0.023   4.469  0.0610  0.0006 -0.1093
11794SOL    HW136823   1.242   0.096   4.469 -0.0899 -0.1081 -0.8736
11794SOL    HW236824   1.288  -0.023   4.551  0.3624  0.9935  0.5087
11795SOL     OW36825   3.569   4.090   6.764  0.2250  0.6538 -0.4505
11795SOL    HW136826   3.481   4.079   6.800  0.3281 -0.1747 -0.4284
11795SOL    HW236827   3.566   4.175   6.720 -0.5886  0.6258 -0.4731
11796SOL     OW36828   6.144   3.601   0.986  0.5321  0.0689  0.0259
11796SOL    HW136829   6.140   3.602   1.081 -0.3464  1.4515  0.0051
11796SOL    HW236830   6.067   3.550   0.959  1.7385 -1.8461  0.0469
11797SOL     OW36831   1.767   5.351  10.241 -0.0396  0.6720 -0.2508
11797SOL    HW136832   1.710   5.320  10.312  0.1717  1.5806  0.3305
11797SOL    HW236833   1.771   5.277  10.180 -1.3934  0.3834 -0.0354
11798SOL     OW36834   0.045   0.523   5.155  0.3755 -0.2342 -0.5364
11798SOL    HW136835   0.119   0.551   5.209 -0.7286  1.9854 -0.0598
11798SOL    HW236836  -0.022   0.497   5.219  0.0264 -0.2308 -0.8986
11799SOL     OW36837   2.418   6.124   7.477 -0.4824  0.0883  0.5099
11799SOL    HW136838   2.454   6.124   7.566 -0.6905  1.3143  0.6075
11799SOL    HW236839   2.403   6.032   7.458  2.5700 -0.5198  0.4950
11800SOL     OW36840   4.472   2.175   6.851 -0.2579  0.4965 -0.0367
11800SOL    HW136841   4.552   2.147   6.896  0.0398 -0.1647 -0.9394
11800SOL    HW236842   4.492   2.263   6.818 -0.1168  0.5716  0.2506
11801SOL     OW36843   2.617   0.886   0.011 -0.9130 -0.4330 -0.1664
11801SOL    HW136844   2.560   0.865   0.085  1.6260 -2.2803  1.4204
11801SOL    HW236845   2.661   0.967   0.038  1.0066 -1.8161  1.0781
11802SOL     OW36846   5.669   6.616  10.765  0.0223  0.0383  0.3944
11802SOL    HW136847   5.699   6.632  10.854  0.1870  1.3258  0.1174
11802SOL    HW236848   5.573   6.619  10.771  0.0463  1.2524  0.3401
11803SOL     OW36849   2.678   4.880   9.893 -0.2929 -0.4332  0.1636
11803SOL    HW136850   2.583   4.872   9.883 -0.2829  1.2311 -2.4088
11803SOL    HW236851   2.694   4.866   9.986 -3.2177  0.4482  0.9170
11804SOL     OW36852   7.336   3.872   3.452  0.4542  0.4767  0.3366
11804SOL    HW136853   7.271   3.811   3.417  0.1694  0.1126  1.4678
11804SOL    HW236854   7.285   3.939   3.498  0.8587  0.1369  1.3142
11805SOL     OW36855   7.746   0.561   3.240  0.3544 -0.2351  0.1968
11805SOL    HW136856   7.720   0.480   3.195  0.5516 -0.2915  0.1811
11805SOL    HW236857   7.780   0.531   3.324  1.9444 -0.3234 -0.4395
11806SOL     OW36858   2.135   7.024   5.997  0.6613  0.0608 -0.2297
11806SOL    HW136859   2.054   7.065   5.967  1.2713  1.4114 -0.1140
11806SOL    HW236860   2.108   6.938   6.030 -0.6159  0.2241 -0.8035
11807SOL     OW36861   1.550   1.625   6.437  0.0715  0.2807 -0.0728
11807SOL    HW136862   1.639   1.610   6.406  0.0673 -0.7377  0.3705
11807SOL    HW236863   1.527   1.712   6.403  0.8830  0.1580 -0.9824
11808SOL     OW36864   4.725   5.423   0.713 -1.0827  0.0789  0.0692
11808SOL    HW136865   4.795   5.418   0.778  0.4158  3.2573 -1.1094
11808SOL    HW236866   4.655   5.368   0.749 -0.3524  1.5952  4.3927
11809SOL     OW36867   3.114   7.003   0.357  0.2312  0.3642  1.3475
11809SOL    HW136868   3.098   6.909   0.355  1.2118  0.1580 -1.8151
11809SOL    HW236869   3.196   7.013   0.405  1.2119 -0.6500 -0.0533
11810SOL     OW36870   1.909   3.613  11.092 -0.2339 -0.2798 -0.4244
11810SOL    HW136871   1.849   3.559  11.143  0.2895 -1.5201 -1.0629
11810SOL    HW236872   1.945   3.675  11.155 -0.8660 -0.6611  0.3336
11811SOL     OW36873   5.438   6.711  12.228  0.3377 -0.1492  0.5641
11811SOL    HW136874   5.531   6.732  12.235  0.0123  3.0571 -2.1893
11811SOL    HW236875   5.435   6.634  12.171  1.3071  0.7695 -0.7809
11812SOL     OW36876   1.369   2.351   0.743 -0.0431 -0.5467 -0.1553
11812SOL    HW136877   1.381   2.261   0.775  0.6285 -0.6610 -0.7123
11812SOL    HW236878   1.402   2.349   0.653 -2.8590 -0.4815 -1.2676
11813SOL     OW36879   3.351   7.078   8.380 -0.2658  0.4751  0.2727
11813SOL    HW136880   3.256   7.068   8.375 -0.3298  1.7089 -1.5875
11813SOL    HW236881   3.379   7.096   8.291  1.7296  0.2584  0.7977
11814SOL     OW36882   5.914   5.637   5.092 -0.1679  0.3898 -0.2848
11814SOL    HW136883   5.863   5.623   5.172 -1.6823 -1.1748 -1.4403
11814SOL    HW236884   6.004   5.612   5.116 -0.8937 -1.6696  0.5374
11815SOL     OW36885   7.904   6.899   5.621 -0.1313  0.5103 -0.2255
11815SOL    HW136886   7.941   6.818   5.585  2.8276  1.1793  0.9998
11815SOL    HW236887   7.951   6.969   5.575 -2.2861  1.5808 -0.9177
11816SOL     OW36888   2.124   0.573   6.785 -0.1956 -0.3994 -0.1634
11816SOL    HW136889   2.135   0.528   6.701  0.1786 -1.2444  0.3175
11816SOL    HW236890   2.132   0.666   6.765 -2.0107 -0.4443 -1.3614
11817SOL     OW36891   4.431   6.567  12.271 -0.3720  0.1159  0.4096
11817SOL    HW136892   4.514   6.603  12.240  0.5278 -1.6047  0.6981
11817SOL    HW236893   4.430   6.477  12.238 -0.5393 -0.9969  3.1716
11818SOL     OW36894   2.329   5.209   4.042 -0.4984  0.0975 -0.1434
11818SOL    HW136895   2.371   5.144   3.986 -0.1363  1.8646 -2.0319
11818SOL    HW236896   2.401   5.261   4.077 -0.8171 -0.1238  0.8675
11819SOL     OW36897   1.275   6.600   7.488 -0.0947  0.0875 -0.2540
11819SOL    HW136898   1.345   6.536   7.498  0.2612 -0.1302 -3.1312
11819SOL    HW236899   1.319   6.685   7.487 -0.2512  0.1929  0.8812
11820SOL     OW36900   5.725   3.041   4.250  0.0087  0.1514  0.3602
11820SOL    HW136901   5.792   3.083   4.304  0.0927  0.0088  0.3665
11820SOL    HW236902   5.642   3.072   4.287  0.0683  0.1871  0.4645
11821SOL     OW36903   1.152   3.309   3.585 -0.2195  0.2303  0.3889
11821SOL    HW136904   1.075   3.266   3.624  1.0553 -1.9492  0.6753
11821SOL    HW236905   1.115   3.372   3.524 -2.2606 -0.6175  0.6416
11822SOL     OW36906   4.062   6.419   4.836 -0.3272  0.0908  0.0475
11822SOL    HW136907   4.090   6.503   4.799  0.1739  0.0630  0.3575
11822SOL    HW236908   4.024   6.442   4.921  1.1965 -0.1255  0.8342
11823SOL     OW36909   5.143   5.208  12.357  0.4202  0.3277 -0.3234
11823SOL    HW136910   5.203   5.198  12.431 -0.9619 -0.6226  0.7406
11823SOL    HW236911   5.120   5.118  12.333 -3.7747  0.4371  2.1542
11824SOL     OW36912   5.695   6.523   7.118  0.4958 -0.3136  0.4845
11824SOL    HW136913   5.779   6.481   7.100 -0.7813 -2.4003 -1.0216
11824SOL    HW236914   5.684   6.587   7.048 -0.4350 -2.1660 -1.1782
11825SOL     OW36915   2.252   7.152   9.300 -0.0043  0.0822  0.4512
11825SOL    HW136916   2.329   7.196   9.335  0.4964  1.0212 -1.6669
11825SOL    HW236917   2.228   7.088   9.367  1.8450  0.6365  1.7111
11826SOL     OW36918   2.567   5.336   5.278 -0.1238  0.2632  0.4304
11826SOL    HW136919   2.646   5.350   5.330 -0.6049  2.5520  0.6477
11826SOL    HW236920   2.521   5.264   5.322  1.6479 -0.8791  0.4777
11827SOL     OW36921   0.571   0.153  10.065 -0.0267 -0.5671  0.1214
11827SOL    HW136922   0.500   0.197  10.017  0.4893  0.5543  0.3461
11827SOL    HW236923   0.579   0.203  10.146  1.2822 -0.4307 -0.0759
11828SOL     OW36924   1.143   4.541  10.929 -0.0475 -0.4747  0.4214
11828SOL    HW136925   1.169   4.606  10.994 -1.9273 -0.4255  1.2053
11828SOL    HW236926   1.129   4.461  10.980  1.4957 -1.3149 -0.4197
11829SOL     OW36927   4.817   1.316   0.255  0.1960  0.1225 -0.1111
11829SOL    HW136928   4.747   1.261   0.291 -1.9439  1.9695 -1.2020
11829SOL    HW236929   4.852   1.363   0.331 -0.1131 -0.4124  0.3737
11830SOL     OW36930   5.547   0.745  10.949 -0.2734  0.3484  0.5916
11830SOL    HW136931   5.575   0.653  10.944  0.3472  0.4769  1.5643
11830SOL    HW236932   5.502   0.752  11.033 -0.0840  0.9914  0.6457
11831SOL     OW36933   4.305   6.358   3.939 -0.9922  0.2311 -0.0819
11831SOL    HW136934   4.327   6.341   3.847  0.8787 -1.1811  0.5702
11831SOL    HW236935   4.225   6.410   3.934 -0.9147  0.2747 -2.5095
11832SOL     OW36936   2.368   6.143   6.771  0.0293 -0.0408 -0.0685
11832SOL    HW136937   2.429   6.071   6.754  1.0005  0.7812 -0.1584
11832SOL    HW236938   2.350   6.138   6.865  0.9180  0.2178  0.1244
11833SOL     OW36939   2.833   3.619   0.779 -0.2585  0.3873 -0.3822
11833SOL    HW136940   2.748   3.638   0.740 -0.9628 -3.6978 -1.3562
11833SOL    HW236941   2.814   3.558   0.850  1.7827 -1.2052 -1.0768
11834SOL     OW36942   3.748   6.904   9.253  0.2191 -0.1755 -0.6271
11834SOL    HW136943   3.695   6.970   9.297  2.4203  1.4433 -0.2465
11834SOL    HW236944   3.801   6.953   9.190  1.0780 -1.7466 -1.1828
11835SOL     OW36945   1.824   1.053   9.958  0.3781 -0.3540 -0.4199
11835SOL    HW136946   1.742   1.094   9.930 -0.0760 -0.3991  0.7638
11835SOL    HW236947   1.892   1.100   9.911 -0.2463  0.6715 -0.3268
11836SOL     OW36948   3.471   4.526  10.450 -0.3248 -0.4247  0.0789
11836SOL    HW136949   3.392   4.490  10.410 -1.3596  0.8479  0.8606
11836SOL    HW236950   3.438   4.579  10.523  1.1701  1.0658 -0.2720
11837SOL     OW36951   2.554   5.534   1.945  0.5255  0.5748 -0.3255
11837SOL    HW136952   2.624   5.562   2.003 -0.2326  0.4220  0.7059
11837SOL    HW236953   2.531   5.446   1.977 -0.8434  1.0426  0.0807
11838SOL     OW36954   6.200   3.964  11.141  0.0465 -0.2711 -0.1563
11838SOL    HW136955   6.271   4.016  11.104 -0.6659  0.4061 -0.6014
11838SOL    HW236956   6.240   3.879  11.160  1.5284  0.7385  1.6551
11839SOL     OW36957   7.494   5.284   2.268 -0.4080  0.5109  0.2570
11839SOL    HW136958   7.495   5.271   2.363  1.5285  2.5768  0.6151
11839SOL    HW236959   7.571   5.237   2.236 -1.1248 -0.2914 -0.3424
11840SOL     OW36960   1.517   4.639   5.516 -0.1588  0.4446 -0.0149
11840SOL    HW136961   1.533   4.725   5.553  2.2031 -0.1290  0.4966
11840SOL    HW236962   1.504   4.655   5.422  0.2477  1.3632  0.0731
11841SOL     OW36963   0.406   0.512   2.455 -0.2785 -0.4034  0.0702
11841SOL    HW136964   0.327   0.532   2.406 -0.0005  0.9859  0.1567
11841SOL    HW236965   0.379   0.444   2.518 -0.9231 -1.3140 -1.1534
11842SOL     OW36966   5.572   3.975   5.484 -0.3932 -0.2791 -0.2349
11842SOL    HW136967   5.518   3.899   5.463 -0.5466 -0.3239  0.3112
11842SOL    HW236968   5.605   4.005   5.399  0.7882 -1.7703 -0.3538
11843SOL     OW36969   6.248   4.185   3.560  0.1417 -0.9266  0.1237
11843SOL    HW136970   6.199   4.223   3.487  0.5101  0.8727  0.7765
11843SOL    HW236971   6.188   4.191   3.634  0.4437 -1.0580  0.3787
11844SOL     OW36972   0.324   4.177   4.040  0.4344 -0.1422  1.2485
11844SOL    HW136973   0.358   4.249   4.092  0.9105  0.4616  0.1447
11844SOL    HW236974   0.284   4.219   3.963  1.0679 -1.0476  0.3942
11845SOL     OW36975   6.121   4.497   9.530 -0.1421 -0.4175 -0.2021
11845SOL    HW136976   6.072   4.436   9.585  0.3911 -2.2159 -1.5735
11845SOL    HW236977   6.213   4.478   9.549  0.0565  1.1697  0.5511
11846SOL     OW36978   5.799   0.759   5.189 -0.6379 -0.0909 -0.8573
11846SOL    HW136979   5.725   0.809   5.156 -0.5149 -0.2243 -1.3362
11846SOL    HW236980   5.793   0.674   5.146 -0.1295 -0.0562 -1.0093
11847SOL     OW36981   2.894   6.622   3.257  0.1207 -0.3370 -0.1674
11847SOL    HW136982   2.909   6.569   3.336 -0.7717  0.1412  0.3456
11847SOL    HW236983   2.976   6.669   3.243  0.7567 -1.4650 -0.3385
11848SOL     OW36984   7.157   3.654  10.602  0.0784 -0.7678  0.3969
11848SOL    HW136985   7.111   3.592  10.658 -0.5680 -1.6081 -0.9903
11848SOL    HW236986   7.087   3.694  10.549  0.7866 -0.9521 -0.7019
11849SOL     OW36987   5.305   1.021   8.429  0.0633  0.5518 -0.5177
11849SOL    HW136988   5.391   1.059   8.446 -0.1810  2.0241 -2.2833
11849SOL    HW236989   5.244   1.095   8.437 -1.0359 -0.4076  0.4428
11850SOL     OW36990   1.172   0.264   0.127  0.4246 -0.7670 -0.3902
11850SOL    HW136991   1.094   0.316   0.143 -0.6307 -2.3476 -0.1743
11850SOL    HW236992   1.141   0.190   0.076  1.9822 -0.9062 -1.1834
11851SOL     OW36993   6.651   7.545   2.354  0.6638 -0.6981  0.3433
11851SOL    HW136994   6.604   7.589   2.425  1.4150  0.7369 -0.0318
11851SOL    HW236995   6.740   7.535   2.387  0.5183 -1.9576  0.4160
11852SOL     OW36996   3.252   3.666   9.866  0.0946  0.1931 -0.3516
11852SOL    HW136997   3.227   3.726   9.795  0.5284 -0.4317 -1.0462
11852SOL    HW236998   3.345   3.647   9.849  0.6094  1.1830  1.2303
11853SOL     OW36999   2.014   5.673  11.253 -0.4294  0.0598  0.0208
11853SOL    HW137000   1.965   5.750  11.282  2.4863  1.9361  0.3752
11853SOL    HW237001   2.006   5.610  11.325 -2.7996 -0.0221 -0.2474
11854SOL     OW37002   5.501   6.787   5.529  0.1697 -0.1528 -0.3948
11854SOL    HW137003   5.495   6.743   5.445  2.1678  0.9981 -1.1816
11854SOL    HW237004   5.580   6.752   5.570 -0.5986 -0.4645  0.8833
11855SOL     OW37005   7.144   3.433   0.209 -0.2462 -0.1175 -0.0992
11855SOL    HW137006   7.161   3.339   0.209 -0.2680 -0.1413 -1.3712
11855SOL    HW237007   7.082   3.447   0.138  0.8219  1.0162 -0.8728
11856SOL     OW37008   4.996   2.924   4.909  0.1564  0.6189 -0.3216
11856SOL    HW137009   5.047   2.844   4.920 -1.7582 -0.4508  1.5511
11856SOL    HW237010   5.001   2.967   4.995  0.4007  2.0501 -1.0327
11857SOL     OW37011   0.254   3.092   0.191 -0.0592  0.0742  0.1834
11857SOL    HW137012   0.339   3.049   0.192 -0.2240 -0.2581  0.6760
11857SOL    HW237013   0.197   3.030   0.144 -0.0721  0.2089  0.0210
11858SOL     OW37014   5.628   0.505   5.068 -0.6563 -0.0485 -0.1809
11858SOL    HW137015   5.580   0.560   5.006 -0.3781 -0.0162 -0.3724
11858SOL    HW237016   5.658   0.431   5.015  0.8056  0.6809 -0.4274
11859SOL     OW37017   7.938   3.875   2.326 -0.1986 -0.2427  0.5419
11859SOL    HW137018   7.854   3.845   2.360 -0.6989  0.3788 -0.1188
11859SOL    HW237019   7.958   3.815   2.254 -0.9390  0.6331 -0.4303
11860SOL     OW37020   7.351   3.838  10.235 -0.1509  0.2031  0.0476
11860SOL    HW137021   7.357   3.860  10.328 -2.3736  1.0184  0.0644
11860SOL    HW237022   7.262   3.805  10.224 -0.2843  1.0738 -1.9597
11861SOL     OW37023   6.771   2.925   1.787  0.0210  0.3828 -0.9632
11861SOL    HW137024   6.695   2.984   1.783  0.0143  0.4356 -0.1054
11861SOL    HW237025   6.812   2.934   1.701 -0.7828  0.5746 -1.3386
11862SOL     OW37026   1.618   5.959  12.382 -0.0008  0.2195 -0.2653
11862SOL    HW137027   1.569   5.909  12.317  0.5631 -0.9270  0.1601
11862SOL    HW237028   1.564   5.954  12.461  0.1297  0.1628 -0.1808
11863SOL     OW37029   0.495   5.805   8.363  0.0545  0.5687  0.4521
11863SOL    HW137030   0.522   5.749   8.290  1.3593  0.4544  1.0011
11863SOL    HW237031   0.406   5.776   8.383  0.7442 -1.4618  0.8354
11864SOL     OW37032   1.334   1.504   9.974 -0.5035 -0.4873  0.0093
11864SOL    HW137033   1.267   1.566   9.947  0.9832  1.5478  0.7423
11864SOL    HW237034   1.407   1.519   9.915  0.9485  0.5595  1.9742
11865SOL     OW37035   0.378   5.345   4.518  0.4570 -0.0638  0.2000
11865SOL    HW137036   0.351   5.409   4.583  1.9035 -1.3154  2.1393
11865SOL    HW237037   0.454   5.302   4.556  1.4027 -0.8568 -2.3547
11866SOL     OW37038   6.652   5.993   3.633  0.1047  0.4584 -0.4954
11866SOL    HW137039   6.596   6.059   3.593  1.8391  1.6929 -0.9949
11866SOL    HW237040   6.621   5.910   3.596 -1.0013  1.1400 -1.1704
11867SOL     OW37041   2.031   7.847   0.865  0.0318 -0.4037  0.4626
11867SOL    HW137042   2.015   7.909   0.794 -0.6901 -0.8166  0.2454
11867SOL    HW237043   2.011   7.761   0.827 -0.0586 -0.6598  1.0655
11868SOL     OW37044   2.961   3.579   7.610  0.5238  0.0593 -0.5114
11868SOL    HW137045   2.991   3.498   7.651 -2.2339 -1.8866 -1.9775
11868SOL    HW237046   2.924   3.630   7.682 -1.4618 -1.9195  0.0036
11869SOL     OW37047   4.784   6.777  11.125  0.3213 -0.6670 -0.0173
11869SOL    HW137048   4.862   6.725  11.144  0.4740 -1.1519 -1.8538
11869SOL    HW237049   4.712   6.728  11.165  0.8365 -0.6473  0.9670
11870SOL     OW37050   4.019   6.784   0.782  0.0056  0.0342 -0.4445
11870SOL    HW137051   4.039   6.873   0.812 -1.9623  0.7447 -1.0917
11870SOL    HW237052   4.005   6.735   0.862 -2.0955  1.1418 -0.0792
11871SOL     OW37053   5.331   4.516   4.048  0.4896 -0.3299  0.3007
11871SOL    HW137054   5.287   4.583   3.996 -0.8985 -0.3606  1.3560
11871SOL    HW237055   5.361   4.562   4.127 -1.8980 -1.1473  1.8045
11872SOL     OW37056   3.176   0.259   5.391  0.1913  0.3708  0.2622
11872SOL    HW137057   3.162   0.164   5.389 -0.7595  0.4476  1.4780
11872SOL    HW237058   3.170   0.286   5.300  1.2469 -0.8199 -0.2027
11873SOL     OW37059   3.251   1.480   0.573  0.0793  0.1904 -0.5819
11873SOL    HW137060   3.299   1.491   0.655  0.9962 -0.7781 -0.9681
11873SOL    HW237061   3.208   1.395   0.581 -1.0776  0.7512 -0.5133
11874SOL     OW37062   0.073   2.587   0.851 -0.8037  0.1624 -0.1546
11874SOL    HW137063   0.049   2.561   0.762  2.4834 -0.1375 -1.1078
11874SOL    HW237064   0.132   2.517   0.881 -0.4752  1.1315  1.5835
11875SOL     OW37065   3.589   0.158   5.075 -0.4122 -0.5020 -0.4360
11875SOL    HW137066   3.651   0.087   5.059  0.2337 -0.0434 -0.0097
11875SOL    HW237067   3.504   0.114   5.085  0.1924 -1.3814  1.3460
11876SOL     OW37068   0.700   4.515   6.073 -0.4360  0.5481 -0.0666
11876SOL    HW137069   0.645   4.561   6.009  0.2322  1.1555 -0.2221
11876SOL    HW237070   0.718   4.581   6.139 -1.1009 -0.0715  0.7547
11877SOL     OW37071   6.658   3.336   7.556  0.3250  0.3884 -0.8430
11877SOL    HW137072   6.754   3.337   7.558  0.3114  1.1273 -0.5458
11877SOL    HW237073   6.631   3.407   7.614 -0.4415 -0.9811  0.5681
11878SOL     OW37074   2.930   0.590   2.033  0.4994  0.3242  0.6302
11878SOL    HW137075   2.916   0.596   1.939  1.3504  1.4964  0.5560
11878SOL    HW237076   2.858   0.639   2.072  0.6185  0.5616  0.5517
11879SOL     OW37077   1.513   4.675   0.640 -0.4715  0.2623  0.0762
11879SOL    HW137078   1.594   4.628   0.624 -0.9176 -0.4209 -0.2264
11879SOL    HW237079   1.541   4.765   0.660  0.3263  0.1682 -0.5521
11880SOL     OW37080   2.848   4.834  10.889 -0.0155 -0.2141  0.2353
11880SOL    HW137081   2.923   4.882  10.924  0.1189 -0.9907  1.0320
11880SOL    HW237082   2.796   4.901  10.844  1.1752  0.3276 -0.3962
11881SOL     OW37083   5.926   7.442   0.388 -0.8167  0.8547 -0.4153
11881SOL    HW137084   5.917   7.417   0.480 -0.6430 -0.8021 -0.8062
11881SOL    HW237085   5.989   7.514   0.388  2.6907 -1.8859  0.4827
11882SOL     OW37086   7.959   7.978   5.002  0.0426 -0.5037  0.1232
11882SOL    HW137087   7.930   7.895   4.964  0.7762 -1.0083  0.6344
11882SOL    HW237088   7.887   8.003   5.060 -0.1581 -0.8210  0.0173
11883SOL     OW37089   0.181   1.421   8.546 -0.1463  0.8193 -0.0617
11883SOL    HW137090   0.236   1.352   8.509 -0.1585  0.9659 -0.3568
11883SOL    HW237091   0.122   1.446   8.475 -0.6167  0.6484  0.2568
11884SOL     OW37092   7.661   6.126   9.101 -0.2196 -0.1685  0.2112
11884SOL    HW137093   7.671   6.198   9.164  0.6765 -0.9227  0.9726
11884SOL    HW237094   7.676   6.047   9.153 -1.3028 -0.9199 -0.5860
11885SOL     OW37095   6.074   5.776   1.900  0.2315  0.6551  0.0500
11885SOL    HW137096   6.036   5.803   1.983 -0.4727 -0.5537  0.1423
11885SOL    HW237097   6.164   5.808   1.903  0.3581  0.2128  1.4817
11886SOL     OW37098   3.322   4.408  11.861  0.1780 -0.6316  0.6394
11886SOL    HW137099   3.398   4.364  11.823 -1.6886 -1.3338 -2.6865
11886SOL    HW237100   3.271   4.338  11.901 -0.9545 -0.9883 -1.3303
11887SOL     OW37101   4.331   1.039  12.428 -0.3033  0.3332 -0.3618
11887SOL    HW137102   4.243   1.065  12.401 -0.0483  0.5994 -0.9622
11887SOL    HW237103   4.366   1.116  12.473 -0.0773  0.5347 -0.8672
11888SOL     OW37104   1.064   2.266   2.328  0.2800 -0.9892  0.1809
11888SOL    HW137105   1.088   2.278   2.420  1.1289 -0.7968 -0.0634
11888SOL    HW237106   0.997   2.333   2.312  1.8597  0.6263  0.0115
11889SOL     OW37107   6.528   2.395   8.096 -0.3999  0.0564  0.3004
11889SOL    HW137108   6.544   2.417   8.004  0.8059  1.8030  0.8685
11889SOL    HW237109   6.515   2.300   8.096  0.4019 -0.1027 -1.5675
11890SOL     OW37110   2.066   6.818  12.168 -0.1171 -0.4188  0.1087
11890SOL    HW137111   2.038   6.797  12.257  0.7843 -0.1534  0.4643
11890SOL    HW237112   2.148   6.866  12.179  0.2014 -0.7082 -0.8812
11891SOL     OW37113   0.654   5.081  10.106  0.2430 -0.0831  0.0515
11891SOL    HW137114   0.650   5.083  10.201  0.0987 -0.1786  0.0486
11891SOL    HW237115   0.741   5.115  10.084  0.1449  0.2801  0.2069
11892SOL     OW37116   6.735   3.027   1.473 -0.2790  0.0450  0.6565
11892SOL    HW137117   6.741   3.031   1.378 -1.9723 -0.1475  0.5021
11892SOL    HW237118   6.747   3.117   1.502  1.7491 -0.1070  0.4083
11893SOL     OW37119   6.431   2.482   2.735 -0.1802  0.3228  0.1213
11893SOL    HW137120   6.511   2.530   2.755  0.3117 -0.8255  1.0498
11893SOL    HW237121   6.415   2.499   2.642  0.6795  1.2200  0.1230
11894SOL     OW37122   4.255   5.498  11.666  0.1167  0.5668  0.3110
11894SOL    HW137123   4.183   5.522  11.724 -1.6958 -1.3739 -1.0306
11894SOL    HW237124   4.267   5.575  11.609  0.3427  1.5689  1.6528
11895SOL     OW37125   0.173   1.214   0.619 -0.3845  0.3553  0.2436
11895SOL    HW137126   0.106   1.282   0.624 -0.3309  0.4684 -0.5225
11895SOL    HW237127   0.225   1.225   0.699 -1.3777  0.1540  0.9429
11896SOL     OW37128   6.379   3.305   4.726 -0.6856  0.7328 -0.1161
11896SOL    HW137129   6.286   3.281   4.731 -0.5527  0.1785 -0.1377
11896SOL    HW237130   6.421   3.227   4.688  0.0040  0.3800  1.2963
11897SOL     OW37131   5.374   2.696   6.006  0.0440 -0.8669  0.0312
11897SOL    HW137132   5.446   2.666   5.950  1.5971  2.4662 -0.0092
11897SOL    HW237133   5.418   2.745   6.076 -2.1363  1.3042 -0.0092
11898SOL     OW37134   4.355   1.234   0.501  0.3390 -0.0652  0.7426
11898SOL    HW137135   4.260   1.222   0.508  0.4512 -0.4867  1.7409
11898SOL    HW237136   4.392   1.150   0.527  1.0168  0.6925  2.3981
11899SOL     OW37137   2.454   2.816   7.444 -0.3494  0.7591  0.3929
11899SOL    HW137138   2.431   2.907   7.422 -1.1054  0.5238  0.1814
11899SOL    HW237139   2.408   2.800   7.526 -1.1438  0.2117 -0.1440
11900SOL     OW37140   4.410   1.978  12.370 -0.1721 -0.0192 -0.3414
11900SOL    HW137141   4.472   2.033  12.321  1.4804 -1.4642  0.0072
11900SOL    HW237142   4.414   2.012  12.459 -1.0507  0.8381 -0.6145
11901SOL     OW37143   1.700   4.182   9.353 -0.1914 -0.0641  0.3204
11901SOL    HW137144   1.711   4.164   9.447 -1.4871  0.4936  0.6057
11901SOL    HW237145   1.629   4.246   9.350  0.1288  0.2426 -1.0289
11902SOL     OW37146   4.834   1.378   7.626  0.3534 -0.3606 -0.1602
11902SOL    HW137147   4.757   1.335   7.663  0.3339 -1.5160 -1.4758
11902SOL    HW237148   4.799   1.432   7.555  0.6001  0.4112  0.2837
11903SOL     OW37149   7.210   6.817  11.864 -0.2831  0.4907 -0.3064
11903SOL    HW137150   7.136   6.857  11.910 -1.2897 -0.0903 -1.3388
11903SOL    HW237151   7.203   6.850  11.774  1.3679  1.2561 -0.1818
11904SOL     OW37152   7.528   4.576   9.234  0.0175  0.2361  0.0886
11904SOL    HW137153   7.469   4.619   9.172  0.9779  1.1358 -0.2249
11904SOL    HW237154   7.612   4.619   9.221  0.9835 -1.5985 -0.0844
11905SOL     OW37155   5.037   2.136   1.647 -0.1168  0.8259  0.2207
11905SOL    HW137156   5.079   2.180   1.722 -0.8878  0.4727  0.8774
11905SOL    HW237157   4.979   2.072   1.687  1.7455 -1.5751 -0.6969
11906SOL     OW37158   1.803   2.149   8.956 -0.8149  0.2825 -0.5411
11906SOL    HW137159   1.788   2.181   8.867  1.8065  0.7877 -0.8788
11906SOL    HW237160   1.862   2.073   8.945  0.7145  1.2103  0.7771
11907SOL     OW37161   1.139   5.739   9.979 -0.3961 -0.0773  0.3431
11907SOL    HW137162   1.230   5.758  10.001  0.5294 -2.3227 -1.0895
11907SOL    HW237163   1.104   5.694  10.056 -0.2343  0.5901  0.8116
11908SOL     OW37164   4.271   2.932   9.435  0.2124  0.0219  0.6168
11908SOL    HW137165   4.263   2.969   9.348  0.9963 -2.0440 -0.4088
11908SOL    HW237166   4.277   3.007   9.494  1.5444  1.4728 -1.2880
11909SOL     OW37167   7.137   5.284   9.294 -0.2158  0.0142  0.6479
11909SOL    HW137168   7.172   5.195   9.282 -0.1864  0.0199  0.6901
11909SOL    HW237169   7.042   5.273   9.296 -0.1890 -0.1512  1.6824
11910SOL     OW37170   3.845   6.442   4.638  0.6393  0.3700 -0.4848
11910SOL    HW137171   3.786   6.370   4.619  0.4975  0.0947  0.8796
11910SOL    HW237172   3.903   6.408   4.707  0.0891  1.7743  0.7273
11911SOL     OW37173   1.663   4.286  11.350 -0.4344 -0.3676  0.4383
11911SOL    HW137174   1.647   4.230  11.426  0.8209 -1.7718 -0.2885
11911SOL    HW237175   1.679   4.225  11.278 -1.0038  0.9404 -0.8427
11912SOL     OW37176   4.149   5.292   9.474  0.1511  0.0794 -1.0632
11912SOL    HW137177   4.199   5.211   9.471 -0.6580 -0.5481  0.9840
11912SOL    HW237178   4.207   5.355   9.518 -0.1906 -0.1710 -0.2304
11913SOL     OW37179   3.689   1.141   0.017  0.1412 -0.0567 -0.2998
11913SOL    HW137180   3.672   1.135   0.111 -0.0575  0.2022 -0.3189
11913SOL    HW237181   3.617   1.092  -0.023 -0.1625  0.4210 -0.3468
11914SOL     OW37182   4.550   4.479  10.345 -0.4352  0.1713 -0.0706
11914SOL    HW137183   4.463   4.456  10.315  0.5520 -3.4518 -0.6306
11914SOL    HW237184   4.586   4.535  10.276 -1.2600 -0.8871 -1.4046
11915SOL     OW37185   2.290   0.244  10.542 -0.6199  0.5267 -0.7492
11915SOL    HW137186   2.335   0.246  10.458 -2.2047 -1.3294 -1.7175
11915SOL    HW237187   2.343   0.184  10.596  0.2143  1.4595 -0.5079
11916SOL     OW37188   3.080   7.363   0.559  0.1609 -0.1285  0.0830
11916SOL    HW137189   3.133   7.335   0.484 -0.2301  0.8521 -0.5738
11916SOL    HW237190   3.007   7.410   0.520 -0.8447 -0.8780  1.0255
11917SOL     OW37191   3.588   4.335  11.788  0.6525  0.4145  0.2672
11917SOL    HW137192   3.631   4.406  11.740  1.6850 -1.2794 -1.4934
11917SOL    HW237193   3.654   4.265  11.790 -0.7240 -0.9209  0.8658
11918SOL     OW37194   5.413   0.906   1.504 -0.3367 -0.3662 -0.2928
11918SOL    HW137195   5.480   0.872   1.446 -0.3572 -2.2146  0.6916
11918SOL    HW237196   5.351   0.834   1.514 -0.6971  0.1400  1.4602
11919SOL     OW37197   1.902   5.538  12.259 -0.0520 -0.1205  0.3955
11919SOL    HW137198   1.927   5.570  12.345  2.1091 -0.0493 -0.1986
11919SOL    HW237199   1.939   5.450  12.254  0.3030  0.0647 -0.6197
11920SOL     OW37200   0.830   6.478   4.077  0.7138  0.7156  0.0994
11920SOL    HW137201   0.832   6.537   4.153  2.2090 -0.2530  0.8824
11920SOL    HW237202   0.845   6.391   4.115  2.1411  0.2858 -1.3568
11921SOL     OW37203   5.830   0.804   8.831 -0.3642  0.4108  0.2977
11921SOL    HW137204   5.800   0.829   8.919  1.5422  0.9118  0.8633
11921SOL    HW237205   5.769   0.847   8.772 -2.1738 -0.5792  1.3557
11922SOL     OW37206   7.312   6.545   2.169  0.2319 -0.4924  0.0760
11922SOL    HW137207   7.224   6.551   2.207 -0.5850  0.2207 -1.7766
11922SOL    HW237208   7.322   6.453   2.147 -0.2278 -0.5145 -0.0641
11923SOL     OW37209   6.357   1.847  11.956  0.2342 -0.2247  0.0088
11923SOL    HW137210   6.283   1.814  11.906 -0.7772 -0.6533  1.7309
11923SOL    HW237211   6.405   1.903  11.894  0.0263 -2.0721 -1.9361
11924SOL     OW37212   4.592   7.374  12.342 -0.2902 -0.5918 -0.6833
11924SOL    HW137213   4.544   7.324  12.407 -0.0292  2.2957  1.9461
11924SOL    HW237214   4.555   7.462  12.346  1.4624  0.3416 -2.6417
11925SOL     OW37215   5.404   7.804   6.621 -0.1729 -0.2514 -0.0379
11925SOL    HW137216   5.444   7.771   6.701 -1.2005  1.1084  1.0803
11925SOL    HW237217   5.314   7.825   6.646 -0.0290  1.8396 -1.0786
11926SOL     OW37218   4.926   0.157   8.679 -0.0337 -0.2473 -0.0065
11926SOL    HW137219   4.903   0.102   8.754  2.1290  0.6148  1.3818
11926SOL    HW237220   4.993   0.107   8.633 -0.1629 -0.0377 -0.4243
11927SOL     OW37221   5.951   5.502   6.930 -0.0029  0.1570  0.1282
11927SOL    HW137222   6.018   5.530   6.992 -0.7302  0.1215  0.9471
11927SOL    HW237223   5.873   5.489   6.983 -0.8266  0.7665 -0.8887
11928SOL     OW37224   5.140   1.227   9.104 -0.2086  0.1057 -0.1533
11928SOL    HW137225   5.075   1.182   9.158  0.1663  0.2020  0.3932
11928SOL    HW237226   5.139   1.182   9.020 -0.4751 -0.3414  0.0917
11929SOL     OW37227   3.389   4.615   2.621 -0.5616  0.0492  0.2250
11929SOL    HW137228   3.420   4.692   2.572  0.1295 -0.0935  0.4212
11929SOL    HW237229   3.410   4.541   2.564  0.5073 -0.1432  0.8396
11930SOL     OW37230   4.782   6.670   6.249 -0.1204 -0.3576 -0.1807
11930SOL    HW137231   4.825   6.742   6.204 -0.8613 -0.1073 -0.4952
11930SOL    HW237232   4.815   6.676   6.339  2.1241 -1.4515 -0.8384
11931SOL     OW37233   5.962   5.349   9.518 -0.0482 -0.0107  0.0275
11931SOL    HW137234   5.981   5.285   9.450  0.2583 -1.3661  1.3418
11931SOL    HW237235   5.949   5.297   9.598  0.4614  1.5574  1.1886
11932SOL     OW37236   6.284   2.980  11.742 -0.3155  0.5079  0.6180
11932SOL    HW137237   6.284   3.018  11.654  0.0833 -0.6452  0.0884
11932SOL    HW237238   6.377   2.981  11.767 -0.4653  1.1136  1.1638
11933SOL     OW37239   2.532   7.268   7.696  0.3147 -0.4488 -0.0008
11933SOL    HW137240   2.604   7.330   7.702  0.3691 -0.6745  3.5284
11933SOL    HW237241   2.572   7.185   7.669  1.2138 -0.3099  0.8816
11934SOL     OW37242   6.747   1.784   5.632 -0.0448  0.0157 -0.1426
11934SOL    HW137243   6.662   1.803   5.592  0.7110  0.7944 -1.4586
11934SOL    HW237244   6.729   1.775   5.725 -1.9821 -2.3577 -0.6366
11935SOL     OW37245   3.166   1.614   9.512 -0.4484 -0.0250 -0.3601
11935SOL    HW137246   3.093   1.556   9.534 -1.1991  1.1291  0.3528
11935SOL    HW237247   3.135   1.701   9.538  1.8448  0.2867  1.6868
11936SOL     OW37248   2.858   0.442   3.646 -0.2900 -0.4338 -0.2758
11936SOL    HW137249   2.808   0.520   3.625 -1.0143 -0.9933 -0.6623
11936SOL    HW237250   2.928   0.439   3.581 -0.2999 -0.1530 -0.2997
11937SOL     OW37251   3.015   1.760   2.095  0.0410  0.1221 -0.2661
11937SOL    HW137252   2.996   1.799   2.180  2.1992 -1.6800  1.1519
11937SOL    HW237253   3.013   1.833   2.034 -1.2042  1.5332  1.3665
11938SOL     OW37254   5.376   0.388   8.030  0.3571 -0.0729  0.9143
11938SOL    HW137255   5.372   0.302   7.989  0.7470  1.3702 -2.4702
11938SOL    HW237256   5.432   0.376   8.107 -0.7904 -3.0669  1.4052
11939SOL     OW37257   2.678   0.277   0.552  0.3587 -1.0831 -0.1599
11939SOL    HW137258   2.651   0.273   0.460  0.9052 -0.6992 -0.3413
11939SOL    HW237259   2.766   0.314   0.550 -0.0724  0.0275  0.6037
11940SOL     OW37260   6.481   3.690   7.260 -0.1689 -1.0342 -0.5339
11940SOL    HW137261   6.414   3.757   7.248  1.4970  0.6582 -0.9501
11940SOL    HW237262   6.441   3.610   7.228 -1.4933  0.1975 -2.1771
11941SOL     OW37263   3.926   2.892   3.608  0.0672  0.1403 -0.0391
11941SOL    HW137264   3.915   2.970   3.554  0.2786 -0.3947 -0.8672
11941SOL    HW237265   4.009   2.855   3.580 -0.8065 -1.2863 -0.8275
11942SOL     OW37266   1.397   0.298  12.086 -0.0469  0.4768  0.1838
11942SOL    HW137267   1.485   0.285  12.049 -0.5280 -0.0009 -0.8512
11942SOL    HW237268   1.368   0.209  12.110  0.3034  0.7890  1.8832
11943SOL     OW37269   3.419   7.260  10.985  0.3990 -0.2819 -0.0730
11943SOL    HW137270   3.409   7.305  10.902  1.2531  0.7143  0.3432
11943SOL    HW237271   3.391   7.323  11.051 -0.2480 -1.0532  0.4121
11944SOL     OW37272   6.454   4.458   1.646 -0.2957  0.0835  0.4777
11944SOL    HW137273   6.407   4.470   1.729  1.4033 -0.0659  1.5156
11944SOL    HW237274   6.496   4.543   1.631  1.4209 -0.6264  1.1132
11945SOL     OW37275   6.836   7.062   7.151 -0.2537 -0.5453  0.1751
11945SOL    HW137276   6.793   7.109   7.223  1.4336  0.7655  0.3813
11945SOL    HW237277   6.779   6.986   7.135 -1.9991  0.4755  1.1902
11946SOL     OW37278   6.578   2.477   2.004 -0.3282  0.3942 -0.1488
11946SOL    HW137279   6.573   2.388   1.969 -0.1110  0.6152 -0.7516
11946SOL    HW237280   6.567   2.533   1.927 -2.2959  0.9206  0.4504
11947SOL     OW37281   2.181   3.432  10.654  0.0052 -0.3962 -0.4057
11947SOL    HW137282   2.085   3.432  10.652 -0.0913 -0.8254  1.7839
11947SOL    HW237283   2.203   3.502  10.715  1.0976 -0.2507 -0.9575
11948SOL     OW37284   2.169   0.796  10.149 -0.1728  0.4805  0.6712
11948SOL    HW137285   2.199   0.708  10.125  0.4825  0.6626  0.8120
11948SOL    HW237286   2.237   0.829  10.208  0.4173  1.6993 -0.6399
11949SOL     OW37287   1.692   3.306   3.403  0.1519  0.3231  0.0551
11949SOL    HW137288   1.637   3.254   3.461 -0.4210  0.5321 -0.2869
11949SOL    HW237289   1.640   3.385   3.386  0.7729  0.7538  0.1240
11950SOL     OW37290   4.093   2.050   5.833  0.4260  0.0926  0.3148
11950SOL    HW137291   4.081   2.128   5.888  0.9102  0.3344  0.0868
11950SOL    HW237292   4.140   1.988   5.889 -0.1170 -0.1025  0.5549
11951SOL     OW37293   5.979   7.809   1.170  0.0969  0.1244  0.3740
11951SOL    HW137294   6.049   7.830   1.108  0.1919 -1.6669 -0.1878
11951SOL    HW237295   6.013   7.837   1.255  2.8446 -3.2966  0.5968
11952SOL     OW37296   7.874   4.100   5.850  0.2510 -0.3123 -0.5276
11952SOL    HW137297   7.812   4.139   5.911 -2.3035 -2.8147 -1.2964
11952SOL    HW237298   7.882   4.164   5.779 -1.2913  0.1555 -0.2998
11953SOL     OW37299   4.342   0.597   6.920 -0.8349  0.3986 -0.1557
11953SOL    HW137300   4.410   0.659   6.946 -0.5685  0.7652 -1.6354
11953SOL    HW237301   4.278   0.650   6.873 -0.2860 -0.5073 -2.0060
11954SOL     OW37302   4.009   1.436   9.119  0.4366 -0.1979  0.0196
11954SOL    HW137303   3.921   1.401   9.136 -0.0772  0.2828 -1.4433
11954SOL    HW237304   4.004   1.528   9.144  0.6339 -0.2563  0.2744
11955SOL     OW37305   7.054   1.150  11.941  0.0243  0.7502  0.1166
11955SOL    HW137306   7.007   1.146  12.025 -0.1989  1.1104  0.0101
11955SOL    HW237307   7.061   1.058  11.913  0.5463  0.5812  0.7760
11956SOL     OW37308   1.304   7.888   1.268 -0.0048 -0.0043  0.3240
11956SOL    HW137309   1.333   7.954   1.205 -0.9913 -0.6053 -0.7824
11956SOL    HW237310   1.370   7.892   1.338  1.0073  0.8140 -0.6300
11957SOL     OW37311   2.834   0.002   1.973 -0.1829 -0.2367 -0.1451
11957SOL    HW137312   2.815   0.028   2.063  0.8540  1.0986 -0.2699
11957SOL    HW237313   2.785   0.064   1.919 -0.3307 -0.6595 -0.5028
11958SOL     OW37314   4.254   2.857   2.199  0.1234  0.6126 -0.7408
11958SOL    HW137315   4.315   2.793   2.235 -0.4838  0.8045  0.6886
11958SOL    HW237316   4.296   2.888   2.119  2.1325  1.1009  0.4528
11959SOL     OW37317   5.482   0.099   0.271 -0.2702 -0.0368 -0.2315
11959SOL    HW137318   5.479   0.158   0.346 -2.6003 -0.6593  0.2593
11959SOL    HW237319   5.395   0.059   0.269  1.0626 -3.1908 -0.7510
11960SOL     OW37320   6.281   4.284   4.291  0.4738  0.1946  0.2166
11960SOL    HW137321   6.270   4.219   4.360  0.0554  1.6688  1.5889
11960SOL    HW237322   6.212   4.264   4.227  1.9043 -2.2385 -0.7281
11961SOL     OW37323   7.702   0.018   0.903  0.4083  0.2206  0.4784
11961SOL    HW137324   7.721   0.106   0.936  5.0727  0.0264 -0.9128
11961SOL    HW237325   7.703   0.028   0.808  1.8903 -1.3649  0.2761
11962SOL     OW37326   2.692   3.822  10.002 -0.1816 -0.0005  0.0102
11962SOL    HW137327   2.779   3.781  10.000  0.7460  1.8520  0.2865
11962SOL    HW237328   2.669   3.834   9.910  0.9430  1.5882 -0.1109
11963SOL     OW37329   2.639   5.307   9.777 -0.0686 -0.0990  0.1320
11963SOL    HW137330   2.587   5.246   9.829  0.3860 -0.3490  0.3028
11963SOL    HW237331   2.609   5.293   9.687  0.7585 -1.3511  0.0231
11964SOL     OW37332   1.536   7.070  10.595  0.0122  0.3708 -0.6697
11964SOL    HW137333   1.572   7.079  10.507  1.3303  1.2580 -0.0721
11964SOL    HW237334   1.612   7.077  10.653 -0.8414 -0.0750  0.5553
11965SOL     OW37335   6.131   4.623   5.943 -0.4066  0.5633 -0.2008
11965SOL    HW137336   6.082   4.542   5.933  0.6043 -0.3665  1.8908
11965SOL    HW237337   6.077   4.678   5.999  0.0278  0.3133  0.4773
11966SOL     OW37338   6.772   5.830  10.544 -0.0521 -0.1009 -0.2516
11966SOL    HW137339   6.769   5.739  10.512 -0.8964  0.1721 -0.9925
11966SOL    HW237340   6.865   5.848  10.558  0.1811 -0.8469 -0.7892
11967SOL     OW37341   2.069   3.789   4.315 -0.0119 -0.0205  0.3637
11967SOL    HW137342   2.163   3.770   4.314 -0.0444 -0.2094 -0.9720
11967SOL    HW237343   2.057   3.854   4.246 -0.9566 -0.4962  0.0652
11968SOL     OW37344   1.535   4.621   5.244 -0.9918 -0.2836 -0.2938
11968SOL    HW137345   1.616   4.639   5.198 -1.7056  2.0070 -0.7671
11968SOL    HW237346   1.495   4.548   5.196  0.4594 -1.0365 -0.4019
11969SOL     OW37347   0.757   6.274   0.183 -0.5765 -0.3976  0.1253
11969SOL    HW137348   0.837   6.297   0.136 -1.6278  0.4611 -1.3442
11969SOL    HW237349   0.743   6.181   0.163  1.3669 -1.3146  2.5177
11970SOL     OW37350   4.212   7.507  10.401 -0.1169  0.0625  0.8190
11970SOL    HW137351   4.249   7.550  10.324  0.0249 -0.2084  0.7340
11970SOL    HW237352   4.287   7.465  10.443  0.0483  1.3397  1.8575
11971SOL     OW37353   6.213   0.778   0.169 -0.4107 -0.4802  0.0989
11971SOL    HW137354   6.220   0.823   0.254  0.7603 -1.1122  0.3624
11971SOL    HW237355   6.120   0.758   0.160 -0.5747 -0.2823  1.1781
11972SOL     OW37356   7.151   6.785   0.041  0.4740 -0.1335  0.4789
11972SOL    HW137357   7.187   6.774  -0.047  0.1654 -1.4269  0.4971
11972SOL    HW237358   7.216   6.837   0.087  0.9210  0.0466 -0.3325
11973SOL     OW37359   4.993   2.714   1.856 -0.7463 -0.5358 -0.0693
11973SOL    HW137360   4.974   2.663   1.777 -0.9512  1.4618 -1.3911
11973SOL    HW237361   4.930   2.786   1.854  2.0583  2.1398 -0.6302
11974SOL     OW37362   2.715   2.215   1.238 -0.7497  0.0360  0.6592
11974SOL    HW137363   2.775   2.261   1.179 -2.5070 -0.8577 -2.0091
11974SOL    HW237364   2.771   2.159   1.291  0.9090  0.4284 -0.6023
11975SOL     OW37365   7.587   0.797   9.419  0.0540  0.2160  0.2248
11975SOL    HW137366   7.608   0.737   9.490 -2.1997 -0.1601  0.6357
11975SOL    HW237367   7.649   0.870   9.430  1.9539 -1.3558  0.5005
11976SOL     OW37368   2.359   3.014   1.334 -0.5074  0.2077  0.7275
11976SOL    HW137369   2.452   2.997   1.348 -0.2232 -0.3627 -1.5259
11976SOL    HW237370   2.333   3.068   1.409  1.9008  1.3254  0.8368
11977SOL     OW37371   7.882   5.842   4.777 -0.0825  0.5086  0.3113
11977SOL    HW137372   7.903   5.911   4.840  0.7212  0.4225  0.1456
11977SOL    HW237373   7.910   5.878   4.692 -1.2741  0.6784 -0.0290
11978SOL     OW37374   0.568   7.496   8.440  0.3391 -0.4499 -0.4399
11978SOL    HW137375   0.538   7.584   8.419 -0.4595 -0.8554 -1.0327
11978SOL    HW237376   0.528   7.476   8.524 -2.8788 -1.7689 -2.1230
11979SOL     OW37377   2.224   2.609   6.068 -0.1975 -0.0314 -0.5683
11979SOL    HW137378   2.300   2.588   6.123 -0.3555 -0.7129 -0.5940
11979SOL    HW237379   2.172   2.669   6.121 -0.5490 -0.9860  0.1993
11980SOL     OW37380   5.841   0.195  11.338  0.0209 -0.1295  0.0120
11980SOL    HW137381   5.802   0.153  11.262 -2.8471  0.8330  0.8388
11980SOL    HW237382   5.831   0.289  11.323  0.9213  0.1225  0.8390
11981SOL     OW37383   6.901   7.441   3.606  0.1549 -0.4680 -0.4715
11981SOL    HW137384   6.856   7.359   3.586  0.5631 -0.6371 -0.7030
11981SOL    HW237385   6.888   7.496   3.528  0.8750 -0.7484 -0.7945
11982SOL     OW37386   3.466   2.442   4.618  0.1262 -0.7493  0.2779
11982SOL    HW137387   3.404   2.371   4.635 -1.1873  0.4444  0.6563
11982SOL    HW237388   3.504   2.421   4.533  0.1057 -2.1350  0.5878
11983SOL     OW37389   0.902   4.155  10.939  0.3654  0.6521  0.1941
11983SOL    HW137390   0.936   4.229  10.889  0.1230  0.3577 -0.4180
11983SOL    HW237391   0.829   4.191  10.989  0.2845  0.8446 -0.0569
11984SOL     OW37392   2.884   0.014   7.061 -0.3429  0.1453  0.3446
11984SOL    HW137393   2.849  -0.070   7.032  0.5464  0.1222 -0.7319
11984SOL    HW237394   2.978   0.000   7.067 -0.1936  1.0523  0.2224
11985SOL     OW37395   3.977   7.067   0.392 -0.1272  0.1495  0.0923
11985SOL    HW137396   3.911   7.115   0.343  1.4923  1.7374 -0.6577
11985SOL    HW237397   4.010   7.002   0.330  2.5081  2.6956 -1.4145
11986SOL     OW37398   7.093   4.957   1.663  0.6954 -0.1673  0.4040
11986SOL    HW137399   7.094   4.861   1.660  3.2865 -0.2026 -2.1838
11986SOL    HW237400   7.033   4.982   1.594 -1.5533  0.2127  2.3707
11987SOL     OW37401   2.210   3.256  12.269 -0.2004  0.2909  0.0392
11987SOL    HW137402   2.261   3.175  12.271 -0.2539  0.2281 -0.8869
11987SOL    HW237403   2.235   3.302  12.349  1.9849  0.6684 -0.7906
11988SOL     OW37404   5.189   0.226  10.525 -0.2919  0.1886 -0.5454
11988SOL    HW137405   5.254   0.181  10.473 -0.6048 -0.5013 -0.3491
11988SOL    HW237406   5.220   0.317  10.530 -0.2893  0.2833 -1.9730
11989SOL     OW37407   5.811   1.087  10.151 -0.0656 -0.3518 -0.2126
11989SOL    HW137408   5.788   1.169  10.195 -0.3054  0.1001 -1.1485
11989SOL    HW237409   5.729   1.038  10.147 -0.5804  0.5549 -2.0774
11990SOL     OW37410   1.816   1.777  12.042 -0.0439  0.3556 -0.3863
11990SOL    HW137411   1.727   1.744  12.055  0.7038 -1.8443 -0.4596
11990SOL    HW237412   1.804   1.866  12.008 -2.2563 -0.6033 -2.3700
11991SOL     OW37413   0.138   4.864   5.301  0.1446  0.0720 -0.2656
11991SOL    HW137414   0.205   4.910   5.251  1.4284 -2.0590 -0.6050
11991SOL    HW237415   0.056   4.886   5.257  0.8104  1.1850 -1.0130
11992SOL     OW37416   5.399   4.387   7.469 -0.3230 -0.4671  0.0297
11992SOL    HW137417   5.492   4.366   7.464 -0.2786 -0.0948 -1.2269
11992SOL    HW237418   5.372   4.360   7.557  1.1728  0.2773  0.7524
11993SOL     OW37419   2.113   7.464   3.630  0.3580  0.2027  0.0326
11993SOL    HW137420   2.107   7.418   3.714  1.0479 -1.2757 -0.6790
11993SOL    HW237421   2.103   7.556   3.652  1.9979  0.0080  1.9474
11994SOL     OW37422   1.115   6.606   6.031 -0.0087 -0.1914  0.2867
11994SOL    HW137423   1.070   6.562   5.958 -1.5408  0.2524  0.9161
11994SOL    HW237424   1.191   6.647   5.991 -0.6406 -0.2313 -1.0175
11995SOL     OW37425   2.306   0.177   8.147  0.2759  0.8628  0.4585
11995SOL    HW137426   2.211   0.185   8.136  0.2250 -1.9521 -2.8986
11995SOL    HW237427   2.342   0.244   8.089  0.3803  1.5067  1.2488
11996SOL     OW37428   5.456   4.061   0.712 -0.5187  0.2357  0.0426
11996SOL    HW137429   5.519   4.105   0.655  0.6528 -0.4963  0.7429
11996SOL    HW237430   5.430   4.128   0.776 -0.6874  0.6172 -0.4163
11997SOL     OW37431   2.386   1.062   6.005 -0.5874 -0.7140  0.0357
11997SOL    HW137432   2.293   1.047   5.994 -0.2654 -1.0084 -2.9412
11997SOL    HW237433   2.397   1.156   5.991 -0.5332 -0.4405  1.6763
11998SOL     OW37434   6.919   1.856   4.610 -0.6344 -0.6207 -0.2965
11998SOL    HW137435   6.933   1.890   4.522 -0.9276  1.6524  0.4628
11998SOL    HW237436   6.837   1.808   4.605 -1.1129  0.2595 -1.0745
11999SOL     OW37437   2.194   7.569   2.247 -0.3503 -0.4563 -0.4757
11999SOL    HW137438   2.278   7.596   2.284 -0.6388  0.7552 -0.6672
11999SOL    HW237439   2.204   7.583   2.152 -1.0168  0.4161 -0.4264
12000SOL     OW37440   0.729   0.792   9.656 -0.2682  0.4025 -0.0989
12000SOL    HW137441   0.819   0.822   9.648 -0.8204  2.1886 -0.0840
12000SOL    HW237442   0.735   0.709   9.703  1.5593 -0.8951 -2.4165
12001SOL     OW37443   4.472   2.650   9.171  0.5820  0.0347  0.3174
12001SOL    HW137444   4.454   2.561   9.198  1.1202 -0.4906 -0.9523
12001SOL    HW237445   4.554   2.673   9.215  0.1433  0.1369  1.1043
12002SOL     OW37446   1.140   7.893   4.008  0.5147  0.0993 -0.2333
12002SOL    HW137447   1.103   7.806   3.994 -0.9258  0.6540 -0.0298
12002SOL    HW237448   1.208   7.901   3.940 -0.7826 -0.3698 -1.6531
12003SOL     OW37449   5.057   4.011   2.031 -0.4700 -0.1939 -0.0157
12003SOL    HW137450   5.133   3.954   2.037  0.6951  1.0988 -1.6189
12003SOL    HW237451   5.019   3.992   1.946 -1.7270 -0.5245  0.5965
12004SOL     OW37452   5.303   0.178   7.894 -0.2366 -0.4557 -0.1639
12004SOL    HW137453   5.309   0.084   7.876  1.2160 -0.2555 -0.8460
12004SOL    HW237454   5.331   0.220   7.813 -1.6130  0.6113 -0.1363
12005SOL     OW37455   1.481   4.001  10.642 -0.5309  0.1550 -0.3938
12005SOL    HW137456   1.447   3.964  10.723  0.5930  0.5444  0.2703
12005SOL    HW237457   1.407   3.997  10.581 -1.5683  0.3780  0.8118
12006SOL     OW37458   4.473   3.593   0.003 -0.1214 -0.5604  0.5948
12006SOL    HW137459   4.395   3.597  -0.052  0.3379  0.9131  0.0151
12006SOL    HW237460   4.537   3.546  -0.050 -0.0214 -0.0890  0.2914
12007SOL     OW37461   6.397   2.958   5.790  0.0847  0.0660 -0.0683
12007SOL    HW137462   6.303   2.941   5.802  0.3120 -0.9081  0.3957
12007SOL    HW237463   6.408   3.049   5.821 -0.7287  0.2468 -0.2807
12008SOL     OW37464   3.099   5.178   9.897 -0.3252  0.0532  0.4212
12008SOL    HW137465   3.074   5.117   9.827  1.0886  0.2263 -0.2751
12008SOL    HW237466   3.119   5.121   9.972 -3.3925 -0.0602  1.2888
12009SOL     OW37467   4.733   6.392   7.316 -0.1392 -0.0394  0.6310
12009SOL    HW137468   4.720   6.299   7.337  0.7621  0.0995  1.9199
12009SOL    HW237469   4.787   6.390   7.237 -0.8095 -0.6002  0.1732
12010SOL     OW37470   5.196   2.927   5.972  0.1948  0.4741 -0.2960
12010SOL    HW137471   5.261   2.998   5.975  0.5281  0.1866 -0.7539
12010SOL    HW237472   5.247   2.847   5.980 -0.0743  0.2307 -0.9834
12011SOL     OW37473   3.192   1.123   3.098  0.4779 -0.2062 -0.5054
12011SOL    HW137474   3.228   1.134   3.010 -0.1843  3.1169 -0.5083
12011SOL    HW237475   3.097   1.120   3.084  0.3930 -0.1784  0.0435
12012SOL     OW37476   1.524   2.679  12.056 -0.3964  0.1449 -0.3758
12012SOL    HW137477   1.540   2.772  12.040  1.2203  0.0443  0.4765
12012SOL    HW237478   1.599   2.650  12.108 -1.0056 -1.5827 -0.3952
12013SOL     OW37479   1.387   2.943   7.699 -0.5374  0.0018  0.0309
12013SOL    HW137480   1.319   2.879   7.721 -0.7802  0.6989  1.3616
12013SOL    HW237481   1.340   3.022   7.674 -0.3255  1.1140  2.7433
12014SOL     OW37482   2.522   1.094   1.446 -0.1770  0.1052 -0.1109
12014SOL    HW137483   2.533   1.004   1.418  0.2765 -0.0421  0.5121
12014SOL    HW237484   2.427   1.109   1.441 -0.2109 -0.2540 -0.6438
12015SOL     OW37485   6.814   4.562   1.782  0.1645  0.1610 -0.4136
12015SOL    HW137486   6.833   4.656   1.782  1.6628 -0.1244 -0.0186
12015SOL    HW237487   6.746   4.551   1.849  1.2964  0.7364  0.8817
12016SOL     OW37488   2.990   3.016   7.798 -0.0450 -0.1702 -0.0840
12016SOL    HW137489   2.942   2.934   7.782  1.4663 -0.9621 -0.8107
12016SOL    HW237490   2.935   3.084   7.760 -1.6014 -0.7540  1.0192
12017SOL     OW37491   1.984   5.218  12.133  0.4988 -0.1707  0.0193
12017SOL    HW137492   1.969   5.227  12.227  1.2229  0.3016  0.0966
12017SOL    HW237493   1.959   5.128  12.113 -0.6563  0.0448  0.4676
12018SOL     OW37494   4.335   0.229   6.483 -0.3136  0.0235  0.4699
12018SOL    HW137495   4.383   0.299   6.527  1.0082 -0.6438  0.1506
12018SOL    HW237496   4.396   0.155   6.485 -1.0169 -0.5959 -0.7038
12019SOL     OW37497   4.551   3.368   1.951  0.5503 -0.5099  0.2490
12019SOL    HW137498   4.518   3.290   1.995  0.8743 -0.7840  0.0092
12019SOL    HW237499   4.480   3.432   1.959  1.0349 -0.1572  2.1739
12020SOL     OW37500   4.449   2.454   6.184 -0.2463  0.1929 -0.2368
12020SOL    HW137501   4.493   2.434   6.101 -0.6400 -1.3400 -0.1028
12020SOL    HW237502   4.386   2.523   6.162 -2.2716 -2.0227 -1.8590
12021SOL     OW37503   0.808   5.197   0.979  0.4494 -0.3954 -0.2660
12021SOL    HW137504   0.888   5.145   0.984  0.5318 -0.2535 -0.0590
12021SOL    HW237505   0.758   5.158   0.908  1.4828  0.6043 -1.5867
12022SOL     OW37506   6.429   6.531   5.162  0.1873  0.7110  0.7979
12022SOL    HW137507   6.392   6.521   5.074 -0.4553  0.1303  1.1260
12022SOL    HW237508   6.487   6.607   5.155  0.1630  0.6518 -0.1328
12023SOL     OW37509   2.380   0.035   1.771 -0.1429  0.2745 -0.4044
12023SOL    HW137510   2.315   0.061   1.837 -0.0457 -1.8521  0.6003
12023SOL    HW237511   2.339   0.058   1.688 -0.6632  2.1931  0.3066
12024SOL     OW37512   6.162   7.201   1.032 -0.3405  0.1313  0.2858
12024SOL    HW137513   6.135   7.225   0.943 -2.0225 -0.3889  0.6221
12024SOL    HW237514   6.178   7.107   1.028 -0.0803  0.1669  0.4626
12025SOL     OW37515   5.269   3.527   9.548  0.6941 -0.3441 -0.0242
12025SOL    HW137516   5.253   3.585   9.623  1.8389  0.3390 -0.2910
12025SOL    HW237517   5.212   3.452   9.564  1.7345 -0.7547  2.1662
12026SOL     OW37518   6.848   2.434   1.439 -0.1049 -0.1676 -0.0793
12026SOL    HW137519   6.795   2.470   1.510  0.0614  1.0702 -0.5684
12026SOL    HW237520   6.854   2.505   1.375  2.4844 -0.1169  0.1314
12027SOL     OW37521   5.779   2.540   1.911 -0.2236 -0.3083  0.2217
12027SOL    HW137522   5.752   2.538   1.819 -1.4339  1.0356  0.4964
12027SOL    HW237523   5.862   2.588   1.911 -0.6318  0.4228 -0.1105
12028SOL     OW37524   3.073   3.526  11.297  0.0109 -0.1535  0.2064
12028SOL    HW137525   3.053   3.499  11.207 -0.6588  0.6102  0.1166
12028SOL    HW237526   2.988   3.551  11.333  0.5449  1.4331  0.4127
12029SOL     OW37527   7.261   5.524   2.710  0.0032  0.4399  0.1269
12029SOL    HW137528   7.279   5.587   2.779  0.2731  0.1952  0.2824
12029SOL    HW237529   7.347   5.489   2.687 -0.2982 -1.0775  1.1971
12030SOL     OW37530   5.178   5.836  10.925 -0.6863 -0.1372 -0.3637
12030SOL    HW137531   5.144   5.882  10.848 -3.4273 -1.4354 -0.0287
12030SOL    HW237532   5.265   5.806  10.898 -0.5901  1.4609 -2.0706
12031SOL     OW37533   6.917   5.206   3.262  0.0007 -0.0674  0.2377
12031SOL    HW137534   6.953   5.271   3.322  0.0634  0.9964 -0.9117
12031SOL    HW237535   6.991   5.183   3.205 -0.5203  0.3801 -0.6399
12032SOL     OW37536   6.802   0.714   3.542 -0.2580 -0.2882  0.2811
12032SOL    HW137537   6.790   0.635   3.593  1.5151 -1.1474 -0.5211
12032SOL    HW237538   6.821   0.782   3.607 -0.5865 -0.7818  0.9041
12033SOL     OW37539   6.686   1.142   0.304  0.3342  0.3895 -0.2662
12033SOL    HW137540   6.644   1.085   0.240 -1.3722  0.4143  0.7739
12033SOL    HW237541   6.778   1.145   0.277  0.2682 -2.0035 -0.9339
12034SOL     OW37542   3.260   4.237   0.289  0.5899  0.8700  0.2651
12034SOL    HW137543   3.171   4.258   0.260  0.5141 -0.0142 -0.1723
12034SOL    HW237544   3.248   4.194   0.374  0.2640 -2.3537 -1.2486
12035SOL     OW37545   6.941   7.209   3.906 -0.0657  0.0536 -0.0316
12035SOL    HW137546   6.917   7.140   3.845 -0.1111 -0.0194  0.0698
12035SOL    HW237547   7.012   7.172   3.958 -0.3548 -0.0531  0.2837
12036SOL     OW37548   1.438   4.514   2.490  0.3149 -0.0034 -0.3078
12036SOL    HW137549   1.514   4.481   2.537 -0.9744  0.2267  2.1017
12036SOL    HW237550   1.396   4.437   2.453  1.2615 -0.2107 -0.9729
12037SOL     OW37551   3.608   7.392   4.898  0.5150  0.2315  0.1858
12037SOL    HW137552   3.640   7.413   4.810 -0.7863  0.7590 -0.1935
12037SOL    HW237553   3.532   7.449   4.910 -0.3213 -1.0054  1.0078
12038SOL     OW37554   6.742   5.775   5.249  0.1439  0.0334  0.0383
12038SOL    HW137555   6.746   5.716   5.324  0.1179 -0.3999 -0.2938
12038SOL    HW237556   6.652   5.809   5.251  0.2073  0.1865  0.3245
12039SOL     OW37557   1.014   6.794  12.106  0.1679 -0.2646 -0.6375
12039SOL    HW137558   1.101   6.814  12.071  0.5055  0.6551  0.6306
12039SOL    HW237559   1.015   6.699  12.121  2.6103  0.1310  3.2936
12040SOL     OW37560   5.812   5.802   3.557  0.0009  0.3050 -0.3196
12040SOL    HW137561   5.890   5.855   3.542 -0.1426  0.6570  0.1705
12040SOL    HW237562   5.842   5.732   3.615  0.4150 -0.7165 -1.6948
12041SOL     OW37563   7.558   6.463   5.414 -0.2808 -0.5164  0.6739
12041SOL    HW137564   7.533   6.371   5.421  0.2969 -0.6824  0.5617
12041SOL    HW237565   7.652   6.462   5.395 -0.3172  0.0877  0.4181
12042SOL     OW37566   0.653   2.059   4.162 -0.4067  0.0963 -0.3502
12042SOL    HW137567   0.696   2.136   4.123 -1.6883  0.9456 -0.1441
12042SOL    HW237568   0.560   2.077   4.153 -0.7247 -0.9334  0.7265
12043SOL     OW37569   6.384   0.336   1.665 -0.1993 -0.3936 -0.6914
12043SOL    HW137570   6.460   0.284   1.639 -1.5517 -2.3884 -0.8797
12043SOL    HW237571   6.406   0.369   1.752  0.9277 -0.8389 -0.7959
12044SOL     OW37572   0.363   7.007   5.765 -0.0208  0.4210 -0.6682
12044SOL    HW137573   0.325   6.925   5.734 -0.6189  1.1153 -1.8396
12044SOL    HW237574   0.290   7.052   5.809  0.4896  0.0258  0.6418
12045SOL     OW37575   2.772   0.100  11.565 -0.2924  1.1527 -0.6613
12045SOL    HW137576   2.854   0.124  11.609  0.1788  0.4019 -1.0992
12045SOL    HW237577   2.740   0.024  11.615  0.2520  0.2886 -1.5848
12046SOL     OW37578   1.640   0.441   3.372  0.2499 -0.1165 -0.5480
12046SOL    HW137579   1.702   0.492   3.425  1.9049 -2.8794  0.3750
12046SOL    HW237580   1.555   0.456   3.413  0.8939  0.8106  0.5045
12047SOL     OW37581   2.026   7.276   1.495 -0.4467  0.3021  0.0061
12047SOL    HW137582   1.959   7.233   1.441  0.9282 -0.9163 -0.8359
12047SOL    HW237583   1.983   7.292   1.579 -2.7240  2.3959 -1.4200
12048SOL     OW37584   2.193   2.574   3.973  0.5140  0.7354 -0.4740
12048SOL    HW137585   2.200   2.639   3.903  2.3817  1.3253  0.2179
12048SOL    HW237586   2.276   2.526   3.970 -0.2525 -0.6824 -0.0348
12049SOL     OW37587   5.674   4.357   6.609 -0.3290 -0.3533 -0.2322
12049SOL    HW137588   5.666   4.304   6.688 -2.4200  0.9068  0.4840
12049SOL    HW237589   5.723   4.435   6.637 -2.6672  0.9807  0.3984
12050SOL     OW37590   2.296   4.501   7.439  0.1923  0.5884 -0.3070
12050SOL    HW137591   2.391   4.513   7.441  0.3308 -0.4432  0.5988
12050SOL    HW237592   2.285   4.409   7.414 -0.5132  0.2440  1.2095
12051SOL     OW37593   0.034   3.323   8.716  0.2951 -0.0909  0.3720
12051SOL    HW137594   0.054   3.302   8.625 -1.3882 -0.1745 -0.0223
12051SOL    HW237595  -0.049   3.276   8.733 -0.1250  1.0190  1.5035
12052SOL     OW37596   5.318   5.685   9.175  0.1142  0.1344  0.8540
12052SOL    HW137597   5.380   5.756   9.162 -0.0407  0.2199  0.5743
12052SOL    HW237598   5.253   5.720   9.236  0.3186  0.0557  1.1211
12053SOL     OW37599   4.521   7.496   9.000  0.2320 -0.1789 -0.2138
12053SOL    HW137600   4.604   7.452   8.984  0.2721  0.1334 -0.8968
12053SOL    HW237601   4.519   7.511   9.094  0.6080 -0.8527 -0.0895
12054SOL     OW37602   2.515   3.159   8.917  0.2994 -0.0853 -0.3596
12054SOL    HW137603   2.580   3.224   8.946  0.1555 -0.9865  2.2651
12054SOL    HW237604   2.480   3.123   8.998 -0.1157 -3.0058 -1.7178
12055SOL     OW37605   5.487   0.169  10.738 -0.2601 -0.1481  0.5813
12055SOL    HW137606   5.446   0.203  10.818 -4.3566 -1.4637 -0.7017
12055SOL    HW237607   5.476   0.240  10.674  3.2966  1.0329  1.0709
12056SOL     OW37608   7.383   1.919   0.900  0.3233 -0.1816  0.1994
12056SOL    HW137609   7.447   1.986   0.923  0.0575  0.6733 -1.3966
12056SOL    HW237610   7.436   1.842   0.878  0.7368  0.1187  0.1336
12057SOL     OW37611   5.669   4.124   5.695  0.5241  0.5614 -0.1689
12057SOL    HW137612   5.689   4.054   5.757  1.4272  1.3897  0.5224
12057SOL    HW237613   5.631   4.080   5.619  0.0374 -0.5477  0.6996
12058SOL     OW37614   6.592   6.186   2.745 -1.0150  0.9851  0.2980
12058SOL    HW137615   6.581   6.138   2.663  1.3239  1.1310 -0.1923
12058SOL    HW237616   6.559   6.273   2.727 -0.3893  1.0585 -0.5782
12059SOL     OW37617   6.723   7.344  11.614  0.2070  0.0956 -0.3763
12059SOL    HW137618   6.637   7.359  11.575 -0.7069 -1.7471  0.8145
12059SOL    HW237619   6.784   7.355  11.541 -1.0452  1.0652 -1.3242
12060SOL     OW37620   2.151   3.488   8.469 -0.1878  0.1585 -0.1516
12060SOL    HW137621   2.153   3.576   8.431 -1.6915  0.1141 -0.3968
12060SOL    HW237622   2.147   3.430   8.393 -1.3325 -0.0131  0.0245
12061SOL     OW37623   2.842   4.364   2.681 -0.2270 -0.2947  0.3017
12061SOL    HW137624   2.899   4.323   2.616  0.2815  0.6203  0.1457
12061SOL    HW237625   2.754   4.351   2.647  0.0912  1.7668 -1.6082
12062SOL     OW37626   1.139   5.014   0.440 -0.0323 -0.1528 -0.6910
12062SOL    HW137627   1.170   5.094   0.396  0.7857 -0.4993 -0.7556
12062SOL    HW237628   1.071   5.045   0.500 -1.2859  0.3153 -2.2794
12063SOL     OW37629   0.096   2.200   3.690 -0.0407  0.6342  0.0605
12063SOL    HW137630   0.126   2.198   3.600  0.8922  0.4726  0.3628
12063SOL    HW237631   0.024   2.262   3.691  0.6993  1.5202 -0.5728
12064SOL     OW37632   2.221   7.656   4.920 -0.1173  0.1671 -0.0716
12064SOL    HW137633   2.175   7.575   4.899  0.1709  0.7216 -3.5760
12064SOL    HW237634   2.156   7.711   4.961 -1.0081 -0.9836  0.1156
12065SOL     OW37635   3.117   6.443   0.364  0.0873 -0.1090 -0.0177
12065SOL    HW137636   3.092   6.535   0.371 -1.1540 -0.3830 -0.6172
12065SOL    HW237637   3.039   6.399   0.330  0.3350 -1.5453  1.1438
12066SOL     OW37638   5.900   0.657   7.340 -0.1294  0.4375 -0.4540
12066SOL    HW137639   5.826   0.603   7.312  0.9553 -1.2195 -0.2674
12066SOL    HW237640   5.885   0.672   7.433 -0.0513 -0.2115 -0.3329
12067SOL     OW37641   1.223   6.950   4.644 -0.2957 -0.1946  0.3267
12067SOL    HW137642   1.145   6.935   4.590 -0.0256 -0.5221  0.0203
12067SOL    HW237643   1.269   7.022   4.601 -0.7447  0.4223  0.8625
12068SOL     OW37644   6.078   0.596   6.692  0.2983 -0.1315 -0.3966
12068SOL    HW137645   5.987   0.567   6.691  0.5605 -1.0610  0.6894
12068SOL    HW237646   6.081   0.665   6.759  0.2065  0.6433 -1.1618
12069SOL     OW37647   1.912   5.496   8.927  0.3709 -0.3060  0.1408
12069SOL    HW137648   1.860   5.448   8.992  0.6993 -1.8732 -0.7006
12069SOL    HW237649   1.869   5.581   8.921 -0.5286 -0.6320  1.3585
12070SOL     OW37650   7.607   2.746   1.226 -1.0774  0.2535 -0.4848
12070SOL    HW137651   7.617   2.723   1.133 -1.2256 -0.8314 -0.2411
12070SOL    HW237652   7.649   2.674   1.273 -0.3826  1.1470  0.2886
12071SOL     OW37653   4.970   1.523   5.379  0.4808  0.1211  0.3449
12071SOL    HW137654   5.059   1.521   5.345 -0.1526 -1.6932 -1.3532
12071SOL    HW237655   4.966   1.449   5.440 -0.1736 -0.5634 -0.5046
12072SOL     OW37656   0.925   1.029   0.181 -0.4943  0.1527  0.1146
12072SOL    HW137657   0.969   0.983   0.109  0.5752 -0.7357  1.2779
12072SOL    HW237658   0.997   1.054   0.239 -1.4303 -0.0970  1.3949
12073SOL     OW37659   1.162   1.911   1.487 -0.4013  0.1439  0.4745
12073SOL    HW137660   1.207   1.841   1.533 -0.1604  0.2316  0.3708
12073SOL    HW237661   1.078   1.920   1.533 -1.0714 -1.2080 -0.3989
12074SOL     OW37662   5.951   4.851   6.178  0.5363  0.2960  0.2792
12074SOL    HW137663   5.993   4.920   6.228  2.1229 -0.1564 -0.3702
12074SOL    HW237664   5.956   4.774   6.235 -0.0773  0.4025  0.4855
12075SOL     OW37665   4.937   2.821   0.438 -0.4001 -0.5229 -0.1809
12075SOL    HW137666   4.936   2.834   0.533  0.0087  1.3316 -0.3884
12075SOL    HW237667   5.030   2.824   0.415 -0.5569  0.1890 -0.7607
12076SOL     OW37668   7.713   5.057   7.679 -0.2734 -0.4893 -0.6349
12076SOL    HW137669   7.774   5.106   7.624 -1.7975  2.4606  0.1011
12076SOL    HW237670   7.664   5.003   7.618  0.0900  0.4494 -1.7875
12077SOL     OW37671   6.844   6.785   2.878 -0.2548  0.0055 -0.1581
12077SOL    HW137672   6.907   6.795   2.806  0.6211 -2.1351  0.2485
12077SOL    HW237673   6.897   6.756   2.952 -1.2814  1.2814  1.1477
12078SOL     OW37674   7.602   4.758  11.535  0.5420 -0.0679 -0.4256
12078SOL    HW137675   7.678   4.724  11.582  0.4750  0.8836  0.4208
12078SOL    HW237676   7.637   4.790  11.452  0.8584 -0.7494 -0.5564
12079SOL     OW37677   1.262   4.493   9.407  0.1030  0.7209 -0.0970
12079SOL    HW137678   1.217   4.447   9.477  1.7781  0.9491  1.2080
12079SOL    HW237679   1.199   4.558   9.375 -1.1257 -0.2424  0.3137
12080SOL     OW37680   3.508   2.871   3.898 -0.1160 -0.0262  0.3392
12080SOL    HW137681   3.558   2.868   3.816  0.3332 -0.4862  0.6332
12080SOL    HW237682   3.523   2.960   3.931 -2.1395  0.9997 -1.2116
12081SOL     OW37683   2.817   4.464   6.573  0.8550  0.4272  0.4569
12081SOL    HW137684   2.838   4.461   6.480  0.0425 -1.6165  0.2997
12081SOL    HW237685   2.901   4.451   6.617  1.4834  2.8123  0.1053
12082SOL     OW37686   2.934   0.151   3.790  0.2145  0.1811 -0.7910
12082SOL    HW137687   2.907   0.061   3.773  1.1033 -0.1448 -0.5082
12082SOL    HW237688   2.990   0.174   3.715  0.8427  0.1313 -0.3427
12083SOL     OW37689   2.355   6.657   3.395  0.3152 -0.2914  0.3093
12083SOL    HW137690   2.273   6.646   3.348  0.5451  2.0493 -0.8305
12083SOL    HW237691   2.419   6.607   3.345  0.0450  0.0164 -0.3527
12084SOL     OW37692   6.080   7.881   6.516  0.4221 -0.2168 -0.0702
12084SOL    HW137693   6.133   7.937   6.459 -0.7472  1.8198  0.7466
12084SOL    HW237694   6.111   7.792   6.497  0.7952  0.4360 -3.0952
12085SOL     OW37695   7.083   1.097   0.382  0.3313 -0.2471  0.4520
12085SOL    HW137696   7.106   1.181   0.422 -0.3511  0.3258 -0.3392
12085SOL    HW237697   7.052   1.119   0.295  1.4307 -1.4417 -0.2884
12086SOL     OW37698   1.810   0.017  10.041  0.0759 -0.0266 -0.2795
12086SOL    HW137699   1.806   0.049   9.951  0.7417  0.3344 -0.1854
12086SOL    HW237700   1.902  -0.006  10.054 -0.0452 -0.2213  0.2616
12087SOL     OW37701   0.137   6.873   2.339 -0.3033 -0.3619  0.1865
12087SOL    HW137702   0.109   6.935   2.406  1.9587  1.1987 -0.2136
12087SOL    HW237703   0.223   6.843   2.369  1.9874  2.2862 -3.0726
12088SOL     OW37704   4.378   7.162   3.699  0.0395  0.5150  0.5930
12088SOL    HW137705   4.344   7.152   3.610 -0.0330  0.9134  0.5758
12088SOL    HW237706   4.467   7.195   3.688  0.4531 -0.5354  0.6387
12089SOL     OW37707   5.699   6.899   5.235  0.2830 -0.5830  0.2497
12089SOL    HW137708   5.631   6.957   5.202  0.0732 -0.3032  1.1322
12089SOL    HW237709   5.670   6.811   5.210  0.6361 -0.3266 -1.1451
12090SOL     OW37710   3.908   1.867   0.094 -0.2715 -0.4501  0.3158
12090SOL    HW137711   3.901   1.778   0.127 -1.8246 -0.8205 -0.9078
12090SOL    HW237712   3.988   1.868   0.042 -1.0054 -1.5902 -0.8949
12091SOL     OW37713   0.242   1.695   4.710  0.3579 -0.1242  0.6522
12091SOL    HW137714   0.153   1.665   4.690  0.4096  0.2548 -0.2096
12091SOL    HW237715   0.236   1.790   4.707  1.1096 -0.0926 -0.9985
12092SOL     OW37716   0.516   5.769   4.920  0.3313 -0.2076  0.3269
12092SOL    HW137717   0.457   5.826   4.869  0.7147  1.9690  2.1447
12092SOL    HW237718   0.573   5.729   4.854 -0.0230  1.4576 -1.0827
12093SOL     OW37719   4.112   1.343   8.634 -0.5665 -0.2404  0.4444
12093SOL    HW137720   4.061   1.352   8.715  0.1476 -0.1115  0.8835
12093SOL    HW237721   4.063   1.279   8.582 -2.3556  1.4658 -0.0714
12094SOL     OW37722   7.277   7.671   3.102  0.2496 -0.6175 -0.4814
12094SOL    HW137723   7.346   7.737   3.112 -0.1152 -0.0229 -1.6993
12094SOL    HW237724   7.212   7.693   3.168  0.9485 -0.8435  0.3020
12095SOL     OW37725   2.998   0.716   0.317  0.0988 -0.0959 -0.0048
12095SOL    HW137726   3.012   0.678   0.230 -0.2059  3.5480 -1.8554
12095SOL    HW237727   2.912   0.682   0.344  0.0803 -1.1139 -1.2565
12096SOL     OW37728   0.215   4.896   8.210  0.0686 -0.3981 -0.1850
12096SOL    HW137729   0.304   4.863   8.224  0.1485 -0.7506 -1.4073
12096SOL    HW237730   0.173   4.830   8.155 -1.3509 -0.8279  1.3368
12097SOL     OW37731   4.876   5.436  10.942  0.0106  0.3545 -0.0274
12097SOL    HW137732   4.905   5.496  10.874 -1.1323  2.1071  0.9611
12097SOL    HW237733   4.948   5.435  11.006  0.8499 -0.8719 -0.9538
12098SOL     OW37734   1.416   0.707   5.778 -0.1284  0.6784 -0.0610
12098SOL    HW137735   1.507   0.709   5.749 -0.4998  2.9807 -1.2591
12098SOL    HW237736   1.372   0.650   5.716  0.5654 -0.9850  0.9116
12099SOL     OW37737   3.607   0.607   8.722  0.1772 -0.6383  0.6175
12099SOL    HW137738   3.629   0.568   8.807  0.1171 -1.4155  0.2829
12099SOL    HW237739   3.514   0.589   8.710  0.4817 -1.7518 -0.2288
12100SOL     OW37740   2.861   2.186  10.365  0.3244  0.2520  0.3832
12100SOL    HW137741   2.934   2.124  10.358  1.4213  1.6387 -1.0891
12100SOL    HW237742   2.783   2.132  10.349  1.2376 -0.7800 -0.7713
12101SOL     OW37743   6.135   2.952   2.272 -0.5214 -0.2648  0.5250
12101SOL    HW137744   6.056   2.963   2.219  0.0955  0.1800 -0.3346
12101SOL    HW237745   6.181   3.036   2.263  0.0810 -0.5447  0.9557
12102SOL     OW37746   2.544   5.321   2.731  0.3481  0.2709 -0.6175
12102SOL    HW137747   2.474   5.292   2.790  0.5411  0.1858 -0.4270
12102SOL    HW237748   2.599   5.378   2.785  1.2589 -0.8370 -0.3258
12103SOL     OW37749   0.819   5.983   7.736  0.3699  0.0703 -0.5599
12103SOL    HW137750   0.840   6.050   7.801 -0.6096  1.4447 -1.5817
12103SOL    HW237751   0.828   6.028   7.652 -0.9122 -0.8969 -1.2552
12104SOL     OW37752   1.276   2.706   6.999 -0.0917  0.9072  0.1141
12104SOL    HW137753   1.269   2.670   6.910 -0.3441  0.5736  0.2627
12104SOL    HW237754   1.357   2.756   6.999  0.4710  0.0149  0.0026
12105SOL     OW37755   0.720   0.135   2.120  0.1265  0.1123 -0.2038
12105SOL    HW137756   0.800   0.163   2.165  0.0926 -0.0154 -0.0615
12105SOL    HW237757   0.696   0.209   2.064 -0.4224  0.6940  0.7755
12106SOL     OW37758   1.140   0.358   5.331  0.1651 -0.4727 -0.1124
12106SOL    HW137759   1.207   0.361   5.262 -1.2763 -0.2568 -1.5600
12106SOL    HW237760   1.099   0.444   5.329  0.4212 -0.2841  1.4057
12107SOL     OW37761   0.142   3.482   9.001 -0.3915 -0.4897 -0.5239
12107SOL    HW137762   0.104   3.487   9.089  0.4858 -0.2244 -0.1527
12107SOL    HW237763   0.192   3.401   9.001 -0.6160 -0.6335 -0.8810
12108SOL     OW37764   0.572   4.909   5.012  0.3573 -0.5279 -0.2161
12108SOL    HW137765   0.478   4.899   5.031  0.4137  0.9301  0.9579
12108SOL    HW237766   0.578   4.898   4.917 -1.0633 -0.2464 -0.3639
12109SOL     OW37767   1.112   7.356   4.784 -0.4248 -0.0730 -0.2980
12109SOL    HW137768   1.095   7.441   4.824 -1.0996 -0.8590  1.1517
12109SOL    HW237769   1.194   7.369   4.735 -0.1722  1.2260  0.4169
12110SOL     OW37770   0.902   3.508   5.691  0.6641 -0.2468 -0.4229
12110SOL    HW137771   0.849   3.528   5.768  0.9989 -1.3393  0.1109
12110SOL    HW237772   0.845   3.528   5.616  0.2105  0.4777  0.1047
12111SOL     OW37773   0.537   4.882   4.728  0.2249 -0.3975  0.0805
12111SOL    HW137774   0.485   4.803   4.715  1.6303 -1.3463 -0.1054
12111SOL    HW237775   0.474   4.953   4.732 -1.0919 -1.5483  0.3762
12112SOL     OW37776   3.419   3.393   0.087  0.4315  0.5112 -0.4003
12112SOL    HW137777   3.421   3.471   0.030  0.4181  0.2117 -0.8147
12112SOL    HW237778   3.511   3.368   0.096  0.7592  2.1817  1.9963
12113SOL     OW37779   7.099   0.922   1.325 -0.2164  0.2536  0.0007
12113SOL    HW137780   7.179   0.972   1.342  0.4369 -0.9526  0.6564
12113SOL    HW237781   7.028   0.981   1.350  0.4521  1.3197 -0.5110
12114SOL     OW37782   1.952   1.030   7.025  0.3223 -0.2897  0.4142
12114SOL    HW137783   1.871   0.990   6.994  0.1933 -0.7888  1.3397
12114SOL    HW237784   1.954   1.116   6.983  0.8756 -1.4212 -2.0525
12115SOL     OW37785   7.391   1.431   1.601 -0.0658 -0.3190 -0.3924
12115SOL    HW137786   7.324   1.409   1.666  0.4441 -0.8917 -0.0591
12115SOL    HW237787   7.453   1.487   1.648  0.6204 -1.2137 -0.2065
12116SOL     OW37788   3.846   2.477   0.412 -0.0807  0.5959 -0.2858
12116SOL    HW137789   3.839   2.388   0.379  0.0452  0.6250 -0.3923
12116SOL    HW237790   3.765   2.520   0.384  0.1664  0.7131 -0.8392
12117SOL     OW37791   0.599   5.762   0.351 -0.1458 -0.5703  0.0250
12117SOL    HW137792   0.582   5.777   0.258 -0.8181 -0.2934  0.1892
12117SOL    HW237793   0.624   5.848   0.385  0.0138 -0.6546  0.1237
12118SOL     OW37794   0.744   2.389   6.789  0.1069  0.3084 -0.0706
12118SOL    HW137795   0.691   2.465   6.812  0.3841  0.6034 -0.4059
12118SOL    HW237796   0.714   2.364   6.701 -1.2680 -1.0905  0.7400
12119SOL     OW37797   3.988   0.998   4.811 -0.2726  0.1619  0.0666
12119SOL    HW137798   4.018   0.924   4.864 -1.2625 -0.2066  0.1190
12119SOL    HW237799   3.970   1.067   4.875 -0.0649  0.2042  0.0802
12120SOL     OW37800   7.305   1.078  12.123  0.2568 -0.2440  0.8121
12120SOL    HW137801   7.242   1.144  12.154  0.9580  0.8964 -0.1038
12120SOL    HW237802   7.351   1.122  12.051  0.6188 -1.8126  0.0547
12121SOL     OW37803   5.979   6.630  11.666  0.1425  0.3171 -0.3280
12121SOL    HW137804   6.068   6.642  11.634  1.2116 -1.3954  1.8277
12121SOL    HW237805   5.967   6.699  11.731 -0.8254  1.6463 -1.8070
12122SOL     OW37806   2.863   0.622   0.686  0.6309  0.3027  0.3371
12122SOL    HW137807   2.943   0.660   0.724  0.4275 -0.2102  1.3300
12122SOL    HW237808   2.883   0.528   0.677  1.0001  0.5386 -1.7461
12123SOL     OW37809   1.498   3.750   4.944 -0.4956 -0.1271 -0.1089
12123SOL    HW137810   1.480   3.710   5.030 -0.1431 -0.6580 -0.2748
12123SOL    HW237811   1.437   3.707   4.885  0.6333 -1.2607 -0.4989
12124SOL     OW37812   2.655   7.938   7.603  0.1412 -0.0348 -0.1185
12124SOL    HW137813   2.595   7.941   7.677 -0.1936 -0.0916 -0.3841
12124SOL    HW237814   2.598   7.937   7.526  0.4803 -0.1808 -0.3708
12125SOL     OW37815   5.250   1.074   6.848  0.2033 -0.6143 -0.1050
12125SOL    HW137816   5.193   1.010   6.890  0.8422 -0.8870  0.3667
12125SOL    HW237817   5.205   1.158   6.860 -0.9404 -1.0339 -1.2739
12126SOL     OW37818   1.479   0.049   3.362 -0.2906  0.4192  0.4460
12126SOL    HW137819   1.404   0.062   3.420 -0.0824 -0.7241  0.9978
12126SOL    HW237820   1.540  -0.005   3.413  0.0316 -0.3522 -0.7173
12127SOL     OW37821   0.102   1.183   4.240  0.6126 -0.1129  0.1480
12127SOL    HW137822   0.050   1.261   4.221 -0.0075 -0.8144 -1.1958
12127SOL    HW237823   0.132   1.195   4.330 -1.9374  0.2946  1.0166
12128SOL     OW37824   0.326   1.894   0.403  0.2368 -0.2974 -0.5098
12128SOL    HW137825   0.350   1.837   0.330  0.9022  0.1003 -0.6118
12128SOL    HW237826   0.392   1.963   0.402  0.7403 -0.7136  0.9533
12129SOL     OW37827   6.624   3.466  11.724  0.0577  0.1894 -0.1991
12129SOL    HW137828   6.647   3.406  11.796 -2.4840  0.1264  0.6388
12129SOL    HW237829   6.529   3.474  11.728 -0.0509  1.1546 -2.8470
12130SOL     OW37830   4.383   4.634   1.398 -0.0881  0.0766  0.3262
12130SOL    HW137831   4.440   4.707   1.374 -0.1757 -0.2994 -1.1252
12130SOL    HW237832   4.304   4.646   1.345  0.1722 -1.3995 -0.4766
12131SOL     OW37833   4.389   1.401   8.862 -0.1393 -0.5934  0.2448
12131SOL    HW137834   4.333   1.477   8.880  2.0115  1.2363 -0.2718
12131SOL    HW237835   4.335   1.344   8.807 -1.2379  1.4867 -0.9723
12132SOL     OW37836   6.896   4.224   7.531  0.3035  0.0703 -0.1823
12132SOL    HW137837   6.932   4.300   7.487 -0.0017 -0.2895 -1.0833
12132SOL    HW237838   6.828   4.259   7.588  0.7766  0.5574  0.0896
12133SOL     OW37839   4.987   2.673   0.738 -0.0574  0.1016 -0.4465
12133SOL    HW137840   5.052   2.727   0.783  0.2484  0.5844 -1.4272
12133SOL    HW237841   5.008   2.583   0.764  1.8790  0.1159 -1.7886
12134SOL     OW37842   5.293   5.595   3.783  0.0174 -0.3726 -0.3310
12134SOL    HW137843   5.279   5.688   3.801  1.1834 -0.2758  0.1501
12134SOL    HW237844   5.382   5.591   3.747 -1.2220 -0.8804 -3.7708
12135SOL     OW37845   6.439   4.109   7.567  0.0510 -0.2813 -0.5362
12135SOL    HW137846   6.495   4.127   7.642 -0.5336 -0.6829  0.0143
12135SOL    HW237847   6.371   4.051   7.602 -0.0404 -0.7370 -1.4581
12136SOL     OW37848   2.034   4.822   3.597 -0.6679  0.1485  0.3177
12136SOL    HW137849   2.012   4.741   3.550 -1.5000  0.9857 -0.7978
12136SOL    HW237850   1.966   4.830   3.664  0.7811 -1.2897  2.0838
12137SOL     OW37851   5.974   3.530   0.585  0.3720  0.1070 -0.5560
12137SOL    HW137852   5.909   3.463   0.608 -0.7918  1.1511 -0.6780
12137SOL    HW237853   6.052   3.481   0.560 -0.5279 -1.1985 -0.8794
12138SOL     OW37854   5.624   6.265   7.446 -0.1278  0.0185  0.1006
12138SOL    HW137855   5.638   6.185   7.396  0.3869  0.2214 -0.0881
12138SOL    HW237856   5.701   6.272   7.503 -0.9466 -0.4836  1.3105
12139SOL     OW37857   3.848   7.329   5.228 -0.0221 -1.2475 -0.0202
12139SOL    HW137858   3.909   7.268   5.187  2.8036  0.0116  1.9619
12139SOL    HW237859   3.843   7.403   5.168  0.9912 -1.0751  0.0884
12140SOL     OW37860   1.767   2.833   3.818 -0.0626  0.2119 -0.0871
12140SOL    HW137861   1.789   2.764   3.755  0.5858 -0.2361  0.6017
12140SOL    HW237862   1.818   2.810   3.896 -0.5900  0.9417  0.4808
12141SOL     OW37863   7.351   7.421   3.034 -0.1384 -0.2355 -0.1194
12141SOL    HW137864   7.313   7.341   3.071  0.7807 -0.0428  1.3169
12141SOL    HW237865   7.299   7.492   3.070  0.9175 -0.0324  1.0823
12142SOL     OW37866   6.325   6.679   4.263  0.0874  0.4706 -0.3864
12142SOL    HW137867   6.312   6.763   4.219 -1.4965  0.1681 -0.5762
12142SOL    HW237868   6.257   6.622   4.225  0.7119 -0.7110  0.2046
12143SOL     OW37869   7.344   3.540   7.650 -0.5861 -0.0526 -0.0883
12143SOL    HW137870   7.278   3.608   7.660  0.5612  1.1577 -0.5875
12143SOL    HW237871   7.425   3.586   7.628  0.1754 -1.5799 -0.6838
12144SOL     OW37872   3.875   1.816  11.260  0.2176  0.1459 -0.2726
12144SOL    HW137873   3.925   1.884  11.306  0.7100 -0.2297 -0.2374
12144SOL    HW237874   3.938   1.779  11.197  0.1016 -0.5881  0.0319
12145SOL     OW37875   5.076   7.683   7.465  0.1023  0.2347  0.2052
12145SOL    HW137876   5.034   7.609   7.420  1.1283 -0.3042  0.1210
12145SOL    HW237877   5.024   7.759   7.439  0.4368 -0.1103 -1.5891
12146SOL     OW37878   5.706   5.761   9.839 -0.4931  0.0237  0.1804
12146SOL    HW137879   5.778   5.808   9.882 -1.5636  2.5244 -0.5948
12146SOL    HW237880   5.747   5.715   9.766  0.5187  0.2129  0.6125
12147SOL     OW37881   3.669   6.410   7.822  0.7323 -0.3012 -0.0396
12147SOL    HW137882   3.594   6.389   7.767  0.1712  1.1804  0.1135
12147SOL    HW237883   3.653   6.366   7.905 -0.3276  0.5798  0.2341
12148SOL     OW37884   7.835   6.095   0.336  0.5317  0.4447 -0.5839
12148SOL    HW137885   7.850   6.043   0.415 -3.9087 -1.4610 -0.6521
12148SOL    HW237886   7.798   6.177   0.367  1.3016  0.8106 -0.6295
12149SOL     OW37887   2.207   5.168   1.267 -0.1365  0.5395  0.5739
12149SOL    HW137888   2.230   5.131   1.182 -1.2229  1.6740 -0.2629
12149SOL    HW237889   2.272   5.237   1.281 -0.6278  1.1003  0.1173
12150SOL     OW37890   1.469   7.471   7.412 -0.6796 -0.1644 -0.1746
12150SOL    HW137891   1.408   7.450   7.483  0.0817  0.4825  0.6990
12150SOL    HW237892   1.425   7.540   7.362 -0.5773  0.4668  0.5864
12151SOL     OW37893   0.835   0.167   3.749 -0.2677  0.7225 -0.3102
12151SOL    HW137894   0.839   0.149   3.655 -1.0080 -0.5461 -0.1156
12151SOL    HW237895   0.924   0.148   3.780 -0.2425  0.3119 -0.6164
12152SOL     OW37896   0.672   3.600   4.970 -0.2142 -0.1155  0.0189
12152SOL    HW137897   0.710   3.663   5.031  0.1746  0.6779 -1.0238
12152SOL    HW237898   0.702   3.515   5.003  0.8045  0.3632  0.3917
12153SOL     OW37899   5.557   1.499  12.446 -0.1453 -0.2800 -0.0544
12153SOL    HW137900   5.606   1.417  12.454  0.1811 -0.0101  0.8225
12153SOL    HW237901   5.508   1.490  12.365  3.2976  0.4441 -2.4640
12154SOL     OW37902   6.769   0.400   9.661  0.1496 -0.1661 -0.2312
12154SOL    HW137903   6.774   0.321   9.714 -0.5425  0.5060  0.8604
12154SOL    HW237904   6.681   0.398   9.623  0.1089  0.1068 -0.1545
12155SOL     OW37905   6.326   6.645   2.981  0.6786 -0.1079  0.2935
12155SOL    HW137906   6.259   6.713   2.988  0.4925 -0.2587  0.0083
12155SOL    HW237907   6.398   6.687   2.934  0.4988 -0.1544 -0.0260
12156SOL     OW37908   3.877   1.735  11.946 -0.1428 -0.3083 -0.7033
12156SOL    HW137909   3.876   1.639  11.938  0.6207 -0.4732  0.8557
12156SOL    HW237910   3.967   1.755  11.973 -0.1455  0.9090 -1.5441
12157SOL     OW37911   2.337   3.579   6.041 -0.2387  0.6434 -0.8097
12157SOL    HW137912   2.406   3.627   6.087 -2.1580  1.4675  1.4257
12157SOL    HW237913   2.260   3.590   6.096 -2.0814 -0.5892 -2.9781
12158SOL     OW37914   1.346   5.376   3.820  0.8035 -0.5942  0.8366
12158SOL    HW137915   1.409   5.338   3.758  0.6896  0.3374  0.1353
12158SOL    HW237916   1.260   5.351   3.785  0.7604 -1.2850  1.4195
12159SOL     OW37917   4.940   2.093   4.809  0.3657 -0.0397 -0.0967
12159SOL    HW137918   5.004   2.085   4.738 -0.2240  0.6226 -0.7224
12159SOL    HW237919   4.907   2.005   4.823  0.1887 -0.1107 -0.9346
12160SOL     OW37920   6.260   7.632   2.546  0.5804 -0.3704 -0.2672
12160SOL    HW137921   6.239   7.665   2.634  0.0783 -0.6294 -0.2822
12160SOL    HW237922   6.240   7.705   2.488 -1.2920 -0.9075 -0.3805
12161SOL     OW37923   7.975   4.177   6.553 -0.7587  0.0875  0.4149
12161SOL    HW137924   7.990   4.247   6.489 -0.3221 -2.1471 -2.0598
12161SOL    HW237925   7.915   4.117   6.509  0.7651 -2.3121  1.4783
12162SOL     OW37926   6.761   3.463   3.072  0.2949 -0.1336 -0.3222
12162SOL    HW137927   6.745   3.549   3.034  1.9681  0.0484 -0.7097
12162SOL    HW237928   6.832   3.478   3.135 -1.8032 -0.5758  2.3577
12163SOL     OW37929   0.336   4.724   2.242  0.9276 -0.0716 -0.0523
12163SOL    HW137930   0.317   4.814   2.215 -1.0328 -0.3300  0.3634
12163SOL    HW237931   0.413   4.699   2.190  1.7740  1.9706  0.1349
12164SOL     OW37932   1.198   1.581   4.005 -0.3118  0.1072 -0.0151
12164SOL    HW137933   1.245   1.663   4.020  3.5802 -1.5377 -1.7195
12164SOL    HW237934   1.184   1.545   4.092  1.2413  0.9489  0.6238
12165SOL     OW37935   1.571   6.648   6.921 -0.2804 -0.8800  0.7721
12165SOL    HW137936   1.656   6.686   6.944 -0.4407 -0.5742  0.8692
12165SOL    HW237937   1.536   6.613   7.003  0.5320 -2.5996  0.4096
12166SOL     OW37938   7.215   0.433   9.816 -0.4404  0.0295 -0.5197
12166SOL    HW137939   7.185   0.360   9.869  0.6255  0.2264  0.3910
12166SOL    HW237940   7.136   0.465   9.772 -1.6512  0.7281  2.0037
12167SOL     OW37941   0.805   7.522   6.519 -0.1011 -0.6051 -0.9024
12167SOL    HW137942   0.816   7.493   6.429 -0.9870 -1.1471 -0.8532
12167SOL    HW237943   0.822   7.444   6.572 -2.3651 -1.0812 -0.7611
12168SOL     OW37944   1.609   4.324  11.695 -0.1402 -0.0337  0.2282
12168SOL    HW137945   1.607   4.309  11.790 -0.4954  0.5978  0.3239
12168SOL    HW237946   1.651   4.409  11.684  1.5305 -0.8840 -0.2996
12169SOL     OW37947   3.771   2.181   8.238  0.4600 -0.4446  0.0050
12169SOL    HW137948   3.678   2.201   8.247  0.2247 -0.1419 -2.3590
12169SOL    HW237949   3.783   2.099   8.285 -1.0451 -0.5942  0.1766
12170SOL     OW37950   1.391   4.395   6.417  0.0308  0.1944 -0.0886
12170SOL    HW137951   1.423   4.365   6.503 -0.0419  0.4150  0.0171
12170SOL    HW237952   1.433   4.480   6.404  0.6667 -0.2030 -0.6399
12171SOL     OW37953   3.366   4.072   6.490  0.2290  0.5529  0.3248
12171SOL    HW137954   3.280   4.052   6.527  0.2501  0.7917  0.4988
12171SOL    HW237955   3.356   4.158   6.449 -0.9038 -1.1997 -3.6251
12172SOL     OW37956   0.881   6.142   7.927  0.0854  0.5229 -0.0027
12172SOL    HW137957   0.801   6.157   7.977  0.2989 -0.0522  0.5390
12172SOL    HW237958   0.950   6.182   7.981  0.4460 -0.9403  0.6650
12173SOL     OW37959   1.635   3.019   8.996  0.1554 -0.0986 -0.0123
12173SOL    HW137960   1.592   2.955   8.941 -1.4248 -0.2972  1.3826
12173SOL    HW237961   1.653   3.093   8.938 -0.6255 -0.6522 -0.9821
12174SOL     OW37962   4.588   3.801   1.687 -0.0523  0.2427 -0.2844
12174SOL    HW137963   4.613   3.843   1.604  0.1853  0.4397 -0.1126
12174SOL    HW237964   4.532   3.864   1.731 -0.0343  0.2105 -0.2142
12175SOL     OW37965   2.233   0.838   2.345  0.1261  0.0039 -0.2536
12175SOL    HW137966   2.144   0.835   2.380  0.5978  1.9151  1.3129
12175SOL    HW237967   2.262   0.928   2.362  2.1291 -0.3834 -1.3302
12176SOL     OW37968   7.436   7.487   1.412 -0.0920 -0.8836 -0.1661
12176SOL    HW137969   7.445   7.394   1.433  0.9287 -0.2412  2.7140
12176SOL    HW237970   7.388   7.524   1.486 -1.6106  0.7078 -1.8700
12177SOL     OW37971   5.210   5.366  12.123  0.1922  0.1592 -0.6589
12177SOL    HW137972   5.194   5.315  12.203  0.0953  0.0225 -0.7662
12177SOL    HW237973   5.301   5.396  12.132 -0.4077  1.8272  0.4692
12178SOL     OW37974   4.894   7.348   0.820  0.2690  0.7059  0.1315
12178SOL    HW137975   4.958   7.277   0.819  1.5449  1.7994 -0.0078
12178SOL    HW237976   4.838   7.331   0.744  1.2779  0.4519 -0.5874
12179SOL     OW37977   0.837   3.848   2.452  0.2829 -0.1827 -0.3859
12179SOL    HW137978   0.783   3.922   2.424 -0.2530 -0.7024 -0.7531
12179SOL    HW237979   0.865   3.807   2.371  3.2014  1.4124 -0.3242
12180SOL     OW37980   5.390   0.049   4.273 -0.1372  0.6481  0.9230
12180SOL    HW137981   5.475   0.042   4.314  1.6066  1.9168 -2.1344
12180SOL    HW237982   5.393  -0.014   4.200 -2.0087  0.3940  0.9935
12181SOL     OW37983   3.688   0.464  11.152  0.6072  0.2680  0.0206
12181SOL    HW137984   3.642   0.446  11.234 -1.6459 -1.7144 -1.5556
12181SOL    HW237985   3.672   0.557  11.136 -1.8491 -0.0427  0.2193
12182SOL     OW37986   1.231   3.008   0.831 -0.6550 -0.1854  0.0609
12182SOL    HW137987   1.176   3.039   0.759  1.2454  3.4825 -0.0776
12182SOL    HW237988   1.299   2.956   0.790  0.1262  1.4665 -0.8557
12183SOL     OW37989   1.323   4.552   3.777  0.0003 -0.1419 -0.3613
12183SOL    HW137990   1.348   4.463   3.753 -2.2027 -1.3218  1.3677
12183SOL    HW237991   1.302   4.594   3.694 -1.9846 -2.2923 -1.0570
12184SOL     OW37992   1.414   6.234   6.632  0.5209 -0.0220  0.4020
12184SOL    HW137993   1.395   6.327   6.645  1.3600  0.0010  1.5306
12184SOL    HW237994   1.491   6.233   6.575 -0.6609 -0.0783 -1.2700
12185SOL     OW37995   5.468   7.156   5.934 -0.2161  0.0505  0.2832
12185SOL    HW137996   5.420   7.100   5.995 -0.8038  1.3903  1.0801
12185SOL    HW237997   5.471   7.105   5.852 -2.0013 -0.5385  0.5412
12186SOL     OW37998   4.546   2.258   1.932  0.2196  0.9879 -0.5985
12186SOL    HW137999   4.456   2.289   1.925 -0.3700 -0.5432 -0.2980
12186SOL    HW238000   4.540   2.163   1.917  1.5669  0.6232  0.8196
12187SOL     OW38001   5.792   6.722   1.819 -0.3309  0.2697 -0.2702
12187SOL    HW138002   5.753   6.809   1.822 -2.3670 -0.5269 -1.4958
12187SOL    HW238003   5.791   6.698   1.727  3.3354  0.1980 -0.4630
12188SOL     OW38004   7.907   1.491   4.190 -0.3701  0.0344 -0.3513
12188SOL    HW138005   7.866   1.467   4.107 -0.0868  2.8564 -1.4178
12188SOL    HW238006   7.995   1.519   4.166 -0.8930  2.7292  0.5263
12189SOL     OW38007   6.820   1.687   5.287  0.2336  0.1524 -0.5169
12189SOL    HW138008   6.744   1.742   5.304  0.6344  0.6622 -0.3704
12189SOL    HW238009   6.890   1.725   5.341  0.5296 -0.4570 -0.4631
12190SOL     OW38010   6.661   6.586   9.962  0.2702  0.2444 -0.2734
12190SOL    HW138011   6.709   6.590   9.879  0.4195 -0.2188 -0.2089
12190SOL    HW238012   6.581   6.538   9.941 -0.4756  1.5469 -0.5251
12191SOL     OW38013   5.516   1.572   0.496  0.6737  0.7047  0.0103
12191SOL    HW138014   5.426   1.590   0.522  0.6968 -1.4128  1.8520
12191SOL    HW238015   5.512   1.567   0.400 -0.8106  2.1918 -0.0556
12192SOL     OW38016   5.911   5.422   8.619  0.1571  0.3809  0.0212
12192SOL    HW138017   5.891   5.329   8.612 -3.4261  0.7893  2.2715
12192SOL    HW238018   5.880   5.459   8.536  2.2170 -0.4085 -1.1697
12193SOL     OW38019   5.382   7.852   8.947  0.3454 -0.3694 -0.4064
12193SOL    HW138020   5.462   7.862   8.998 -0.2092 -0.4352  0.4929
12193SOL    HW238021   5.409   7.865   8.856  0.9355  2.1687  0.0696
12194SOL     OW38022   2.514   3.644   3.367  0.0052 -0.6806  0.2879
12194SOL    HW138023   2.553   3.621   3.451  2.2969 -1.8973 -0.9920
12194SOL    HW238024   2.433   3.593   3.363 -0.3194 -0.3246  1.8699
12195SOL     OW38025   4.644   2.932   3.496 -0.0036  0.4706  0.1143
12195SOL    HW138026   4.587   2.874   3.546 -0.2290 -0.2796 -0.9793
12195SOL    HW238027   4.730   2.890   3.500 -0.6494 -1.4557 -2.8183
12196SOL     OW38028   5.956   6.792  12.218 -0.1471 -0.2036 -0.1764
12196SOL    HW138029   5.970   6.699  12.238  1.0166 -0.1131 -0.4655
12196SOL    HW238030   6.044   6.825  12.200 -0.6534  0.7471 -0.9747
12197SOL     OW38031   0.956   7.585   2.786  0.4379 -0.1338 -0.2292
12197SOL    HW138032   1.020   7.628   2.729  0.3837  1.0676  0.5809
12197SOL    HW238033   0.902   7.656   2.819  0.9645 -0.6621  1.9433
12198SOL     OW38034   6.915   3.093  10.976 -0.2420 -0.9957 -0.6231
12198SOL    HW138035   6.866   3.060  10.901  0.1604  2.0444 -2.3917
12198SOL    HW238036   6.856   3.156  11.018  0.2234 -1.2784  0.5133
12199SOL     OW38037   2.457   2.757  10.011  0.6768  0.2058  0.6594
12199SOL    HW138038   2.469   2.796  10.097 -0.1568 -0.7536  1.2431
12199SOL    HW238039   2.458   2.831   9.950 -3.4454  1.6123  1.9304
12200SOL     OW38040   3.568   2.811   9.655  0.2075 -0.0036  0.0593
12200SOL    HW138041   3.486   2.842   9.693  0.3681  1.4473 -0.6876
12200SOL    HW238042   3.620   2.780   9.729 -0.2739  0.8771  0.7817
12201SOL     OW38043   6.465   0.719   5.914  0.5050  0.4145  0.2512
12201SOL    HW138044   6.530   0.652   5.935 -0.4499 -0.2090  1.3161
12201SOL    HW238045   6.416   0.682   5.841  0.5203  0.3247  0.2858
12202SOL     OW38046   4.661   6.732   6.561  0.9741  0.3468 -0.0095
12202SOL    HW138047   4.588   6.686   6.520  1.8788 -1.8560  0.7061
12202SOL    HW238048   4.646   6.824   6.540 -0.7582 -0.2700 -1.7920
12203SOL     OW38049   4.477   7.243   4.847  0.0338 -0.5922 -0.0322
12203SOL    HW138050   4.456   7.164   4.896 -2.5826 -0.1632 -0.3209
12203SOL    HW238051   4.488   7.213   4.757  0.2861 -0.7740  0.0573
12204SOL     OW38052   2.611   3.701   6.171 -0.4073 -0.2919  0.1840
12204SOL    HW138053   2.649   3.722   6.256 -2.6663  1.0106  0.9612
12204SOL    HW238054   2.678   3.726   6.107  0.2164  1.5045  1.4712
12205SOL     OW38055   1.466   1.650   9.338 -0.2374  0.6277 -0.3582
12205SOL    HW138056   1.515   1.689   9.266 -0.2154  1.4473  0.0877
12205SOL    HW238057   1.533   1.619   9.399 -0.2169  2.8288  0.8305
12206SOL     OW38058   2.624   3.746   5.573  0.2871  0.1735  0.7158
12206SOL    HW138059   2.704   3.701   5.546  0.6666  0.2083  1.7638
12206SOL    HW238060   2.600   3.707   5.657 -1.0394 -0.1219  0.2399
12207SOL     OW38061   5.267   6.295   5.049 -0.2793  0.0754 -0.4519
12207SOL    HW138062   5.339   6.241   5.016 -0.9111 -0.6827 -0.6194
12207SOL    HW238063   5.293   6.317   5.139  1.3810  2.0085 -1.3155
12208SOL     OW38064   3.550   3.685   0.632 -0.0242  0.1743 -0.2556
12208SOL    HW138065   3.531   3.681   0.726  0.8227  1.2442 -0.0095
12208SOL    HW238066   3.630   3.738   0.626  0.3513 -0.4881 -1.5326
12209SOL     OW38067   4.935   3.373   9.547  0.2856 -0.1721 -0.3836
12209SOL    HW138068   5.010   3.318   9.525  1.4527  0.9385  0.6599
12209SOL    HW238069   4.932   3.374   9.642 -0.0941  1.0344 -0.3873
12210SOL     OW38070   3.971   6.842   4.798 -0.0276 -0.2733  0.4089
12210SOL    HW138071   3.946   6.912   4.859 -2.4493 -0.3741 -0.3620
12210SOL    HW238072   3.920   6.859   4.719  0.3858 -2.1199 -0.3135
12211SOL     OW38073   0.455   3.536   9.571  0.6299  0.3582 -0.2490
12211SOL    HW138074   0.416   3.529   9.658 -0.4215  0.4372 -0.6968
12211SOL    HW238075   0.393   3.589   9.521 -0.0216 -1.6531 -1.7287
12212SOL     OW38076   5.659   4.088  11.022 -0.2480  0.0198 -0.3552
12212SOL    HW138077   5.748   4.086  11.057 -0.3726  0.1367 -0.0326
12212SOL    HW238078   5.636   4.181  11.022 -1.0544 -0.1427  1.3157
12213SOL     OW38079   5.900   0.474   3.916  0.5057 -0.2238  0.3431
12213SOL    HW138080   5.902   0.526   3.835  0.2206 -0.2920  0.2909
12213SOL    HW238081   5.807   0.459   3.932  0.6031 -1.6268 -0.2320
12214SOL     OW38082   7.345   4.053   0.161 -0.2863  0.1587 -0.4201
12214SOL    HW138083   7.347   4.008   0.077  0.7770 -0.1390 -0.2436
12214SOL    HW238084   7.256   4.039   0.194  0.5025 -3.4132  0.5079
12215SOL     OW38085   4.231   7.444   4.208  0.4031  0.1579 -0.1497
12215SOL    HW138086   4.138   7.422   4.211 -0.0142  1.5515 -1.5158
12215SOL    HW238087   4.233   7.539   4.192  2.0233 -0.1695 -2.3803
12216SOL     OW38088   2.057   2.685   4.516 -0.2292  0.5451  0.2295
12216SOL    HW138089   1.990   2.627   4.553  0.7046 -0.1610  0.8673
12216SOL    HW238090   2.063   2.659   4.424 -1.7703  1.5390 -0.1862
12217SOL     OW38091   6.978   1.127   3.077  0.4902 -0.4574 -0.8728
12217SOL    HW138092   7.017   1.205   3.037  0.9184 -0.7445 -1.0222
12217SOL    HW238093   6.960   1.152   3.167  0.5286 -0.1549 -0.9480
12218SOL     OW38094   3.797   3.680   4.487 -0.3858 -0.8405  0.0618
12218SOL    HW138095   3.813   3.586   4.495  1.1949 -0.4568  1.9803
12218SOL    HW238096   3.788   3.711   4.577 -2.1675  0.6692 -0.5843
12219SOL     OW38097   7.825   2.853   7.678  0.5950 -0.4383  0.1629
12219SOL    HW138098   7.884   2.778   7.682  1.5718  0.3491  1.2252
12219SOL    HW238099   7.739   2.817   7.700  0.5033 -1.7059 -1.9782
12220SOL     OW38100   0.013   7.520   1.635 -0.7051 -0.1551  0.2173
12220SOL    HW138101  -0.001   7.590   1.700  2.1522  1.8427 -1.0954
12220SOL    HW238102   0.053   7.449   1.684  0.6657  1.0097  0.8620
12221SOL     OW38103   0.905   0.309   9.645 -0.2773 -0.2206 -0.4898
12221SOL    HW138104   0.847   0.265   9.582 -0.0709  0.7313 -1.3682
12221SOL    HW238105   0.906   0.251   9.721 -0.6044 -1.3666 -1.3263
12222SOL     OW38106   7.558   1.304   8.060 -0.1343  0.2464 -0.4643
12222SOL    HW138107   7.517   1.390   8.053 -0.0723  0.2724 -0.5045
12222SOL    HW238108   7.498   1.253   8.115 -0.0079  0.4171 -0.1670
12223SOL     OW38109   5.159   4.904  11.375  0.4455  0.0000  0.4019
12223SOL    HW138110   5.080   4.882  11.324 -0.3942  0.0851  1.6310
12223SOL    HW238111   5.190   4.986  11.336 -0.5310  0.3810  0.3795
12224SOL     OW38112   3.177   6.785   9.009 -0.1416 -0.2141  0.8050
12224SOL    HW138113   3.111   6.716   9.000 -0.7640  0.4646  0.0513
12224SOL    HW238114   3.147   6.838   9.083 -0.4932  0.1372  0.4169
12225SOL     OW38115   6.207   7.641   4.774 -0.1988  0.3546 -0.0580
12225SOL    HW138116   6.181   7.630   4.682 -2.5350 -0.8261  0.6592
12225SOL    HW238117   6.178   7.729   4.797 -1.0452  0.0845 -0.0545
12226SOL     OW38118   7.716   7.160   1.904  0.3180  0.0940 -0.3396
12226SOL    HW138119   7.691   7.198   1.820  0.8171 -0.8883 -0.9475
12226SOL    HW238120   7.806   7.132   1.891  0.4482  0.0738  0.5803
12227SOL     OW38121   4.175   7.794   2.270 -0.2281  0.0454 -0.4445
12227SOL    HW138122   4.251   7.735   2.269 -0.3040 -0.0811  0.4702
12227SOL    HW238123   4.103   7.740   2.236 -0.0935 -0.1011 -0.4984
12228SOL     OW38124   0.578   4.611  11.732  0.2768  0.4678  0.2210
12228SOL    HW138125   0.554   4.588  11.822  0.5679  0.8910  0.4119
12228SOL    HW238126   0.673   4.602  11.729  0.3220  0.9647  0.1049
12229SOL     OW38127   1.368   0.191   4.785 -0.4123 -0.1398 -0.3379
12229SOL    HW138128   1.332   0.240   4.859  0.4323 -0.4410  0.2937
12229SOL    HW238129   1.398   0.258   4.724 -1.6202  0.1130 -0.6837
12230SOL     OW38130   3.977   4.827  11.926  0.8037 -0.4217 -0.0252
12230SOL    HW138131   3.907   4.763  11.938  0.7954 -0.1371  1.6100
12230SOL    HW238132   3.966   4.859  11.836 -0.2783 -1.4020 -0.2580
12231SOL     OW38133   3.980   4.992   6.143 -0.1943 -0.0844 -0.5168
12231SOL    HW138134   3.901   4.942   6.165 -2.7827  2.7759 -2.3375
12231SOL    HW238135   4.030   4.934   6.085 -1.5033 -1.6085 -0.1942
12232SOL     OW38136   7.002   0.271   1.715  0.1742 -0.2192 -0.1022
12232SOL    HW138137   6.922   0.322   1.730 -0.3350 -1.1975  0.5906
12232SOL    HW238138   7.072   0.325   1.752 -0.4370 -0.3276  1.2630
12233SOL     OW38139   1.636   5.781   3.675  0.6975  0.4457 -0.1844
12233SOL    HW138140   1.578   5.754   3.605 -0.4109  2.7558 -0.2636
12233SOL    HW238141   1.629   5.712   3.741  1.5380 -1.6147 -2.1568
12234SOL     OW38142   2.516   5.233   5.781  0.0415  0.4918 -0.1843
12234SOL    HW138143   2.590   5.293   5.778 -0.5813  1.5138  2.0966
12234SOL    HW238144   2.439   5.290   5.768 -0.4565 -0.0682  0.2476
12235SOL     OW38145   5.002   3.380  11.893  0.4432 -0.2021  0.1596
12235SOL    HW138146   5.095   3.374  11.915  0.6835 -0.9701 -0.9737
12235SOL    HW238147   4.994   3.336  11.808 -0.7063  1.1465 -0.4882
12236SOL     OW38148   6.989   6.797   7.446  0.3694  0.7573 -0.2372
12236SOL    HW138149   7.078   6.810   7.477  0.3899 -0.2335  0.1816
12236SOL    HW238150   6.996   6.796   7.351  0.5070  2.5309 -0.2763
12237SOL     OW38151   7.899   7.880   5.675  0.1370  0.3860 -0.0607
12237SOL    HW138152   7.987   7.900   5.705 -0.1215  1.2240  0.1507
12237SOL    HW238153   7.841   7.914   5.743 -0.3155 -2.6566  1.2444
12238SOL     OW38154   3.718   1.658   5.112  0.3693 -0.3111 -0.7433
12238SOL    HW138155   3.651   1.595   5.139 -0.6855  0.3339 -1.7736
12238SOL    HW238156   3.720   1.723   5.182 -0.6247  0.0552 -1.0393
12239SOL     OW38157   5.887   5.139   8.616 -0.3578  0.2028  0.2933
12239SOL    HW138158   5.838   5.118   8.695  0.4633  0.9812  1.0244
12239SOL    HW238159   5.822   5.134   8.545 -1.4678  1.0640  1.2180
12240SOL     OW38160   5.820   6.451  11.215 -0.9174  0.1773  0.0050
12240SOL    HW138161   5.859   6.539  11.206  0.0924 -0.3370 -0.8988
12240SOL    HW238162   5.800   6.425  11.125 -2.3790 -0.0276  0.3710
12241SOL     OW38163   5.051   5.989  12.319 -0.2229 -0.0740  0.3259
12241SOL    HW138164   5.050   5.994  12.415  0.5170 -0.4791  0.3598
12241SOL    HW238165   5.076   5.898  12.301 -2.1487 -0.5442 -0.2597
12242SOL     OW38166   1.194   5.873  10.927 -0.5524  0.2590 -0.0935
12242SOL    HW138167   1.246   5.830  10.995 -0.1488  0.8220 -0.0450
12242SOL    HW238168   1.140   5.802  10.891  0.2823 -0.3471 -0.1804
12243SOL     OW38169   7.186   7.219   1.074  0.5040 -0.4207  0.5940
12243SOL    HW138170   7.152   7.131   1.093 -2.7379  0.4348 -0.5881
12243SOL    HW238171   7.186   7.263   1.159 -0.6924 -0.7036  0.7542
12244SOL     OW38172   3.853   5.682   3.257  0.3137 -0.6977 -0.6185
12244SOL    HW138173   3.894   5.767   3.244  0.2084 -0.5476  0.0232
12244SOL    HW238174   3.913   5.620   3.214  1.6756 -0.5823  1.0087
12245SOL     OW38175   4.273   5.604  11.374 -0.2918 -0.0343  0.1440
12245SOL    HW138176   4.355   5.650  11.354  1.2613 -2.6162  0.1764
12245SOL    HW238177   4.250   5.560  11.292 -1.4958  0.3925  0.2326
12246SOL     OW38178   4.355   1.584   0.696 -0.7039  0.1888  0.5671
12246SOL    HW138179   4.446   1.556   0.706 -0.8075 -0.5643 -0.4284
12246SOL    HW238180   4.333   1.564   0.605 -1.8211  0.5191  0.7392
12247SOL     OW38181   2.399   2.954  11.772 -0.1755 -0.5135  0.1782
12247SOL    HW138182   2.317   2.993  11.742  0.3538  0.5420  0.0561
12247SOL    HW238183   2.377   2.913  11.855 -0.8028 -0.1298  0.2076
12248SOL     OW38184   3.844   6.028  10.674  0.0754 -0.1228  0.0846
12248SOL    HW138185   3.875   5.988  10.755 -0.2283  0.0810  0.3001
12248SOL    HW238186   3.774   5.970  10.644  0.5816 -0.5265 -0.3506
12249SOL     OW38187   6.212   1.270  12.320  0.3137 -0.3890  0.4359
12249SOL    HW138188   6.223   1.363  12.301 -0.0632 -0.3250  0.5267
12249SOL    HW238189   6.290   1.229  12.283  0.7316  0.0233  0.8464
12250SOL     OW38190   7.915   7.198   5.130 -0.3976  0.4408  0.4258
12250SOL    HW138191   7.922   7.251   5.210 -0.8200  0.1075  0.6933
12250SOL    HW238192   7.850   7.131   5.152 -0.2494  0.1255 -0.0800
12251SOL     OW38193   2.973   6.012   6.138  0.1672  0.1665 -0.3297
12251SOL    HW138194   2.970   6.001   6.043 -1.6337  0.3848 -0.3284
12251SOL    HW238195   3.029   6.089   6.151  0.9064 -0.2033 -1.1488
12252SOL     OW38196   3.415   4.461   4.370  0.4683 -0.0640  0.8824
12252SOL    HW138197   3.342   4.399   4.370  0.2407  0.1938  1.4493
12252SOL    HW238198   3.379   4.542   4.333  1.7328 -1.2902 -3.6889
12253SOL     OW38199   0.938   1.165   4.634 -0.0555  0.0189  0.1587
12253SOL    HW138200   0.960   1.097   4.570 -0.9223 -0.7091  0.6055
12253SOL    HW238201   1.003   1.156   4.703 -0.4346 -0.6798  0.4376
12254SOL     OW38202   0.183   7.718   7.045  0.7029 -0.4881  0.3688
12254SOL    HW138203   0.134   7.712   7.128  0.4588  0.1568  0.2829
12254SOL    HW238204   0.227   7.634   7.037 -1.3672 -1.5739 -0.1668
12255SOL     OW38205   7.554   2.267   8.762  0.2636  0.4377  0.0026
12255SOL    HW138206   7.596   2.243   8.844 -0.4984 -2.0377 -0.2489
12255SOL    HW238207   7.624   2.262   8.697  0.3839  0.1237  0.1565
12256SOL     OW38208   0.850   2.286  11.603  0.2481 -0.0977  0.0697
12256SOL    HW138209   0.877   2.221  11.537 -0.1728  0.7464 -0.9660
12256SOL    HW238210   0.757   2.300  11.587  0.2474  0.4718  0.5422
12257SOL     OW38211   3.316   5.467   6.121  0.4834  0.1704  0.0043
12257SOL    HW138212   3.282   5.529   6.056 -1.0886 -1.8456 -1.2139
12257SOL    HW238213   3.243   5.408   6.137  1.2515 -0.1486  2.7318
12258SOL     OW38214   7.436   7.287   3.364  0.2545 -0.7106  0.0646
12258SOL    HW138215   7.520   7.309   3.404  0.2600 -0.5109 -0.0549
12258SOL    HW238216   7.459   7.253   3.277  0.2012 -0.4924 -0.0347
12259SOL     OW38217   5.648   0.992   5.423  0.4031 -0.5784  0.1956
12259SOL    HW138218   5.597   0.911   5.425  0.6665 -0.8462 -2.0459
12259SOL    HW238219   5.732   0.968   5.461  0.2937 -1.2032  0.0624
12260SOL     OW38220   1.306   0.927   4.007  0.1051 -0.4147 -0.2664
12260SOL    HW138221   1.236   0.974   4.052 -0.6433 -0.3100 -1.4864
12260SOL    HW238222   1.278   0.836   4.008 -0.8255 -0.2040 -2.0029
12261SOL     OW38223   2.420   3.533  12.112  0.1055 -0.6200 -0.6112
12261SOL    HW138224   2.329   3.505  12.098 -0.1851 -0.4647  0.7961
12261SOL    HW238225   2.414   3.628  12.124  0.1863 -0.8007  1.1919
12262SOL     OW38226   5.095   4.076  10.746  0.0857 -0.5191  0.0250
12262SOL    HW138227   5.078   4.166  10.721  0.7594 -0.5990 -0.7292
12262SOL    HW238228   5.014   4.048  10.790 -0.3577  0.2471 -0.2903
12263SOL     OW38229   4.675   0.753   8.769 -0.2874  0.5056 -0.1233
12263SOL    HW138230   4.648   0.760   8.677  0.1567  1.0725 -0.2140
12263SOL    HW238231   4.593   0.753   8.818 -0.6863 -2.2366 -0.6342
12264SOL     OW38232   6.125   7.205  10.911 -0.2706  0.2604 -0.2765
12264SOL    HW138233   6.042   7.241  10.940  0.2530  2.3995 -1.1898
12264SOL    HW238234   6.191   7.267  10.943  0.8093 -0.4923 -0.9622
12265SOL     OW38235   0.469   0.112   3.369 -0.6706 -0.3435  0.7089
12265SOL    HW138236   0.563   0.119   3.353 -0.5564 -0.5232  1.2978
12265SOL    HW238237   0.438   0.050   3.303 -0.3055 -0.6198  0.8002
12266SOL     OW38238   4.996   7.463   6.785 -0.0160 -0.1706  0.3385
12266SOL    HW138239   4.954   7.462   6.699  1.1211  0.3264 -0.2483
12266SOL    HW238240   4.927   7.438   6.846 -0.9410 -0.1622 -0.6773
12267SOL     OW38241   1.854   2.172  11.176  0.1829 -0.3659  0.3871
12267SOL    HW138242   1.914   2.173  11.251 -0.6219  0.1549  1.0457
12267SOL    HW238243   1.908   2.198  11.102  0.9350 -0.6124  0.8331
12268SOL     OW38244   7.608   1.878   7.882  0.0612 -0.3647 -0.5373
12268SOL    HW138245   7.666   1.820   7.932 -0.0395 -0.7749 -0.8922
12268SOL    HW238246   7.667   1.930   7.827  0.1556 -0.0795 -0.1718
12269SOL     OW38247   0.726   7.964   6.490  0.1256 -0.1309 -0.0323
12269SOL    HW138248   0.709   7.869   6.494 -2.5868  0.2624 -0.4001
12269SOL    HW238249   0.667   8.002   6.555  1.9732  1.2708  0.8990
12270SOL     OW38250   7.025   1.552   2.617 -0.0695 -0.1140  0.1196
12270SOL    HW138251   6.965   1.485   2.584  0.0678 -1.5184  2.4787
12270SOL    HW238252   7.109   1.530   2.577 -0.4742 -0.0254 -0.7948
12271SOL     OW38253   6.464   4.346  10.135  0.4139 -0.2837  0.3148
12271SOL    HW138254   6.409   4.376  10.208 -1.7991 -0.7808 -1.0479
12271SOL    HW238255   6.480   4.254  10.154 -0.9071 -0.6475 -0.2062
12272SOL     OW38256   2.875   5.565   8.817  0.4745  0.0456 -0.6379
12272SOL    HW138257   2.890   5.499   8.750 -0.6228  0.6972 -1.5556
12272SOL    HW238258   2.834   5.516   8.889 -1.8360 -0.0579 -1.9342
12273SOL     OW38259   3.874   6.475  11.923 -0.1215  0.1449  0.3459
12273SOL    HW138260   3.960   6.447  11.953 -0.7409 -1.0314  1.1244
12273SOL    HW238261   3.853   6.414  11.851  0.6258  1.8568 -1.3968
12274SOL     OW38262   6.820   3.957   0.242  0.5126 -0.3226 -0.0368
12274SOL    HW138263   6.785   4.034   0.287  1.9069  1.5414 -1.9486
12274SOL    HW238264   6.742   3.912   0.208 -0.2838  0.9945 -0.0261
12275SOL     OW38265   4.786   2.916   0.237  0.0279  0.2335  0.3060
12275SOL    HW138266   4.843   2.866   0.296  0.0238  0.3504  0.4094
12275SOL    HW238267   4.744   2.981   0.294 -1.3065 -0.7755  0.5121
12276SOL     OW38268   6.089   6.597   9.586 -0.6948 -0.3919  0.8448
12276SOL    HW138269   6.121   6.661   9.523 -1.8640  1.2798  1.8473
12276SOL    HW238270   6.165   6.577   9.640  0.4902 -2.3229 -1.3715
12277SOL     OW38271   5.641   1.841   7.858 -0.3968 -0.4984  0.2529
12277SOL    HW138272   5.550   1.868   7.871 -0.9597 -1.8237 -0.7321
12277SOL    HW238273   5.689   1.924   7.854 -1.7186  0.2885 -0.3558
12278SOL     OW38274   5.499   4.485   3.681 -0.6861  0.2261  0.1380
12278SOL    HW138275   5.522   4.487   3.588  1.3675 -2.2005  0.5116
12278SOL    HW238276   5.577   4.516   3.726 -0.0036 -2.6681  1.1750
12279SOL     OW38277   5.571   1.545   4.731  0.3232 -0.5855  0.4960
12279SOL    HW138278   5.605   1.486   4.798  0.7194 -0.0085  0.8119
12279SOL    HW238279   5.649   1.577   4.685  0.1439  0.0316  0.6154
12280SOL     OW38280   1.160   0.083   8.257  0.1913 -0.0770 -0.7294
12280SOL    HW138281   1.140   0.135   8.179  0.2415  1.1056  0.0249
12280SOL    HW238282   1.085   0.025   8.267 -0.2430  0.4089 -1.1290
12281SOL     OW38283   5.134   7.516  12.082  0.2372  0.3757  0.2290
12281SOL    HW138284   5.102   7.496  11.993  0.3579 -0.5687  0.3893
12281SOL    HW238285   5.056   7.541  12.130 -0.0958 -0.6867  0.2759
12282SOL     OW38286   1.171   6.991   6.076 -0.2817  0.0821  0.4260
12282SOL    HW138287   1.155   7.063   6.014 -1.9009  0.6643  1.4514
12282SOL    HW238288   1.194   6.917   6.020  0.4550  1.1340 -0.7252
12283SOL     OW38289   3.006   2.974   4.916 -0.7283 -0.3457  0.2258
12283SOL    HW138290   3.042   2.999   4.831  0.4413 -3.4534 -0.3224
12283SOL    HW238291   3.039   3.041   4.976  1.2393  0.1036 -1.2432
12284SOL     OW38292   4.771   7.866   7.125  0.4883 -0.1589 -0.5339
12284SOL    HW138293   4.864   7.843   7.126  1.3890  2.9437  0.3986
12284SOL    HW238294   4.766   7.943   7.068 -1.2039  0.6835  0.6466
12285SOL     OW38295   4.563   0.817   6.788  0.1343  0.5814 -0.5347
12285SOL    HW138296   4.607   0.752   6.733 -0.3032 -2.2002  2.1274
12285SOL    HW238297   4.627   0.837   6.857 -0.8641  0.5800  0.4155
12286SOL     OW38298   6.011   1.487   5.271 -0.5253 -0.3880 -0.2760
12286SOL    HW138299   5.972   1.466   5.356 -0.7676  0.2909 -0.2078
12286SOL    HW238300   5.953   1.446   5.207  0.2040 -1.7556 -0.1006
12287SOL     OW38301   4.133   0.876   0.820 -0.6222  0.1470  0.2345
12287SOL    HW138302   4.213   0.908   0.862 -0.7528 -1.8874  2.2486
12287SOL    HW238303   4.063   0.922   0.867 -0.7025 -0.3239  0.5802
12288SOL     OW38304   4.384   0.666   4.847 -0.6771  0.2640  0.4956
12288SOL    HW138305   4.414   0.743   4.798  0.4323 -0.2790  0.2863
12288SOL    HW238306   4.461   0.609   4.850 -1.6327 -1.0851  0.1677
12289SOL     OW38307   0.789   5.348   1.613  0.4556  0.2143  0.0907
12289SOL    HW138308   0.782   5.368   1.520  1.6976  0.0715 -0.0494
12289SOL    HW238309   0.713   5.391   1.653 -0.6821 -0.6059 -1.1118
12290SOL     OW38310   6.146   0.915   7.179  0.0673 -0.2850  0.6231
12290SOL    HW138311   6.123   0.869   7.260 -1.3640  0.6164  0.7839
12290SOL    HW238312   6.065   0.960   7.154  0.4234 -0.6756 -1.4143
12291SOL     OW38313   4.264   7.064   7.036  0.0212  0.0429 -0.3496
12291SOL    HW138314   4.288   7.150   7.071  0.2274  0.3141 -1.1380
12291SOL    HW238315   4.245   7.011   7.114  1.0096  0.4687  0.2054
12292SOL     OW38316   2.517   0.116   2.395 -0.5818  0.2327 -0.1292
12292SOL    HW138317   2.559   0.071   2.469 -0.7375 -1.8080 -1.1974
12292SOL    HW238318   2.427   0.133   2.425  0.0516  1.7934  1.0351
12293SOL     OW38319   6.290   0.038   7.215  0.0697 -0.1798  0.0555
12293SOL    HW138320   6.197   0.061   7.207 -0.4251 -1.9729  0.2908
12293SOL    HW238321   6.335   0.104   7.162 -1.3303  0.7058 -0.0853
12294SOL     OW38322   0.299   6.533   0.047  0.0267  1.0830 -0.0260
12294SOL    HW138323   0.266   6.573   0.127 -0.6091 -1.7463  1.2511
12294SOL    HW238324   0.386   6.500   0.071  0.5138  1.5762 -1.0281
12295SOL     OW38325   5.707   5.408   5.532  0.1749 -0.3084 -0.1277
12295SOL    HW138326   5.769   5.373   5.597 -0.4680 -1.3277 -0.0518
12295SOL    HW238327   5.763   5.451   5.467  1.0277 -1.7730 -0.4117
12296SOL     OW38328   4.921   7.866   0.277 -0.1155 -0.4047 -0.2362
12296SOL    HW138329   4.971   7.923   0.337  0.8200 -0.7942 -0.6224
12296SOL    HW238330   4.884   7.798   0.333  0.7247 -0.7459 -0.0808
12297SOL     OW38331   2.714   7.305   4.292  0.3960 -0.3274 -0.0573
12297SOL    HW138332   2.735   7.315   4.199  1.0152  0.1846  0.1290
12297SOL    HW238333   2.676   7.390   4.317  1.6908  0.1179  0.5167
12298SOL     OW38334   0.975   2.308   7.837 -0.4582  0.0101 -0.5405
12298SOL    HW138335   1.034   2.299   7.762 -1.9317 -1.4690 -1.6075
12298SOL    HW238336   0.888   2.292   7.801 -1.3013  0.0285  1.3521
12299SOL     OW38337   2.135   7.637   7.922  0.5504 -0.3145 -0.0154
12299SOL    HW138338   2.047   7.657   7.952  0.9816  3.2253 -0.6875
12299SOL    HW238339   2.191   7.701   7.967  2.5570 -1.3621 -0.8789
12300SOL     OW38340   2.547   7.776   1.327 -0.4500  0.2020 -0.5660
12300SOL    HW138341   2.625   7.787   1.382  0.9093 -1.6610 -1.9696
12300SOL    HW238342   2.481   7.740   1.386 -0.1201  1.3224  0.5369
12301SOL     OW38343   7.338   4.100   3.094  0.3993  0.3490 -0.4259
12301SOL    HW138344   7.374   4.163   3.157 -1.6630 -0.1193  1.3013
12301SOL    HW238345   7.375   4.016   3.120  0.8891  0.3924 -0.9494
12302SOL     OW38346   5.867   3.815   5.652  0.6495 -0.2582  0.3228
12302SOL    HW138347   5.803   3.836   5.719  0.7649  1.6148 -0.0987
12302SOL    HW238348   5.816   3.809   5.571  0.6745 -1.3106  0.3746
12303SOL     OW38349   4.577   3.350   1.024 -0.3854  0.3120 -0.7341
12303SOL    HW138350   4.569   3.271   0.969  0.7732 -0.2090 -0.1799
12303SOL    HW238351   4.578   3.317   1.113  1.7566  0.7654 -0.5315
12304SOL     OW38352   4.886   1.724   8.943  0.1802  0.8333  1.0408
12304SOL    HW138353   4.846   1.811   8.947 -0.0782  0.6915  1.7416
12304SOL    HW238354   4.818   1.667   8.909  0.7280  1.1011 -0.5982
12305SOL     OW38355   4.593   7.713   6.551 -0.3390 -0.0076  0.0947
12305SOL    HW138356   4.628   7.743   6.467 -0.2350  1.3583  0.6083
12305SOL    HW238357   4.498   7.716   6.540 -0.3332  0.8378  0.2442
12306SOL     OW38358   2.153   0.132   6.353  0.2599 -0.2809 -0.0129
12306SOL    HW138359   2.071   0.131   6.402  0.9286 -0.2338  1.1705
12306SOL    HW238360   2.206   0.063   6.394  1.2764  0.5453  0.1181
12307SOL     OW38361   6.627   1.638   9.222 -0.3961  0.0366 -0.0578
12307SOL    HW138362   6.613   1.680   9.137 -1.3187 -2.1909 -1.1032
12307SOL    HW238363   6.628   1.544   9.202 -1.7494 -0.6279  2.5210
12308SOL     OW38364   0.942   5.446   9.024 -0.3012  0.5898 -0.5054
12308SOL    HW138365   0.883   5.480   8.957  1.0725  3.0715 -0.5454
12308SOL    HW238366   0.912   5.488   9.105  0.4757  0.6971 -0.2688
12309SOL     OW38367   2.256   1.069   6.757  0.2718  0.0133  0.5072
12309SOL    HW138368   2.349   1.055   6.742  0.4162  2.0307 -0.8385
12309SOL    HW238369   2.239   1.157   6.725 -2.1277 -0.3149  0.6639
12310SOL     OW38370   6.644   4.935   6.025  0.0506 -0.3030  0.5206
12310SOL    HW138371   6.651   4.860   5.966  0.4996 -0.3608  0.6418
12310SOL    HW238372   6.615   4.898   6.108 -0.6647 -0.2100  0.3207
12311SOL     OW38373   0.037   0.489   6.502 -0.4642  0.0248  0.4065
12311SOL    HW138374   0.121   0.493   6.548  0.8506  0.6099 -1.8817
12311SOL    HW238375   0.041   0.409   6.450 -1.2961  0.1054  0.1923
12312SOL     OW38376   6.459   7.699  11.900  0.0191  0.1153  0.2415
12312SOL    HW138377   6.395   7.656  11.843 -1.2430  0.1721  1.5578
12312SOL    HW238378   6.457   7.648  11.981  1.4335  0.3097  0.4173
12313SOL     OW38379   1.713   0.288  11.409  0.4669 -0.7645  0.3416
12313SOL    HW138380   1.661   0.314  11.333 -0.0581  0.7570  1.1839
12313SOL    HW238381   1.769   0.218  11.376 -0.0198 -0.4193 -1.3462
12314SOL     OW38382   7.503   6.935  11.804 -0.2422 -0.9272 -0.6849
12314SOL    HW138383   7.566   7.006  11.789  0.5893 -1.4141  0.3441
12314SOL    HW238384   7.447   6.968  11.874  0.2578 -1.3414 -0.0807
12315SOL     OW38385   5.388   5.307   3.646  0.0035  0.4945  0.4381
12315SOL    HW138386   5.478   5.274   3.649  0.1234  0.8425  3.5319
12315SOL    HW238387   5.397   5.402   3.653 -0.5571  0.4262  3.2068
12316SOL     OW38388   2.926   1.537   5.967  0.5723  0.2866  0.3865
12316SOL    HW138389   2.979   1.535   6.046  1.1722 -1.3912 -0.0133
12316SOL    HW238390   2.957   1.463   5.915 -1.0953  0.2004 -0.5718
12317SOL     OW38391   6.991   3.024   5.997  0.3913 -0.4097  0.1186
12317SOL    HW138392   6.921   3.057   5.940  1.4410  0.3573 -0.7662
12317SOL    HW238393   7.015   3.098   6.052  0.9303 -0.4809 -0.0154
12318SOL     OW38394   7.310   5.340  11.453 -0.3978 -0.2703  1.1274
12318SOL    HW138395   7.379   5.399  11.482  0.1987 -0.4796  0.1924
12318SOL    HW238396   7.311   5.268  11.515  0.9132 -0.7640  0.5788
12319SOL     OW38397   5.132   1.712   3.758 -0.3390 -0.3620 -0.4882
12319SOL    HW138398   5.127   1.803   3.727 -4.2044 -0.7959 -1.6623
12319SOL    HW238399   5.187   1.668   3.693  2.6977  1.2083  0.7785
12320SOL     OW38400   5.556   6.675   2.096 -0.5821  0.1341  0.1134
12320SOL    HW138401   5.466   6.701   2.077 -1.1479 -1.4671  0.4863
12320SOL    HW238402   5.561   6.671   2.192  0.3152  1.5525  0.1677
12321SOL     OW38403   0.360   0.435   8.537 -0.5248 -0.2198  0.0149
12321SOL    HW138404   0.296   0.436   8.608  0.6136 -0.5374  1.0857
12321SOL    HW238405   0.340   0.512   8.484 -1.2707  0.1274  0.7899
12322SOL     OW38406   3.540   6.628   8.065  0.6397 -0.0478  0.4621
12322SOL    HW138407   3.494   6.569   8.124  0.8282 -0.0091  0.6509
12322SOL    HW238408   3.633   6.615   8.085  0.8710 -1.7144 -1.4086
12323SOL     OW38409   1.831   4.187   7.760  0.1748  0.1931  0.0072
12323SOL    HW138410   1.776   4.251   7.715 -3.6810 -0.6390  2.9861
12323SOL    HW238411   1.849   4.120   7.694 -1.3384  1.1502 -1.4745
12324SOL     OW38412   1.804   5.541   5.963 -0.2602 -0.5593 -0.4348
12324SOL    HW138413   1.855   5.602   6.016  1.0442 -2.8135  1.0931
12324SOL    HW238414   1.862   5.518   5.891  0.1882 -1.6162  0.2244
12325SOL     OW38415   5.306   2.654   8.321 -0.0042  0.3134 -0.0435
12325SOL    HW138416   5.317   2.702   8.239 -0.7642 -0.4874 -0.6380
12325SOL    HW238417   5.273   2.719   8.383  1.8628  1.2526  0.0357
12326SOL     OW38418   0.156   3.788  11.693 -0.4065  0.3040 -0.9485
12326SOL    HW138419   0.238   3.824  11.727 -0.2100 -0.2616 -0.8154
12326SOL    HW238420   0.106   3.865  11.665 -0.7015  0.8214  0.8683
12327SOL     OW38421   7.078   7.100  12.300  0.2090 -0.0679  1.0130
12327SOL    HW138422   7.040   7.052  12.374 -0.8453 -2.4690 -0.9402
12327SOL    HW238423   7.030   7.069  12.224  0.7925  2.7926 -0.6799
12328SOL     OW38424   3.201   6.148  11.424  0.4366 -0.1954  0.2198
12328SOL    HW138425   3.208   6.204  11.347 -0.7487 -1.8625 -1.1753
12328SOL    HW238426   3.139   6.195  11.481  1.5087  1.1698  0.3121
12329SOL     OW38427   3.229   7.800   2.969  0.6644  0.4033 -0.3165
12329SOL    HW138428   3.202   7.724   3.021 -1.0504  1.7783  0.9349
12329SOL    HW238429   3.148   7.829   2.926  1.0916  2.0082 -0.0950
12330SOL     OW38430   2.316   1.468   2.081  0.1106 -0.2723 -0.1280
12330SOL    HW138431   2.224   1.445   2.093  0.0022  0.4035  0.4161
12330SOL    HW238432   2.364   1.400   2.128 -0.1559 -0.1134  0.3870
12331SOL     OW38433   0.969   5.677  12.152 -0.9042  0.2577  0.0588
12331SOL    HW138434   1.015   5.733  12.090 -0.4685  0.4242  0.5303
12331SOL    HW238435   1.036   5.621  12.189 -1.0481  0.5932  0.8505
12332SOL     OW38436   4.968   3.591   2.636 -0.4425  0.3941  0.0774
12332SOL    HW138437   4.911   3.580   2.712 -1.8012 -0.0204 -0.9541
12332SOL    HW238438   5.057   3.592   2.672 -1.0658  0.6417  1.6958
12333SOL     OW38439   2.890   1.943   3.678  0.0144 -0.2460  0.2157
12333SOL    HW138440   2.966   1.996   3.705  0.2219 -0.2345 -0.3717
12333SOL    HW238441   2.833   2.005   3.632 -0.9176  0.0108  1.6517
12334SOL     OW38442   1.423   2.766  12.397  0.0524  0.0917  0.2908
12334SOL    HW138443   1.419   2.695  12.461 -0.2446  0.8766  1.1739
12334SOL    HW238444   1.358   2.742  12.331 -0.7894  0.0359  1.1163
12335SOL     OW38445   1.353   4.475   1.225  0.1448 -0.0721 -0.1130
12335SOL    HW138446   1.392   4.516   1.147  0.0458  0.6291  0.2040
12335SOL    HW238447   1.410   4.501   1.297  0.1055 -0.5328  0.0894
12336SOL     OW38448   6.847   3.406   9.373 -0.1876 -0.2044  0.3937
12336SOL    HW138449   6.800   3.457   9.439 -0.8847 -1.5185  0.9538
12336SOL    HW238450   6.798   3.419   9.293  1.2819  2.3029 -0.2305
12337SOL     OW38451   1.006   7.263   7.003 -0.2062 -0.1092  0.7968
12337SOL    HW138452   0.952   7.199   6.958  1.4833 -1.0325 -0.0227
12337SOL    HW238453   1.046   7.215   7.076  0.5952  0.1525  0.5467
12338SOL     OW38454   1.380   4.144   8.229  0.4098 -0.5263 -0.0956
12338SOL    HW138455   1.449   4.181   8.173  0.0678  1.3128  0.6423
12338SOL    HW238456   1.426   4.118   8.309  0.1394  1.8592  0.9110
12339SOL     OW38457   2.922   3.094  11.745  0.2160 -0.3301  0.1955
12339SOL    HW138458   2.887   3.177  11.713 -0.1377  0.5991  2.7289
12339SOL    HW238459   2.845   3.042  11.768  0.4414 -1.3322 -1.2130
12340SOL     OW38460   0.999   5.702   4.324  0.3733  0.4305 -0.1553
12340SOL    HW138461   1.082   5.704   4.276  0.1418  1.8080 -0.5642
12340SOL    HW238462   0.976   5.610   4.328  1.9223  0.0147 -0.0208
12341SOL     OW38463   5.368   2.840   7.527 -0.4208 -0.2992 -0.0634
12341SOL    HW138464   5.285   2.812   7.489 -0.7458  1.2588 -0.5868
12341SOL    HW238465   5.371   2.934   7.510  0.5400  0.0323  1.6942
12342SOL     OW38466   5.987   2.489  10.597  0.0876  0.0055 -0.2764
12342SOL    HW138467   5.909   2.508  10.545 -0.9407 -0.0543  1.1864
12342SOL    HW238468   5.972   2.401  10.633  0.6110  0.1801  0.3947
12343SOL     OW38469   5.441   2.183   4.262  0.6186 -0.1033  0.3917
12343SOL    HW138470   5.397   2.101   4.239  0.3462  0.1433  0.0251
12343SOL    HW238471   5.408   2.247   4.198  0.4051  0.4228  1.0137
12344SOL     OW38472   5.943   7.456   4.840 -0.1744  0.0670  0.7758
12344SOL    HW138473   6.018   7.443   4.782  0.9480  2.0503  1.6780
12344SOL    HW238474   5.867   7.443   4.784  0.8663  1.8045 -1.1801
12345SOL     OW38475   3.799   7.064   9.613  0.5945 -0.6618  0.3123
12345SOL    HW138476   3.768   7.153   9.633 -0.2611 -1.2499  1.7190
12345SOL    HW238477   3.721   7.016   9.589  0.7870 -1.4914  1.3124
12346SOL     OW38478   7.658   2.857  10.960 -0.1786  0.1217  0.1982
12346SOL    HW138479   7.688   2.912  10.887 -1.4257 -0.6642 -0.9631
12346SOL    HW238480   7.695   2.770  10.942  0.3988  0.1614  1.1133
12347SOL     OW38481   7.108   4.502   6.122  0.0562  0.0064  0.0111
12347SOL    HW138482   7.100   4.591   6.157  0.2846  0.4508 -1.0505
12347SOL    HW238483   7.018   4.471   6.116 -0.0737  0.4155 -0.2270
12348SOL     OW38484   7.158   1.412   9.085  0.0158  0.0139 -0.1511
12348SOL    HW138485   7.190   1.412   9.176  0.2988 -0.5698 -0.2497
12348SOL    HW238486   7.203   1.487   9.045  0.6484 -0.3115 -0.0699
12349SOL     OW38487   3.383   5.519   8.601  0.4474  0.1339 -0.1712
12349SOL    HW138488   3.331   5.438   8.608  0.1224  0.0669 -2.5296
12349SOL    HW238489   3.446   5.513   8.673 -0.6924 -1.3593  0.7731
12350SOL     OW38490   5.365   3.173   2.850  0.0490 -0.8398 -0.2573
12350SOL    HW138491   5.306   3.161   2.925 -1.0275 -2.3940 -1.2744
12350SOL    HW238492   5.445   3.127   2.875  0.5393  0.5000  0.7668
12351SOL     OW38493   1.857   0.564   3.493 -0.3308  0.7259 -0.5104
12351SOL    HW138494   1.910   0.496   3.452  0.1661  0.6017  0.3199
12351SOL    HW238495   1.917   0.611   3.550 -0.8890  1.2461 -0.3404
12352SOL     OW38496   7.617   1.640   2.208 -0.0960 -0.2345  0.3474
12352SOL    HW138497   7.568   1.558   2.219 -0.0886 -0.2004  0.6581
12352SOL    HW238498   7.663   1.651   2.292  0.0256  0.0062  0.2491
12353SOL     OW38499   6.542   5.523  10.345  0.7036 -0.2455  0.0668
12353SOL    HW138500   6.564   5.467  10.270 -1.0323 -1.0830  0.1399
12353SOL    HW238501   6.539   5.464  10.419  0.0697  0.1656  0.3754
12354SOL     OW38502   6.213   7.188   2.972  0.7294 -0.0134 -0.0338
12354SOL    HW138503   6.178   7.100   2.981  1.6272 -0.3337  0.4000
12354SOL    HW238504   6.255   7.189   2.886 -2.2275  1.0700 -1.6150
12355SOL     OW38505   3.635   4.716   9.836 -0.3725  0.4578 -0.6497
12355SOL    HW138506   3.703   4.720   9.768  1.3128  0.0270  0.9100
12355SOL    HW238507   3.559   4.757   9.796  1.3229  2.6292 -1.9209
12356SOL     OW38508   1.828   0.226   3.520 -0.4908 -0.3837 -0.0992
12356SOL    HW138509   1.916   0.188   3.522  0.5078  1.7604  0.0331
12356SOL    HW238510   1.822   0.266   3.433 -0.3519  1.5125  0.7024
12357SOL     OW38511   3.161   7.893   0.530 -0.0909 -0.2300 -0.1149
12357SOL    HW138512   3.224   7.831   0.494 -0.8829 -1.4596  0.5661
12357SOL    HW238513   3.176   7.973   0.480  4.1698  0.6435  2.0594
12358SOL     OW38514   3.448   3.144   0.372  0.7109  0.0139 -0.2490
12358SOL    HW138515   3.476   3.074   0.314  1.8106 -0.1145  0.4152
12358SOL    HW238516   3.495   3.129   0.454 -0.4485  0.4551  0.5413
12359SOL     OW38517   4.240   7.151   3.087  0.6175 -0.1602 -0.3086
12359SOL    HW138518   4.185   7.218   3.047  0.2147 -0.1804  0.2217
12359SOL    HW238519   4.180   7.081   3.111  1.3246 -2.1521 -3.6465
12360SOL     OW38520   2.355   4.191   8.454  0.7480 -0.0249 -0.1734
12360SOL    HW138521   2.334   4.256   8.387  0.2237 -1.1626 -1.1530
12360SOL    HW238522   2.376   4.242   8.532 -0.8132  1.3106 -0.5726
12361SOL     OW38523   7.593   4.859   3.695  0.1706 -1.0501  0.0661
12361SOL    HW138524   7.562   4.917   3.765 -1.8343 -2.8830  0.8173
12361SOL    HW238525   7.646   4.794   3.741  1.9434 -0.1957 -0.6922
12362SOL     OW38526   0.646   0.521   0.302  0.4256 -0.3586 -0.1333
12362SOL    HW138527   0.726   0.573   0.311  1.4227 -2.1039  2.2565
12362SOL    HW238528   0.576   0.579   0.332  1.0355  0.6490 -0.6171
12363SOL     OW38529   6.882   0.924   8.168 -0.0428 -0.1041 -0.7711
12363SOL    HW138530   6.925   0.872   8.236  1.0404  1.8817  0.1396
12363SOL    HW238531   6.938   0.915   8.092 -0.0532 -0.5296 -0.7354
12364SOL     OW38532   0.592   3.345   8.458 -0.0615  0.0738  0.2486
12364SOL    HW138533   0.530   3.408   8.421  0.5160 -1.1087 -3.0348
12364SOL    HW238534   0.548   3.260   8.451  0.9725 -0.4663  0.1209
12365SOL     OW38535   1.937   6.376   6.487 -0.3124  0.2922 -0.0086
12365SOL    HW138536   1.899   6.463   6.497 -0.1410  0.2262  1.5226
12365SOL    HW238537   1.911   6.348   6.399 -1.1767  1.4951 -0.1618
12366SOL     OW38538   6.218   0.691   1.591  0.0945  0.2564  0.4182
12366SOL    HW138539   6.177   0.759   1.537  0.2991 -0.6144 -0.8756
12366SOL    HW238540   6.178   0.609   1.560  1.2602 -0.3976  0.6051
12367SOL     OW38541   5.137   4.205   9.260 -0.2466 -0.2323 -0.0385
12367SOL    HW138542   5.104   4.224   9.172 -1.2995  2.4800  0.8233
12367SOL    HW238543   5.227   4.176   9.245 -0.8318 -1.2288 -2.0603
12368SOL     OW38544   3.027   2.317   4.428  0.0109  0.2347  0.1057
12368SOL    HW138545   3.071   2.401   4.436  0.3063  0.1852 -0.9212
12368SOL    HW238546   3.031   2.280   4.516  0.6772  0.8966  0.3649
12369SOL     OW38547   6.812   7.007   3.775  0.6529 -0.2723  0.0683
12369SOL    HW138548   6.720   7.026   3.796  0.3840  2.0211 -2.6306
12369SOL    HW238549   6.813   6.913   3.758 -0.8750 -0.5857  1.3972
12370SOL     OW38550   5.766   3.999   4.789 -0.1362  0.3701 -0.3530
12370SOL    HW138551   5.821   3.946   4.846 -0.5977  1.8395  1.6014
12370SOL    HW238552   5.798   3.982   4.701  1.9058 -0.5570  0.5117
12371SOL     OW38553   4.307   6.440   6.556 -0.2379 -0.0447  0.0775
12371SOL    HW138554   4.290   6.533   6.574  2.2020  0.6316 -0.6825
12371SOL    HW238555   4.342   6.405   6.638 -0.0199  0.0279  0.0162
12372SOL     OW38556   4.718   0.881   9.730 -0.6736  0.5329  0.5259
12372SOL    HW138557   4.675   0.808   9.774 -0.9479  1.2123  1.4167
12372SOL    HW238558   4.806   0.849   9.710 -0.3920  0.3576  1.9833
12373SOL     OW38559   4.277   7.787  10.203  0.0980  0.2123  0.4486
12373SOL    HW138560   4.220   7.716  10.174  0.5726  0.3955 -1.0467
12373SOL    HW238561   4.247   7.809  10.291 -0.9325 -0.9192  0.3921
12374SOL     OW38562   1.360   3.532  10.253 -0.5405 -0.2617  0.0596
12374SOL    HW138563   1.349   3.494  10.166 -0.1141 -1.2211  0.4140
12374SOL    HW238564   1.453   3.556  10.257 -0.3627 -1.0234  0.5660
12375SOL     OW38565   1.704   3.834   7.509  0.2301  0.5849 -0.3505
12375SOL    HW138566   1.763   3.882   7.566 -0.1053  2.4172 -1.4573
12375SOL    HW238567   1.638   3.899   7.483 -0.8540 -0.7623 -1.0853
12376SOL     OW38568   0.208   4.578   8.117  0.2237 -0.2102  0.7680
12376SOL    HW138569   0.253   4.577   8.033 -0.4459  2.2172  0.3189
12376SOL    HW238570   0.117   4.557   8.097 -0.4697  2.6845  0.4216
12377SOL     OW38571   7.353   1.149   0.632 -0.7070  0.3683 -0.6003
12377SOL    HW138572   7.366   1.054   0.634 -0.1932  0.4437  0.0867
12377SOL    HW238573   7.395   1.176   0.550  1.8479  0.3419  0.5992
12378SOL     OW38574   2.361   3.334   6.608  0.3875  0.6624  0.2735
12378SOL    HW138575   2.429   3.394   6.639  0.2803 -0.0339  1.9455
12378SOL    HW238576   2.289   3.344   6.670  0.1272 -0.7331  0.2341
12379SOL     OW38577   0.380   6.675   5.499 -0.0366  0.3792  0.4329
12379SOL    HW138578   0.472   6.694   5.480  0.0152 -0.1548  0.1392
12379SOL    HW238579   0.335   6.757   5.482  0.3457  0.5651  0.2993
12380SOL     OW38580   6.205   6.992   8.228  0.5758 -0.3664 -0.1798
12380SOL    HW138581   6.228   7.010   8.137 -0.3425 -1.2977 -0.6083
12380SOL    HW238582   6.231   7.071   8.275  1.1335  0.0953 -1.2302
12381SOL     OW38583   2.853   3.159   2.057  0.1027  0.3107  0.4645
12381SOL    HW138584   2.788   3.103   2.016  0.1544  1.5478 -1.4500
12381SOL    HW238585   2.877   3.114   2.138 -1.5934 -1.1825  0.1859
12382SOL     OW38586   7.350   1.379   4.442 -0.2100  0.5923  0.2016
12382SOL    HW138587   7.393   1.296   4.421  2.4414  1.5709  1.3133
12382SOL    HW238588   7.312   1.365   4.529 -2.4518 -0.3210 -0.8424
12383SOL     OW38589   4.456   5.121   4.320 -0.6975 -0.3574  0.2628
12383SOL    HW138590   4.457   5.214   4.300  2.6193 -0.3212  0.0470
12383SOL    HW238591   4.437   5.079   4.236  0.8044  0.1206 -0.3662
12384SOL     OW38592   6.833   4.672   7.617  0.4965  0.2232  1.2812
12384SOL    HW138593   6.831   4.752   7.565  0.0367  0.3053  1.4221
12384SOL    HW238594   6.762   4.618   7.582 -0.4985  0.7059  2.4733
12385SOL     OW38595   7.163   2.741   8.817 -0.4978  0.4338  0.1200
12385SOL    HW138596   7.175   2.831   8.848 -0.7072 -0.0844  1.8368
12385SOL    HW238597   7.195   2.741   8.727  1.1345  1.8255  0.6604
12386SOL     OW38598   0.501   6.385  10.042  0.2454 -0.0199 -0.1017
12386SOL    HW138599   0.550   6.308  10.013 -2.1541 -2.3877  1.6116
12386SOL    HW238600   0.415   6.350  10.069 -0.1830  2.8730  2.9798
12387SOL     OW38601   1.305   6.131   4.128  0.4164 -0.3558 -0.5683
12387SOL    HW138602   1.338   6.079   4.201 -0.0565  0.0432 -0.0677
12387SOL    HW238603   1.252   6.070   4.077  2.2370 -1.1349 -1.6367
12388SOL     OW38604   1.303   3.859   8.543 -0.2357  0.2800 -0.1585
12388SOL    HW138605   1.259   3.775   8.535  0.0478  0.1269 -0.1185
12388SOL    HW238606   1.235   3.924   8.523 -0.8064  0.1111  1.1550
12389SOL     OW38607   7.003   1.461   2.167 -0.1027  0.1157  0.3248
12389SOL    HW138608   6.999   1.472   2.072  1.4009 -1.3503  0.0576
12389SOL    HW238609   7.026   1.548   2.200  0.4483  0.3898 -0.7448
12390SOL     OW38610   0.175   5.185   5.638 -0.5433 -0.5457 -0.2284
12390SOL    HW138611   0.094   5.236   5.640 -1.1557 -1.4963  0.7816
12390SOL    HW238612   0.230   5.228   5.573 -0.7721  1.7771  1.0244
12391SOL     OW38613   0.686   4.824  10.990  0.1564 -0.3602 -0.1914
12391SOL    HW138614   0.760   4.868  10.948 -0.6497 -0.7046 -2.1027
12391SOL    HW238615   0.613   4.885  10.977 -0.6159 -1.4890 -1.4173
12392SOL     OW38616   2.788   7.477   4.644  0.4808  0.0973  0.4551
12392SOL    HW138617   2.865   7.533   4.654  0.5020  0.0118  0.8051
12392SOL    HW238618   2.819   7.390   4.672  0.7730 -0.3561 -1.2029
12393SOL     OW38619   2.835   3.972   0.166 -0.2861  0.5303 -0.0920
12393SOL    HW138620   2.857   4.025   0.242 -3.1269  0.5978  0.8038
12393SOL    HW238621   2.762   4.018   0.124 -0.3210 -0.7026 -1.4961
12394SOL     OW38622   4.326   4.735   8.734  0.2342 -0.1025  0.1542
12394SOL    HW138623   4.246   4.784   8.755 -0.3055 -1.6594  1.9778
12394SOL    HW238624   4.384   4.800   8.694 -1.3203  1.4409  0.2956
12395SOL     OW38625   0.290   0.958  10.605  1.3001  0.3218  0.4322
12395SOL    HW138626   0.334   0.875  10.622  1.3785  0.4507  0.8880
12395SOL    HW238627   0.343   1.001  10.539  1.1720 -0.0611  0.0798
12396SOL     OW38628   6.477   0.217  11.040 -0.5460 -0.7975  0.5244
12396SOL    HW138629   6.546   0.215  11.107 -0.8638  1.0995  0.9682
12396SOL    HW238630   6.499   0.146  10.981  2.8359  0.7471 -0.3138
12397SOL     OW38631   7.898   6.222   0.989  0.4569  1.1980 -0.5260
12397SOL    HW138632   7.971   6.278   0.961  0.8357  0.1678 -1.6963
12397SOL    HW238633   7.939   6.155   1.044  0.1153  1.6060  0.2463
12398SOL     OW38634   5.378   4.089   9.214 -0.6281 -0.1613 -0.2516
12398SOL    HW138635   5.376   4.085   9.118 -0.8341  0.7252 -0.2851
12398SOL    HW238636   5.393   3.998   9.241  1.9503 -0.1083 -1.1943
12399SOL     OW38637   3.663   2.731   9.265  0.5420  0.1418  0.5161
12399SOL    HW138638   3.592   2.756   9.207  0.2535  0.4851  1.0073
12399SOL    HW238639   3.682   2.810   9.316  2.1348  0.4411 -0.4745
12400SOL     OW38640   0.298   1.331   7.877  0.2486 -0.1826 -0.7972
12400SOL    HW138641   0.291   1.412   7.825 -1.5424  1.2975  1.5701
12400SOL    HW238642   0.365   1.351   7.942 -0.2725 -0.5552 -0.1421
12401SOL     OW38643   0.619   3.656  11.227  0.1601 -0.3619  0.3173
12401SOL    HW138644   0.538   3.655  11.278  0.5739 -1.0371  0.9842
12401SOL    HW238645   0.654   3.568  11.236  0.9112 -0.1094 -0.0571
12402SOL     OW38646   4.833   3.913  11.320 -0.2050 -0.8020  0.1265
12402SOL    HW138647   4.865   3.823  11.316  2.3532 -0.0230  1.1005
12402SOL    HW238648   4.860   3.945  11.407  0.7982  1.5142 -0.9468
12403SOL     OW38649   0.532   1.237   0.011  0.2881  0.0054 -0.1901
12403SOL    HW138650   0.598   1.243   0.081 -0.8869 -1.0443  1.0425
12403SOL    HW238651   0.580   1.200  -0.063  1.1731 -0.4042  0.5616
12404SOL     OW38652   5.037   5.007   8.019  0.2166 -0.6317 -0.0697
12404SOL    HW138653   5.122   5.048   8.003 -0.1273 -0.0631 -0.4724
12404SOL    HW238654   5.056   4.938   8.083  0.6936  0.6561  1.2415
12405SOL     OW38655   5.741   6.399   4.746  0.1990  0.0738 -0.3763
12405SOL    HW138656   5.655   6.359   4.759  0.0773 -0.2907 -2.0197
12405SOL    HW238657   5.796   6.362   4.814 -1.0105  0.5860  0.9310
12406SOL     OW38658   1.874   0.952   1.534  0.3014 -0.2048 -0.0901
12406SOL    HW138659   1.908   0.868   1.564 -0.3997  0.6716  3.5746
12406SOL    HW238660   1.949   0.995   1.493  0.7096 -2.4486 -1.9275
12407SOL     OW38661   3.330   4.021  10.199  0.2590 -0.0274  0.1549
12407SOL    HW138662   3.373   4.082  10.139  2.5085 -1.5856  0.0345
12407SOL    HW238663   3.390   4.014  10.273 -0.5552 -1.1353  0.7422
12408SOL     OW38664   4.204   6.011  10.708 -0.4662 -0.0504  0.5216
12408SOL    HW138665   4.262   5.946  10.749 -1.0847 -0.6029  0.5356
12408SOL    HW238666   4.179   5.972  10.625  0.8553  1.1151 -0.4570
12409SOL     OW38667   1.110   4.529   3.022 -0.3203  0.0119 -0.8613
12409SOL    HW138668   1.069   4.562   2.942 -3.3491 -0.8372  0.2125
12409SOL    HW238669   1.078   4.439   3.030  1.5940 -0.6264  0.2624
12410SOL     OW38670   7.304   3.324  11.356 -0.0609 -0.9194  0.3725
12410SOL    HW138671   7.308   3.304  11.263 -1.4480 -0.9031  0.2891
12410SOL    HW238672   7.220   3.369  11.368  0.6157  0.1170  1.4420
12411SOL     OW38673   5.884   3.180   9.998  0.3957  0.4082 -0.0754
12411SOL    HW138674   5.849   3.264   9.968 -0.0005 -0.0809 -1.0548
12411SOL    HW238675   5.927   3.200  10.081 -3.0128  0.9142  1.7375
12412SOL     OW38676   5.597   4.915   3.053  0.0807 -0.0733  0.1244
12412SOL    HW138677   5.666   4.899   2.989  0.2220 -1.0904  0.5033
12412SOL    HW238678   5.555   4.996   3.024  1.3735  0.5253 -0.1550
12413SOL     OW38679   1.619   1.951   5.706  0.0498 -0.5948  0.2291
12413SOL    HW138680   1.705   1.994   5.701  0.0920 -0.6980  0.0757
12413SOL    HW238681   1.572   2.001   5.773 -1.2352  2.1122 -2.4020
12414SOL     OW38682   4.754   0.436   8.821  0.1456  0.1782  0.2229
12414SOL    HW138683   4.689   0.366   8.814  0.9508 -0.7730  1.6236
12414SOL    HW238684   4.711   0.513   8.784 -1.2861 -0.7203 -0.0707
12415SOL     OW38685   2.033   0.730   1.081 -0.6099 -0.0327 -0.1787
12415SOL    HW138686   2.073   0.815   1.100  0.4319 -0.2668 -1.1597
12415SOL    HW238687   2.003   0.697   1.166 -1.8013  1.6659  0.1059
12416SOL     OW38688   0.872   1.818   3.803 -0.4879 -0.5153 -0.0136
12416SOL    HW138689   0.919   1.735   3.793  0.7003 -0.0303  1.2764
12416SOL    HW238690   0.807   1.800   3.871 -0.3663 -0.4340  0.1227
12417SOL     OW38691   6.568   5.321  10.511 -0.1293 -0.4169 -0.0352
12417SOL    HW138692   6.644   5.305  10.567 -0.4823 -0.1541  0.5396
12417SOL    HW238693   6.548   5.235  10.473  1.1311 -0.2526 -1.0972
12418SOL     OW38694   5.088   0.479   7.794 -0.2089  0.5429  0.0249
12418SOL    HW138695   5.043   0.555   7.758  1.2660  0.6290 -1.8017
12418SOL    HW238696   5.153   0.515   7.854  0.3278  0.7375 -0.6583
12419SOL     OW38697   5.715   5.849  10.790  0.2139 -0.2108  0.3204
12419SOL    HW138698   5.755   5.890  10.713 -0.9404  0.1962 -0.0720
12419SOL    HW238699   5.777   5.866  10.861  1.1355 -0.3077 -0.4357
12420SOL     OW38700   1.479   1.868   5.493  0.3120  0.3585  0.2787
12420SOL    HW138701   1.392   1.897   5.521  0.6842  0.0676  1.8045
12420SOL    HW238702   1.535   1.883   5.569  1.6637  0.7747 -0.7598
12421SOL     OW38703   2.121   3.344   6.766  0.0978  0.8921  0.4894
12421SOL    HW138704   2.056   3.315   6.702  0.7691  1.1793 -0.3295
12421SOL    HW238705   2.070   3.360   6.846 -0.9308  1.6637 -0.2985
12422SOL     OW38706   0.083   5.415   5.082  0.0070  0.2079 -0.6118
12422SOL    HW138707   0.070   5.439   5.174  0.1396 -1.1549 -0.2127
12422SOL    HW238708   0.002   5.370   5.058  0.7781 -1.2855 -0.5150
12423SOL     OW38709   6.086   6.995   4.658  0.2080  0.1135 -0.1988
12423SOL    HW138710   6.046   7.026   4.576 -1.5784 -1.2850  0.0785
12423SOL    HW238711   6.179   7.012   4.647 -0.2306  1.8173 -1.6767
12424SOL     OW38712   0.669   4.471  11.988  0.0017 -0.2430  0.1511
12424SOL    HW138713   0.675   4.445  12.081  1.0040  0.6337  0.3457
12424SOL    HW238714   0.746   4.525  11.973 -1.5406  1.9074 -0.4883
12425SOL     OW38715   1.216   4.001   6.407 -0.3305  0.1844  0.0101
12425SOL    HW138716   1.214   3.973   6.499  0.3764  1.4744  0.4323
12425SOL    HW238717   1.189   4.093   6.410  2.4287  1.0966 -0.7170
12426SOL     OW38718   2.349   2.815   7.735  0.1432 -0.2334 -0.1462
12426SOL    HW138719   2.361   2.724   7.763  0.1952 -0.2690 -0.2878
12426SOL    HW238720   2.437   2.850   7.729  0.1212 -0.1568 -0.0392
12427SOL     OW38721   6.696   7.469   9.235 -0.3320  0.0248  0.4941
12427SOL    HW138722   6.738   7.533   9.293  0.0143  0.8984 -0.6880
12427SOL    HW238723   6.729   7.385   9.266 -0.7077  0.3980  2.0147
12428SOL     OW38724   7.212   3.505   4.666 -0.7945  0.1906  0.1918
12428SOL    HW138725   7.121   3.476   4.675 -0.9184  0.5080 -0.0258
12428SOL    HW238726   7.251   3.442   4.606  0.0192 -1.9056  2.7292
12429SOL     OW38727   2.197   5.918   5.050  0.3432 -0.0280  0.0520
12429SOL    HW138728   2.205   5.829   5.014  0.2206 -0.0648  0.1116
12429SOL    HW238729   2.231   5.975   4.982 -1.4913  0.0462 -0.8690
12430SOL     OW38730   2.965   1.995  12.139  0.7966  0.9393 -0.1825
12430SOL    HW138731   2.929   1.994  12.227 -0.9697  0.5330 -0.8620
12430SOL    HW238732   2.973   2.088  12.117  1.0775  1.0378  0.3449
12431SOL     OW38733   5.436   0.419   1.857  0.3430  0.1327  0.7167
12431SOL    HW138734   5.386   0.455   1.931 -0.9766  0.3616 -0.2427
12431SOL    HW238735   5.370   0.402   1.790  1.5345  0.1134 -0.4918
12432SOL     OW38736   5.786   0.970  11.574  0.2068 -0.2225  0.2788
12432SOL    HW138737   5.760   1.060  11.590  2.6374  0.5701  0.1452
12432SOL    HW238738   5.829   0.942  11.655 -1.7381 -1.8225  0.8593
12433SOL     OW38739   3.761   6.377   8.956  0.5499 -0.0307 -0.1079
12433SOL    HW138740   3.735   6.467   8.973  0.4351 -0.5317  2.7922
12433SOL    HW238741   3.843   6.384   8.908  0.8807  1.6061  0.6571
12434SOL     OW38742   3.655   5.017   1.006 -0.0620  0.8890 -0.0822
12434SOL    HW138743   3.584   4.967   0.964 -0.8203  0.1927  1.9037
12434SOL    HW238744   3.641   5.107   0.977 -3.7883  1.4087  2.5741
12435SOL     OW38745   4.179   3.359  12.422  0.0724  0.7052  0.6049
12435SOL    HW138746   4.270   3.332  12.437 -0.8836 -1.9750  2.3260
12435SOL    HW238747   4.158   3.325  12.334  0.8347  1.7860 -0.0189
12436SOL     OW38748   5.617   2.680  10.323  0.4940 -0.0130 -0.1018
12436SOL    HW138749   5.642   2.639  10.240 -0.1890  1.8660 -1.2823
12436SOL    HW238750   5.643   2.771  10.315  0.2831  0.2522  1.7144
12437SOL     OW38751   6.818   0.691   2.210 -0.2043 -0.3661  0.1247
12437SOL    HW138752   6.821   0.780   2.174  0.4789 -0.5606 -0.3072
12437SOL    HW238753   6.759   0.698   2.285 -0.1857  0.4450  0.0711
12438SOL     OW38754   5.068   0.888   0.625  0.0543  0.2745  0.4230
12438SOL    HW138755   5.147   0.941   0.639  0.6176 -0.0738 -1.2791
12438SOL    HW238756   4.998   0.939   0.666  0.8768  1.4717  0.3890
12439SOL     OW38757   3.899   0.716   9.361 -0.1071  0.3476 -0.1026
12439SOL    HW138758   3.835   0.785   9.381 -0.5024 -0.3546  1.2075
12439SOL    HW238759   3.959   0.717   9.436  0.6389  0.1143 -0.6855
12440SOL     OW38760   6.974   3.820   2.907  0.0496 -0.1237  0.5706
12440SOL    HW138761   6.968   3.915   2.897  0.0719 -0.2939 -1.2918
12440SOL    HW238762   7.061   3.798   2.873  0.0735 -0.8240  1.0568
12441SOL     OW38763   0.861   6.871  10.067 -0.0864 -0.2768 -0.4238
12441SOL    HW138764   0.822   6.804  10.124 -0.2517 -1.5375 -1.9505
12441SOL    HW238765   0.933   6.826  10.023  1.8147  1.4280  0.7463
12442SOL     OW38766   5.234   6.919   4.859 -0.1851  0.1323 -0.4352
12442SOL    HW138767   5.258   6.831   4.888 -2.3080 -0.9988 -1.8450
12442SOL    HW238768   5.186   6.906   4.778 -0.4294  2.6366 -0.7925
12443SOL     OW38769   1.617   4.597   6.934 -0.9419  0.5762 -0.1064
12443SOL    HW138770   1.674   4.651   6.878  1.6082  0.3620  2.1023
12443SOL    HW238771   1.581   4.658   6.998 -1.4491  0.3420 -0.1666
12444SOL     OW38772   5.185   3.492   4.131  0.3635  0.4981 -0.0421
12444SOL    HW138773   5.091   3.470   4.128 -0.0519  2.0713  0.6662
12444SOL    HW238774   5.194   3.566   4.072  0.8039  1.5035  1.2359
12445SOL     OW38775   7.577   1.532   6.553 -0.0062  0.1332 -0.0240
12445SOL    HW138776   7.483   1.516   6.558  0.2050 -1.5732 -0.6364
12445SOL    HW238777   7.615   1.445   6.538  1.6463  0.8222 -0.0646
12446SOL     OW38778   3.086   2.905   1.187 -0.3414 -0.8253 -0.2592
12446SOL    HW138779   3.026   2.864   1.249 -0.2543  0.8862  1.0284
12446SOL    HW238780   3.133   2.971   1.238  1.1776 -0.7150 -1.7035
12447SOL     OW38781   7.742   0.530  10.681 -0.2409  0.2582  0.1214
12447SOL    HW138782   7.736   0.594  10.610 -1.3970  0.4154  0.3295
12447SOL    HW238783   7.691   0.570  10.752 -1.2554 -1.0381  0.1442
12448SOL     OW38784   4.831   1.235   7.098 -0.9143  0.1728 -0.2442
12448SOL    HW138785   4.760   1.239   7.163 -0.7591 -1.2873  0.0461
12448SOL    HW238786   4.911   1.240   7.149 -0.7848  0.6785 -0.4835
12449SOL     OW38787   7.320   6.497  10.128  0.1484  0.0469 -0.6218
12449SOL    HW138788   7.304   6.432  10.061  1.2013 -0.7410 -0.1381
12449SOL    HW238789   7.398   6.545  10.097  1.1629 -0.8794  0.3962
12450SOL     OW38790   6.721   7.777   9.295 -0.1839 -0.0828 -0.1719
12450SOL    HW138791   6.718   7.806   9.386 -2.7593  0.6230 -0.4026
12450SOL    HW238792   6.798   7.819   9.258  1.3441 -0.9782  1.8383
12451SOL     OW38793   6.129   0.443   8.709 -0.1496  0.4207  0.3745
12451SOL    HW138794   6.215   0.480   8.691 -0.7713  1.6352 -0.2464
12451SOL    HW238795   6.079   0.516   8.747 -1.0192 -0.1503  0.3731
12452SOL     OW38796   3.050   2.981   4.071 -0.1172  0.0118 -0.6215
12452SOL    HW138797   2.981   2.996   4.136 -0.4203  0.4457 -1.0439
12452SOL    HW238798   3.132   2.996   4.119 -0.3089 -0.4181 -0.1424
12453SOL     OW38799   5.931   5.219   1.868  0.1884  0.0680 -0.0003
12453SOL    HW138800   5.875   5.143   1.854  0.2044  0.2176 -0.9908
12453SOL    HW238801   5.963   5.209   1.957 -0.3306 -0.7400  0.1099
12454SOL     OW38802   1.033   7.075  10.115 -0.0589  0.0421 -0.0137
12454SOL    HW138803   0.993   7.027  10.043  0.2542 -0.3019  0.0372
12454SOL    HW238804   1.038   7.011  10.186  1.1371 -0.1147 -0.2151
12455SOL     OW38805   0.251   3.969   7.221 -0.1335 -0.3817 -0.4667
12455SOL    HW138806   0.232   3.878   7.243  1.8075 -0.6747  0.1979
12455SOL    HW238807   0.193   4.020   7.276 -0.4049 -1.2089  0.0234
12456SOL     OW38808   6.704   5.969   5.529  0.6654 -0.3376 -0.0810
12456SOL    HW138809   6.774   6.030   5.505 -0.2156 -0.0672 -2.2405
12456SOL    HW238810   6.749   5.886   5.544  1.5502  0.0014 -0.7158
12457SOL     OW38811   5.517   2.046   6.256 -0.0543 -0.5103  0.1659
12457SOL    HW138812   5.567   2.125   6.278 -0.2674 -0.0818 -0.8600
12457SOL    HW238813   5.435   2.057   6.304 -0.1256 -0.0596 -0.0527
12458SOL     OW38814   2.747   0.364   6.327  0.5061 -0.5555 -0.3096
12458SOL    HW138815   2.711   0.311   6.255 -1.0952 -1.4266  1.0490
12458SOL    HW238816   2.826   0.317   6.353  1.9684  0.5712 -2.3758
12459SOL     OW38817   2.355   0.972   9.429 -0.2874 -0.1149 -0.2524
12459SOL    HW138818   2.331   0.913   9.358  0.4725 -0.1235 -0.5096
12459SOL    HW238819   2.362   1.058   9.388 -2.2366  0.3368  0.2804
12460SOL     OW38820   6.908   1.376   1.088  0.6529 -0.2576  0.4526
12460SOL    HW138821   6.855   1.330   1.153  0.3970  1.1338  1.2837
12460SOL    HW238822   6.871   1.465   1.086 -0.9393 -0.8067 -3.3884
12461SOL     OW38823   0.446   1.590   5.603  0.2537  0.3080 -0.3859
12461SOL    HW138824   0.506   1.663   5.587  0.0838  0.4187 -0.5216
12461SOL    HW238825   0.371   1.631   5.647  0.2166  0.1922 -0.3424
12462SOL     OW38826   3.047   0.276   2.365 -0.1550 -0.3046  0.4410
12462SOL    HW138827   2.985   0.335   2.323  0.2537  0.5038  0.9595
12462SOL    HW238828   3.069   0.318   2.448  3.3699  0.9989 -0.9867
12463SOL     OW38829   6.157   0.419   4.974 -0.1763 -0.1068 -0.1977
12463SOL    HW138830   6.115   0.499   5.006  0.3477 -0.1614  0.6721
12463SOL    HW238831   6.250   0.433   4.990 -0.2026 -1.5294  1.5177
12464SOL     OW38832   7.707   0.660   5.516 -0.2588 -0.1986  0.0817
12464SOL    HW138833   7.646   0.599   5.556 -1.7799 -0.3270 -2.2604
12464SOL    HW238834   7.652   0.727   5.476  1.1131 -0.1036 -1.8023
12465SOL     OW38835   5.092   4.496   0.421  0.7352  0.2399 -0.3205
12465SOL    HW138836   5.187   4.505   0.408  1.1166 -1.1628  1.1598
12465SOL    HW238837   5.068   4.423   0.364  0.4466  0.8649 -1.0133
12466SOL     OW38838   0.092   6.912   2.056 -0.1300 -0.3453 -0.1065
12466SOL    HW138839   0.129   6.824   2.062 -2.1066 -1.2556 -0.7304
12466SOL    HW238840   0.079   6.938   2.148  0.7440 -0.5504  0.0884
12467SOL     OW38841   6.065   0.935   4.715  0.2359 -0.8360 -0.2114
12467SOL    HW138842   6.132   0.901   4.774 -0.4604 -0.8486  0.5940
12467SOL    HW238843   6.089   1.026   4.700 -0.5659 -0.2673  1.6121
12468SOL     OW38844   2.783   4.864   0.970  0.7105 -0.0720  0.8507
12468SOL    HW138845   2.812   4.918   1.044 -0.8636  2.1592 -0.0740
12468SOL    HW238846   2.846   4.882   0.901  0.6189 -0.0042  0.7843
12469SOL     OW38847   3.833   6.870   8.932 -0.6331 -0.4015 -0.1454
12469SOL    HW138848   3.914   6.830   8.962 -0.6630 -0.0366  0.4377
12469SOL    HW238849   3.844   6.963   8.950 -0.1879  0.0227 -2.3168
12470SOL     OW38850   0.795   6.310   8.397  0.4769  0.1903  0.0269
12470SOL    HW138851   0.787   6.228   8.347 -0.2424 -1.8586  3.1954
12470SOL    HW238852   0.756   6.376   8.340 -1.6705 -2.2195 -1.5591
12471SOL     OW38853   0.405   6.789   0.679  0.1902 -0.4034 -0.1444
12471SOL    HW138854   0.379   6.881   0.675  0.0238 -0.4734 -0.9356
12471SOL    HW238855   0.441   6.771   0.592 -3.2677 -2.0885 -1.4229
12472SOL     OW38856   3.573   2.390   5.465 -0.4797  0.0547  0.3780
12472SOL    HW138857   3.486   2.426   5.448 -1.0854 -1.5408 -0.0266
12472SOL    HW238858   3.619   2.461   5.510 -1.2070  1.7822 -1.4436
12473SOL     OW38859   2.515   2.792   1.576 -0.1929  0.4386  0.0890
12473SOL    HW138860   2.549   2.777   1.487 -0.8262 -1.2573  0.0909
12473SOL    HW238861   2.588   2.834   1.622  1.0352 -0.8248 -0.5882
12474SOL     OW38862   5.401   1.003   6.358  0.7457  0.3492  0.6765
12474SOL    HW138863   5.453   0.924   6.350  0.0204 -0.0735 -0.0596
12474SOL    HW238864   5.454   1.062   6.412  2.5010  0.3804 -0.9882
12475SOL     OW38865   7.158   4.035   2.906 -0.1896 -0.2593  0.0989
12475SOL    HW138866   7.212   4.077   2.973 -0.5295 -1.5113  1.1849
12475SOL    HW238867   7.220   4.003   2.841  0.0972  1.6162 -0.6044
12476SOL     OW38868   5.224   0.613   7.979  0.0824  0.2242  0.2841
12476SOL    HW138869   5.290   0.548   8.004 -0.3482 -0.4683 -0.3221
12476SOL    HW238870   5.149   0.594   8.036  0.0974  0.4498  0.3783
12477SOL     OW38871   1.250   3.982   7.799 -1.2274 -0.2781 -0.0064
12477SOL    HW138872   1.174   3.962   7.852 -0.5223 -2.0879  0.4144
12477SOL    HW238873   1.324   3.942   7.846 -0.5077 -1.5737 -2.0446
12478SOL     OW38874   2.449   2.091  12.178  0.6024 -0.0784  0.1666
12478SOL    HW138875   2.440   2.072  12.272 -0.8130 -0.7693 -0.0877
12478SOL    HW238876   2.503   2.020  12.144  0.5131 -0.2194  0.3187
12479SOL     OW38877   1.252   4.008  10.508 -0.2746 -0.1284 -0.5671
12479SOL    HW138878   1.234   4.095  10.545 -0.0416 -0.3651  0.1275
12479SOL    HW238879   1.226   4.015  10.417 -3.1963 -0.2275  0.1814
12480SOL     OW38880   1.540   0.197   7.477  0.2879  0.3763 -0.3054
12480SOL    HW138881   1.523   0.229   7.388  1.5442  1.1402 -0.2893
12480SOL    HW238882   1.624   0.150   7.470  0.2168  0.1345  0.4049
12481SOL     OW38883   5.250   2.195   6.205  0.3942  0.3755 -0.4256
12481SOL    HW138884   5.303   2.233   6.135  1.0657  1.5931  0.6899
12481SOL    HW238885   5.295   2.222   6.286 -0.8696 -0.2028  0.5019
12482SOL     OW38886   3.747   6.661   6.072 -0.2430  0.1595  0.2277
12482SOL    HW138887   3.678   6.719   6.103 -0.4487  0.9807 -1.6319
12482SOL    HW238888   3.709   6.618   5.995  1.8053  1.8888 -1.8958
12483SOL     OW38889   2.298   7.832   9.093 -0.2696  0.0646 -0.4226
12483SOL    HW138890   2.240   7.767   9.133 -0.6548 -1.1497 -2.7825
12483SOL    HW238891   2.338   7.877   9.168 -2.6527 -0.4554  1.3004
12484SOL     OW38892   5.720   4.440   0.242  0.6207  0.2410  0.1618
12484SOL    HW138893   5.628   4.464   0.256  0.1272 -1.2788 -0.3129
12484SOL    HW238894   5.717   4.349   0.213  2.1671  0.7236 -1.6555
12485SOL     OW38895   7.005   4.202   9.483  0.6715  0.4958 -0.5262
12485SOL    HW138896   7.044   4.133   9.537  0.3024  0.0952 -0.7665
12485SOL    HW238897   6.998   4.277   9.542  0.9140  0.2775 -0.2114
12486SOL     OW38898   4.003   3.293   4.983  0.4092  0.3200 -0.5856
12486SOL    HW138899   3.967   3.340   5.058 -1.1346  0.4580 -1.3583
12486SOL    HW238900   4.089   3.263   5.012 -0.1268  0.3933  1.2078
12487SOL     OW38901   1.131   5.964   5.510 -0.1554 -0.2364  0.8100
12487SOL    HW138902   1.198   5.902   5.479 -1.6247 -1.0396 -0.9503
12487SOL    HW238903   1.051   5.912   5.515 -1.3409  1.3889 -0.2521
12488SOL     OW38904   4.534   1.243   9.756 -0.4702  0.7975 -0.2029
12488SOL    HW138905   4.492   1.222   9.840  1.0275 -0.3912  0.2876
12488SOL    HW238906   4.465   1.229   9.691 -1.0937 -0.2537  0.6483
12489SOL     OW38907   1.935   4.948   0.031 -0.1381 -0.6804  0.0691
12489SOL    HW138908   1.903   4.883  -0.032 -0.7237 -0.2897 -0.0430
12489SOL    HW238909   2.024   4.918   0.053 -0.2831 -1.3462 -0.2145
12490SOL     OW38910   2.890   0.122   8.119  0.3586  0.0540  0.0201
12490SOL    HW138911   2.857   0.047   8.168  0.6372  0.4667  0.8549
12490SOL    HW238912   2.985   0.117   8.128  0.4340 -0.0661 -0.7824
12491SOL     OW38913   0.761   0.672   1.239 -0.4690 -0.7119  0.0456
12491SOL    HW138914   0.784   0.722   1.317  0.0976 -0.2286 -0.4236
12491SOL    HW238915   0.842   0.670   1.187 -0.6071 -1.7177 -0.1586
12492SOL     OW38916   2.096   3.023   7.640 -0.0186 -1.2337  0.3713
12492SOL    HW138917   2.105   3.090   7.572  0.1155 -1.4030  0.2210
12492SOL    HW238918   2.132   2.943   7.600  2.8116 -0.7055  1.6178
12493SOL     OW38919   3.267   4.554   3.077  0.0441 -0.1202  0.9696
12493SOL    HW138920   3.256   4.482   3.016  3.7850 -1.6868  1.8382
12493SOL    HW238921   3.308   4.514   3.154  2.5503  2.9087  1.3963
12494SOL     OW38922   7.074   2.418   3.572  0.0894 -0.0024 -0.2499
12494SOL    HW138923   7.153   2.375   3.539 -0.2467 -0.4968 -0.4173
12494SOL    HW238924   7.035   2.354   3.632  1.7197  1.5576  2.7522
12495SOL     OW38925   0.874   2.570  10.897  0.0052 -0.3088  0.3662
12495SOL    HW138926   0.892   2.613  10.980  0.2205  1.7584 -0.6888
12495SOL    HW238927   0.957   2.573  10.850 -0.6121  0.4553 -0.7231
12496SOL     OW38928   0.139   3.160   2.834  0.1035  0.5139 -0.6549
12496SOL    HW138929   0.051   3.170   2.796  0.1607  1.0285 -0.6564
12496SOL    HW238930   0.141   3.070   2.866 -0.5555  0.6070 -0.3377
12497SOL     OW38931   4.024   1.659   7.067 -0.4127 -0.8887 -0.1385
12497SOL    HW138932   3.967   1.678   6.992 -0.4953 -0.3888  0.0456
12497SOL    HW238933   3.971   1.681   7.144  0.3221  0.4525  0.0088
12498SOL     OW38934   4.251   7.961   5.808  0.3700  0.5652  0.0185
12498SOL    HW138935   4.276   7.879   5.851  0.1832  0.3646 -0.2544
12498SOL    HW238936   4.333   7.992   5.769  0.3751  0.3423 -0.1524
12499SOL     OW38937   2.069   5.273   1.725  0.4304 -0.0094  0.0465
12499SOL    HW138938   2.020   5.345   1.765 -0.6566  0.2082 -1.5422
12499SOL    HW238939   2.001   5.215   1.691  1.1879  0.4271 -2.4763
12500SOL     OW38940   5.771   7.759   2.300  0.0553 -0.4449  0.1156
12500SOL    HW138941   5.745   7.801   2.218  1.0779  0.0016  0.0036
12500SOL    HW238942   5.867   7.758   2.297  0.1031 -0.4881  1.2737
12501SOL     OW38943   4.635   0.986   6.200  0.0586 -0.1382  0.3205
12501SOL    HW138944   4.585   0.953   6.126 -0.9088 -0.5979  1.1497
12501SOL    HW238945   4.688   1.057   6.164 -1.5650  0.7176 -0.5084
12502SOL     OW38946   3.502   2.113   5.453  0.3071 -0.0667  0.1212
12502SOL    HW138947   3.432   2.112   5.388 -0.2737 -1.5073  0.7167
12502SOL    HW238948   3.550   2.194   5.437 -0.2738 -0.0394 -1.6010
12503SOL     OW38949   7.621   4.038  12.287  0.5469 -0.5631  0.2037
12503SOL    HW138950   7.532   4.067  12.306  0.5959  0.0790 -0.4908
12503SOL    HW238951   7.611   3.954  12.244  0.3283 -0.9314  0.9586
12504SOL     OW38952   7.637   6.304   8.400 -0.4990  0.4662 -0.2126
12504SOL    HW138953   7.579   6.259   8.339 -1.3733  0.4071  0.6485
12504SOL    HW238954   7.598   6.291   8.486  0.4692  0.9328  0.3236
12505SOL     OW38955   1.981   4.851   7.612  0.6435  0.7240  0.2223
12505SOL    HW138956   2.071   4.862   7.642  1.0730  2.8662 -1.6046
12505SOL    HW238957   1.985   4.778   7.550  0.9718  0.3715  0.6528
12506SOL     OW38958   1.709   3.350   8.069 -0.0411  0.4649  0.2677
12506SOL    HW138959   1.624   3.307   8.063 -0.1052  0.4322  1.2909
12506SOL    HW238960   1.747   3.319   8.151  0.1165  1.9760  0.8050
12507SOL     OW38961   7.958   2.430  11.478  0.2196 -0.4560  0.5142
12507SOL    HW138962   7.876   2.386  11.456 -0.0589 -0.5009  1.6190
12507SOL    HW238963   7.962   2.503  11.416 -0.8290 -0.2470  0.6680
12508SOL     OW38964   1.557   5.707  10.898 -0.5210  0.0982  0.3554
12508SOL    HW138965   1.492   5.740  10.835  0.2698  0.6305 -0.1973
12508SOL    HW238966   1.522   5.733  10.983 -1.1826  0.1220  0.0889
12509SOL     OW38967   0.529   7.369   3.402  0.2732 -0.3813  0.1589
12509SOL    HW138968   0.450   7.376   3.457  0.3262 -1.3586  0.3765
12509SOL    HW238969   0.496   7.363   3.313  0.0136 -2.0223  0.3327
12510SOL     OW38970   0.726   7.364   4.441 -0.2193  0.0475 -0.0218
12510SOL    HW138971   0.727   7.272   4.467 -0.3381 -0.5205 -1.8917
12510SOL    HW238972   0.818   7.390   4.440 -0.1988  0.0333  0.7176
12511SOL     OW38973   5.036   7.190  12.350 -0.5853  0.1667  0.1879
12511SOL    HW138974   5.017   7.221  12.438  1.5072  0.9039  0.4207
12511SOL    HW238975   5.120   7.145  12.357 -1.3134 -1.5322 -1.0701
12512SOL     OW38976   4.006   6.054   6.486  0.2049 -0.3505 -0.0943
12512SOL    HW138977   3.936   6.101   6.531  0.8470  0.6275 -0.0906
12512SOL    HW238978   3.963   6.010   6.413 -0.5796 -0.6243  0.5295
12513SOL     OW38979   4.180   6.845   7.511 -0.4757  0.4266 -0.0501
12513SOL    HW138980   4.262   6.879   7.477 -0.2443 -2.1615 -2.4312
12513SOL    HW238981   4.124   6.922   7.523  2.4397  2.4019  2.5373
12514SOL     OW38982   0.363   3.647   3.933  0.0504  0.7289 -0.2811
12514SOL    HW138983   0.301   3.618   4.000  1.3551  0.8063  0.9895
12514SOL    HW238984   0.379   3.739   3.953  1.4571  0.4157  0.1482
12515SOL     OW38985   1.057   2.179   2.001 -0.1506 -0.6492  0.0680
12515SOL    HW138986   0.990   2.113   1.983 -0.2431 -0.2865 -0.9841
12515SOL    HW238987   1.110   2.141   2.071  0.7309 -2.5206 -1.5387
12516SOL     OW38988   7.053   5.746   6.498 -0.4363  0.0907 -0.0849
12516SOL    HW138989   7.060   5.693   6.577 -0.3580 -0.3955 -0.4116
12516SOL    HW238990   7.044   5.836   6.529  1.5326  0.1447  0.4680
12517SOL     OW38991   6.037   0.922   3.160 -0.6030  0.3933  0.0594
12517SOL    HW138992   5.988   0.878   3.230  0.8625 -1.7718 -0.1850
12517SOL    HW238993   6.008   0.879   3.080  1.5680 -0.8774 -0.0921
12518SOL     OW38994   5.740   6.384   4.464  0.1013 -0.7779  0.1610
12518SOL    HW138995   5.767   6.293   4.453  0.7639 -0.8052  1.7533
12518SOL    HW238996   5.727   6.394   4.559  0.4746  0.8977  0.0742
12519SOL     OW38997   1.276   7.674   2.016  0.1350 -0.8308 -0.2666
12519SOL    HW138998   1.182   7.693   2.004  0.4068 -0.0201 -1.2926
12519SOL    HW238999   1.295   7.608   1.948  0.4962 -0.3245 -0.6615
12520SOL     OW39000   1.537   3.622   5.733 -0.1036 -0.3543  0.5035
12520SOL    HW139001   1.550   3.680   5.658  0.2577 -0.6372  0.3435
12520SOL    HW239002   1.524   3.681   5.807  1.3203 -0.0436  0.5312
12521SOL     OW39003   0.485   1.384   8.059 -0.4192 -0.9051  0.2726
12521SOL    HW139004   0.532   1.331   8.123  0.8748 -2.1844 -1.6253
12521SOL    HW239005   0.545   1.455   8.037 -0.8661 -0.4548  0.4939
12522SOL     OW39006   5.836   0.742   6.406  0.5940  0.4015  0.3121
12522SOL    HW139007   5.855   0.677   6.474 -0.3804 -0.0536  0.1745
12522SOL    HW239008   5.897   0.813   6.423 -0.0328  0.5755  2.0672
12523SOL     OW39009   4.996   0.685   4.753  0.3987  0.2490  0.0512
12523SOL    HW139010   5.036   0.767   4.784  1.6910  0.3348 -1.6740
12523SOL    HW239011   5.028   0.618   4.813 -1.6505  1.1098  2.2354
12524SOL     OW39012   0.835   2.847   5.143  0.7133 -0.3331  0.3305
12524SOL    HW139013   0.849   2.769   5.088  0.8489 -0.5660  0.6941
12524SOL    HW239014   0.893   2.913   5.105  0.1691 -0.2297 -0.3362
12525SOL     OW39015   4.714   3.051   6.867 -0.3946 -0.3142  0.0668
12525SOL    HW139016   4.666   3.090   6.794  2.4343  1.0025 -1.2654
12525SOL    HW239017   4.766   3.124   6.903  3.6679 -2.2702 -1.2742
12526SOL     OW39018   4.030   3.630   1.353  0.2232 -0.0394 -0.0294
12526SOL    HW139019   4.097   3.691   1.322  0.0081  0.8201  1.1691
12526SOL    HW239020   4.017   3.570   1.279 -0.0025  1.7224 -1.4721
12527SOL     OW39021   1.582   3.067   3.291 -0.3953 -0.0190 -0.1115
12527SOL    HW139022   1.660   3.075   3.237 -1.0160  0.1405 -1.0000
12527SOL    HW239023   1.545   3.155   3.293 -0.8881 -0.2199 -0.2061
12528SOL     OW39024   6.790   2.566   7.463 -0.4769 -0.0613 -0.2203
12528SOL    HW139025   6.811   2.621   7.387  1.6301  0.8525  0.9253
12528SOL    HW239026   6.749   2.626   7.525 -2.0383 -0.7656 -0.5273
12529SOL     OW39027   1.946   4.368   2.016 -0.2808 -0.1493 -0.1087
12529SOL    HW139028   1.873   4.311   2.039 -0.9302  0.3977 -0.7616
12529SOL    HW239029   1.941   4.376   1.921  1.5039 -1.2553 -0.3441
12530SOL     OW39030   0.917   3.926   0.210 -0.2215  0.9486 -0.6922
12530SOL    HW139031   0.882   3.999   0.262  0.8058  3.0354 -2.7239
12530SOL    HW239032   0.865   3.928   0.129  1.6801  1.3442 -1.9652
12531SOL     OW39033   7.032   0.133   2.578  0.7231 -0.2934  0.0586
12531SOL    HW139034   7.117   0.124   2.536  0.1481 -1.0209 -0.9756
12531SOL    HW239035   6.989   0.048   2.566 -0.4010  0.2566  0.0037
12532SOL     OW39036   4.116   1.627   8.569  0.3630 -0.1229 -0.0391
12532SOL    HW139037   4.070   1.676   8.638  0.6188  0.0630  0.0028
12532SOL    HW239038   4.124   1.539   8.604  0.3281 -0.0751  0.0915
12533SOL     OW39039   5.749   3.606  11.424 -0.1159 -0.7937  0.1339
12533SOL    HW139040   5.827   3.552  11.437 -0.0483 -0.5643  0.7002
12533SOL    HW239041   5.685   3.546  11.385  0.3558 -0.9725 -0.3704
12534SOL     OW39042   6.761   4.631   6.555  0.0590 -0.0533  0.4139
12534SOL    HW139043   6.748   4.664   6.465 -0.8261 -1.4602 -0.0149
12534SOL    HW239044   6.698   4.681   6.607  1.9585  2.2183  0.6761
12535SOL     OW39045   2.212   5.514   1.587  0.1652  0.3401  0.6409
12535SOL    HW139046   2.169   5.544   1.507  0.6076  1.4965  0.8286
12535SOL    HW239047   2.170   5.429   1.606 -0.5965  0.4932 -0.2893
12536SOL     OW39048   2.345   7.511   1.299  0.2800 -0.2417 -0.1480
12536SOL    HW139049   2.314   7.451   1.367  1.2794  1.0883  1.5710
12536SOL    HW239050   2.266   7.539   1.253 -1.0032  1.5178  2.8063
12537SOL     OW39051   5.540   3.256   1.613  0.0151 -1.0471  0.1582
12537SOL    HW139052   5.516   3.298   1.696  0.0800  0.2299 -0.4472
12537SOL    HW239053   5.631   3.231   1.624  0.4963  0.5075 -0.0484
12538SOL     OW39054   2.644   4.131   8.230  1.1308 -0.1139 -0.2535
12538SOL    HW139055   2.732   4.106   8.202  2.1042 -0.0827  2.5076
12538SOL    HW239056   2.651   4.224   8.251  0.8082 -0.4008  1.1977
12539SOL     OW39057   4.864   7.634   5.156  0.1434  0.2340 -0.3251
12539SOL    HW139058   4.859   7.548   5.197 -0.1325 -0.6689 -2.1762
12539SOL    HW239059   4.934   7.679   5.204  1.0713 -1.4122 -0.0567
12540SOL     OW39060   2.437   4.895  10.213  0.0993  0.4786  0.0874
12540SOL    HW139061   2.347   4.861  10.220  0.3146  0.0867  1.2129
12540SOL    HW239062   2.431   4.966  10.149 -0.8888  0.0464 -0.3242
12541SOL     OW39063   7.293   1.842  11.980  0.1501 -0.1931  0.0458
12541SOL    HW139064   7.351   1.887  12.043  0.5143 -0.9402  0.2522
12541SOL    HW239065   7.248   1.776  12.032  0.8359 -1.1715 -0.5578
12542SOL     OW39066   3.143   4.908   7.008  0.5275  0.7881 -0.4366
12542SOL    HW139067   3.172   4.860   7.086  3.8197  3.0299 -0.1155
12542SOL    HW239068   3.158   4.847   6.936 -0.7369 -0.6130  0.4231
12543SOL     OW39069   0.539   5.196   1.433  0.4247  0.4430 -0.1193
12543SOL    HW139070   0.633   5.193   1.414  0.6918 -1.4181  1.1858
12543SOL    HW239071   0.497   5.196   1.347  1.6087 -3.7795 -0.9157
12544SOL     OW39072   2.697   2.294   7.990  0.2422  0.0170  0.4641
12544SOL    HW139073   2.710   2.346   7.911  0.6455 -0.9276 -0.1075
12544SOL    HW239074   2.651   2.353   8.050  2.1462  1.6238  0.4836
12545SOL     OW39075   6.474   6.474   2.313  0.3482  0.0520  0.2870
12545SOL    HW139076   6.489   6.379   2.316  2.0626  0.3021  0.5458
12545SOL    HW239077   6.387   6.483   2.275  0.1205 -1.6318  0.3327
12546SOL     OW39078   2.246   3.861   5.215  0.1337  0.1176  0.3491
12546SOL    HW139079   2.192   3.937   5.237 -0.7312 -0.5894  0.6828
12546SOL    HW239080   2.305   3.851   5.291 -0.4572 -0.1728  0.7735
12547SOL     OW39081   5.990   5.062  10.788 -0.0434  0.2395  0.1519
12547SOL    HW139082   6.077   5.090  10.813 -0.3973  2.4492 -0.9267
12547SOL    HW239083   5.931   5.125  10.829 -1.0939 -0.5952 -0.0072
12548SOL     OW39084   4.587   7.163   3.973  0.0576 -0.1210 -0.0304
12548SOL    HW139085   4.576   7.161   3.878  1.4521  0.3179 -0.2174
12548SOL    HW239086   4.528   7.233   4.002 -0.3819 -0.2627 -0.5698
12549SOL     OW39087   5.933   0.522   9.805  0.1111 -0.1562 -0.5372
12549SOL    HW139088   5.954   0.521   9.711 -0.2581 -0.9596 -0.6178
12549SOL    HW239089   5.843   0.490   9.810 -1.4695  3.7454 -0.2470
12550SOL     OW39090   4.587   7.855  11.596 -0.1904 -0.5719  0.1258
12550SOL    HW139091   4.586   7.886  11.506  0.0980  2.4318  1.0338
12550SOL    HW239092   4.679   7.845  11.618 -0.2417 -0.8870  0.1996
12551SOL     OW39093   7.909   0.082   1.257 -0.2442  0.2817 -0.2730
12551SOL    HW139094   7.922  -0.007   1.223 -0.0373  0.4582 -0.6674
12551SOL    HW239095   7.847   0.071   1.329  0.4052 -0.2897  0.2139
12552SOL     OW39096   7.912   5.330   5.628 -0.1330  0.1606  0.1584
12552SOL    HW139097   7.920   5.417   5.668 -1.5156  0.1461  0.5172
12552SOL    HW239098   7.855   5.344   5.552 -0.0399 -0.3703 -0.0149
12553SOL     OW39099   6.501   4.025   9.259  0.0720 -0.0676 -0.1158
12553SOL    HW139100   6.487   4.034   9.353  0.4331  0.5999 -0.1218
12553SOL    HW239101   6.462   4.104   9.222 -0.9281 -0.7808 -0.6181
12554SOL     OW39102   0.268   2.780   7.782  0.9419 -0.1877 -0.5945
12554SOL    HW139103   0.295   2.749   7.868 -0.4938 -0.2883 -0.1545
12554SOL    HW239104   0.323   2.732   7.721  1.3568 -0.7914  0.2298
12555SOL     OW39105   2.294   3.606   4.691  0.0056 -0.0277  0.1569
12555SOL    HW139106   2.294   3.563   4.777  0.0909  1.2565  0.8263
12555SOL    HW239107   2.204   3.637   4.681  0.6174  2.3171  1.1292
12556SOL     OW39108   3.983   4.512   2.433  0.0015  0.5717 -0.2292
12556SOL    HW139109   3.915   4.444   2.429  0.5070  0.0435  0.0675
12556SOL    HW239110   3.976   4.547   2.522  0.5635  0.0403  0.0341
12557SOL     OW39111   3.513   2.984   2.260  0.0727 -0.2951 -0.0709
12557SOL    HW139112   3.572   2.909   2.244 -0.0342 -0.5365  0.6494
12557SOL    HW239113   3.570   3.060   2.253  0.7074 -0.5783  1.6172
12558SOL     OW39114   4.695   5.023  10.376  0.4117 -0.0336 -0.0656
12558SOL    HW139115   4.630   5.093  10.379  1.0369  0.5224  0.4721
12558SOL    HW239116   4.691   4.983  10.463  1.2512  0.4276  0.1934
12559SOL     OW39117   6.690   4.942   7.054 -0.4537 -0.3563  0.1474
12559SOL    HW139118   6.763   4.986   7.010 -0.3844  1.4812  1.9756
12559SOL    HW239119   6.612   4.977   7.012 -0.3489 -0.2942 -0.0000
12560SOL     OW39120   7.531   4.711   1.533  0.1652  0.1696  0.0463
12560SOL    HW139121   7.560   4.774   1.599  0.6007  0.3690 -0.3319
12560SOL    HW239122   7.496   4.638   1.584 -2.9700  1.8474  0.5397
12561SOL     OW39123   5.789   6.718   0.188  0.1858 -0.4168  0.8643
12561SOL    HW139124   5.863   6.676   0.146  0.1251 -1.5159  1.8250
12561SOL    HW239125   5.812   6.811   0.189  1.1297 -0.6319  0.3319
12562SOL     OW39126   3.980   0.931  11.154 -0.5824 -0.4248 -0.5236
12562SOL    HW139127   3.913   0.999  11.149  0.7687  1.0510  0.6321
12562SOL    HW239128   4.016   0.939  11.243  1.1195 -1.1709 -1.1056
12563SOL     OW39129   2.477   3.396  11.881 -0.0942  0.5727  0.0104
12563SOL    HW139130   2.472   3.446  11.962 -1.6137 -1.0137  0.9641
12563SOL    HW239131   2.402   3.336  11.884  2.1211 -2.5043 -0.4984
12564SOL     OW39132   3.190   5.389   4.774 -0.2933  0.1628 -0.2109
12564SOL    HW139133   3.099   5.363   4.788 -0.7708  0.4639 -2.4444
12564SOL    HW239134   3.229   5.314   4.729  0.7239 -0.1513  1.1411
12565SOL     OW39135   1.086   6.239  10.206  0.1580 -0.3121 -0.0452
12565SOL    HW139136   1.108   6.277  10.121  0.0275 -0.5409 -0.1825
12565SOL    HW239137   1.008   6.285  10.235  0.9426  0.6776  0.5596
12566SOL     OW39138   4.967   1.282  11.900  0.3314 -0.6985 -0.6178
12566SOL    HW139139   4.985   1.229  11.978 -0.2845 -0.9460 -0.6320
12566SOL    HW239140   5.048   1.330  11.884 -0.4544  1.8233  2.0782
12567SOL     OW39141   4.227   5.259   0.784  0.1674  0.1868 -0.4173
12567SOL    HW139142   4.156   5.197   0.764 -1.2456  1.3681  0.6651
12567SOL    HW239143   4.222   5.324   0.714  0.1977  0.2390 -0.3711
12568SOL     OW39144   2.838   5.083  10.098 -0.2023 -0.3059  0.0850
12568SOL    HW139145   2.926   5.045  10.109 -0.5122 -1.0299  0.1145
12568SOL    HW239146   2.778   5.011  10.116 -0.8110  0.1712  0.0143
12569SOL     OW39147   3.078   6.912   3.820  0.0168 -0.6119 -0.1967
12569SOL    HW139148   3.172   6.927   3.829  0.2676 -1.4798 -1.0821
12569SOL    HW239149   3.046   6.899   3.909  0.9943 -1.6450  0.0303
12570SOL     OW39150   6.925   1.559   9.018  0.0542 -0.6707 -0.0129
12570SOL    HW139151   6.988   1.488   9.026 -0.5523 -1.3304 -0.8126
12570SOL    HW239152   6.969   1.624   8.963  0.0148 -1.1701 -0.6503
12571SOL     OW39153   2.691   7.438   9.496  0.0759  0.7234  0.3347
12571SOL    HW139154   2.764   7.386   9.529  0.2675  1.7847  1.7012
12571SOL    HW239155   2.732   7.515   9.457 -0.2366  0.2625 -0.9529
12572SOL     OW39156   7.869   1.823   4.023 -0.1479 -0.1353  0.3855
12572SOL    HW139157   7.896   1.748   3.970  0.8308  1.8220 -2.1106
12572SOL    HW239158   7.926   1.894   3.994 -2.3667  2.0924  1.1287
12573SOL     OW39159   5.428   2.961   8.631  0.1113 -0.1423  0.4028
12573SOL    HW139160   5.524   2.966   8.633  0.0568  0.8803  0.8621
12573SOL    HW239161   5.402   3.009   8.553 -0.1016  1.1541  1.2499
12574SOL     OW39162   3.073   0.747   2.794  0.0493  0.2311  0.0396
12574SOL    HW139163   3.028   0.784   2.871  0.2464 -0.8566  0.6937
12574SOL    HW239164   3.049   0.654   2.795 -0.0176  0.2211 -1.2800
12575SOL     OW39165   3.953   7.048   9.917 -0.4293 -0.9486 -0.2201
12575SOL    HW139166   3.992   6.978   9.864  0.8928 -0.4720  0.0795
12575SOL    HW239167   3.945   7.010  10.005 -0.1506 -0.8869 -0.1660
12576SOL     OW39168   0.957   7.201   5.099 -0.1395 -0.1672  0.2368
12576SOL    HW139169   0.929   7.265   5.034 -0.0877 -0.5119 -0.1301
12576SOL    HW239170   0.902   7.125   5.082 -0.3554 -0.1418  0.8169
12577SOL     OW39171   5.217   1.763  11.248 -0.0444 -0.0715  0.1191
12577SOL    HW139172   5.188   1.739  11.336 -0.0711 -0.9205 -0.1075
12577SOL    HW239173   5.181   1.850  11.233 -2.6311 -1.1128 -0.1997
12578SOL     OW39174   1.044   6.564   0.172  0.2701  0.1646 -0.6510
12578SOL    HW139175   1.054   6.615   0.252  0.8090 -0.8168 -0.0634
12578SOL    HW239176   1.099   6.608   0.108  1.7859 -0.3941  0.2118
12579SOL     OW39177   0.836   5.192   9.052  0.1059 -0.2144 -0.0544
12579SOL    HW139178   0.876   5.279   9.048 -2.1968  0.8992 -0.1513
12579SOL    HW239179   0.768   5.194   8.985  0.2046 -2.2148 -0.2551
12580SOL     OW39180   0.975   5.990   0.332 -0.3235  0.1826 -0.2526
12580SOL    HW139181   0.908   6.053   0.360 -1.7363 -1.5478  0.4450
12580SOL    HW239182   0.960   5.913   0.386  0.5456 -1.2341 -1.9151
12581SOL     OW39183   0.713   7.447   7.955 -0.0141 -0.0621  0.0455
12581SOL    HW139184   0.627   7.473   7.921  0.1855 -0.3018 -0.6493
12581SOL    HW239185   0.694   7.416   8.044 -0.4818  0.9385  0.3146
12582SOL     OW39186   1.074   1.282   2.404 -0.0175  0.2394  0.2921
12582SOL    HW139187   1.164   1.274   2.373  0.0303  1.5781  0.0482
12582SOL    HW239188   1.075   1.358   2.462 -0.2590 -1.7516  3.1175
12583SOL     OW39189   0.461   5.107   7.798  0.4294  0.4158 -0.3607
12583SOL    HW139190   0.365   5.108   7.794  0.4685  1.2657 -1.7692
12583SOL    HW239191   0.481   5.059   7.878 -1.1729  0.2344 -0.0331
12584SOL     OW39192   7.039   3.829  11.383 -0.8682 -0.8754  0.0805
12584SOL    HW139193   7.134   3.834  11.377 -1.0062  1.9303 -1.9157
12584SOL    HW239194   7.022   3.762  11.450  2.4680 -1.0916  0.8741
12585SOL     OW39195   5.526   5.690   1.726 -0.6671  0.4165 -0.1891
12585SOL    HW139196   5.444   5.640   1.723 -1.8573  2.3049 -1.8160
12585SOL    HW239197   5.500   5.780   1.709  1.3626  1.7379  2.8469
12586SOL     OW39198   4.283   3.005   6.245  0.2686  0.5827 -0.7079
12586SOL    HW139199   4.334   3.025   6.167 -0.7227  1.0946 -1.2416
12586SOL    HW239200   4.199   2.974   6.211 -0.6245  1.9727  0.1296
12587SOL     OW39201   5.736   0.137   1.703  0.2422 -0.2960  0.4487
12587SOL    HW139202   5.786   0.214   1.678 -1.0716  0.0926 -1.1558
12587SOL    HW239203   5.791   0.093   1.769  1.8296  1.0257  0.0784
12588SOL     OW39204   7.268   0.247  12.458  0.6136  0.0193  0.0697
12588SOL    HW139205   7.266   0.324  12.515  0.6719 -0.8698  1.3225
12588SOL    HW239206   7.195   0.193  12.488 -1.1179  0.7660 -2.5665
12589SOL     OW39207   2.239   2.733  11.523 -0.4536 -0.1250 -0.0504
12589SOL    HW139208   2.323   2.714  11.566 -0.7589 -1.2286  0.0834
12589SOL    HW239209   2.199   2.647  11.509 -1.2518  0.3476 -0.7547
12590SOL     OW39210   3.546   2.746   7.834  0.4712  0.2263 -0.5093
12590SOL    HW139211   3.510   2.834   7.835 -0.1392 -0.0234  0.4914
12590SOL    HW239212   3.637   2.757   7.803  0.4588  1.2094 -0.2150
12591SOL     OW39213   4.251   1.484  10.338 -0.0399  0.2652  0.1404
12591SOL    HW139214   4.178   1.529  10.296  0.5638  1.0607 -0.1038
12591SOL    HW239215   4.327   1.540  10.319  0.3792  0.2651  1.6624
12592SOL     OW39216   6.253   2.743   6.331  0.6340 -0.3276 -0.2909
12592SOL    HW139217   6.208   2.814   6.284 -1.3366 -1.6285 -0.5094
12592SOL    HW239218   6.216   2.746   6.420  0.8492 -0.8182 -0.1808
12593SOL     OW39219   0.785   4.708  11.506 -0.1557  0.1045 -0.3386
12593SOL    HW139220   0.860   4.648  11.500  0.3158  0.7270 -0.8209
12593SOL    HW239221   0.748   4.708  11.418  0.8232  1.7302 -0.7980
12594SOL     OW39222   4.919   5.362  12.230 -0.7565  0.0505  0.6965
12594SOL    HW139223   5.000   5.321  12.260 -1.5744 -0.9627  1.6041
12594SOL    HW239224   4.940   5.397  12.143  0.9068  0.6450  1.3086
12595SOL     OW39225   4.905   6.940   1.652 -0.1608  0.0170 -0.4049
12595SOL    HW139226   4.843   6.886   1.701  0.1090 -1.0569 -1.2121
12595SOL    HW239227   4.982   6.885   1.640  0.8177  1.1915  0.2357
12596SOL     OW39228   2.696   6.212   8.769  0.2860  0.0039  0.1259
12596SOL    HW139229   2.632   6.162   8.720  1.4830 -2.5152  0.9424
12596SOL    HW239230   2.779   6.198   8.722  1.3015 -1.7950  2.2576
12597SOL     OW39231   3.837   7.354   2.309  0.1739  0.0206 -0.2128
12597SOL    HW139232   3.776   7.343   2.236 -0.8072 -0.2006  0.6106
12597SOL    HW239233   3.826   7.274   2.361  1.1494 -0.0021 -0.0194
12598SOL     OW39234   4.150   4.637  12.321  0.1554  0.6605  0.2335
12598SOL    HW139235   4.209   4.575  12.364 -1.1520 -0.8883 -0.0898
12598SOL    HW239236   4.176   4.636  12.229 -0.4430 -0.1446  0.0619
12599SOL     OW39237   2.039   4.374   5.122  0.1076  0.2741 -0.4146
12599SOL    HW139238   2.077   4.437   5.061 -1.1685  1.7748  0.2906
12599SOL    HW239239   2.085   4.390   5.205  0.0576 -0.0134 -0.3297
12600SOL     OW39240   3.066   0.755   8.931 -0.1072  0.1440  0.6599
12600SOL    HW139241   3.124   0.681   8.947 -0.9383 -0.0774  3.0042
12600SOL    HW239242   3.067   0.805   9.012 -0.6779  1.9544 -0.3750
12601SOL     OW39243   2.411   3.221   8.655 -0.2600  0.0590  0.0591
12601SOL    HW139244   2.336   3.280   8.655  0.2145  0.6803  0.4441
12601SOL    HW239245   2.421   3.194   8.746  0.9518  1.2848  0.3333
12602SOL     OW39246   4.944   3.273   1.013 -0.3472  0.2699 -0.7022
12602SOL    HW139247   4.972   3.336   0.946 -0.3434 -1.8869 -2.8862
12602SOL    HW239248   5.025   3.237   1.048 -0.2370 -1.6434 -2.7036
12603SOL     OW39249   7.827   1.362   6.117  0.1347  0.0136  0.1261
12603SOL    HW139250   7.889   1.289   6.123  0.8146  0.3456 -1.9411
12603SOL    HW239251   7.850   1.419   6.190  0.8560 -0.9088  0.6476
12604SOL     OW39252   0.794   2.562   4.217 -0.3083  0.3714 -0.4008
12604SOL    HW139253   0.877   2.524   4.246  0.3610  2.4904  0.6872
12604SOL    HW239254   0.805   2.574   4.122 -0.5667 -2.0246 -0.7982
12605SOL     OW39255   2.939   6.720   8.653 -0.5076 -0.3458  0.4602
12605SOL    HW139256   2.947   6.637   8.605 -2.2355  0.8309 -2.0356
12605SOL    HW239257   2.991   6.782   8.602 -0.6957  0.5239  1.3141
12606SOL     OW39258   6.307   6.752   6.840  0.3394  0.5036 -0.4560
12606SOL    HW139259   6.240   6.746   6.772  0.3208 -0.5133 -0.3630
12606SOL    HW239260   6.333   6.844   6.840 -0.6159  0.7823 -0.9139
12607SOL     OW39261   0.032   0.738   9.208  0.0417  0.3054  0.2663
12607SOL    HW139262   0.000   0.689   9.284  0.3716 -1.9071 -0.9448
12607SOL    HW239263  -0.018   0.704   9.134  0.5796  1.5520 -0.7201
12608SOL     OW39264   4.124   7.060   8.866 -0.6135 -0.4669  0.2578
12608SOL    HW139265   4.208   7.061   8.913 -0.4443  0.9651 -0.0267
12608SOL    HW239266   4.086   7.146   8.883 -0.8988 -0.1831 -1.5770
12609SOL     OW39267   7.130   5.143   8.312 -0.4304 -0.0561  0.5167
12609SOL    HW139268   7.126   5.156   8.407  0.4900  4.6412  0.1570
12609SOL    HW239269   7.223   5.150   8.290 -0.4760 -2.3493 -0.7106
12610SOL     OW39270   4.742   5.009   9.407  0.0957  0.0154 -0.2716
12610SOL    HW139271   4.801   4.971   9.473  0.6856  0.3372 -0.5996
12610SOL    HW239272   4.708   5.088   9.448  0.4082  0.1786 -0.3208
12611SOL     OW39273   0.355   1.172   0.805  0.0824  0.1180  0.4435
12611SOL    HW139274   0.445   1.195   0.781 -0.1481  0.5631 -0.0064
12611SOL    HW239275   0.357   1.076   0.812  0.4648  0.0796 -0.1021
12612SOL     OW39276   6.703   4.021   4.742  0.1775  0.1497  0.0449
12612SOL    HW139277   6.628   4.059   4.696  0.0093  0.5754  0.6500
12612SOL    HW239278   6.725   4.087   4.809 -0.5426 -1.0839  1.5599
12613SOL     OW39279   6.326   6.054   7.830 -0.2488 -0.0885 -0.3021
12613SOL    HW139280   6.308   6.147   7.837 -1.8103 -0.3815 -0.0979
12613SOL    HW239281   6.249   6.011   7.868  0.3185 -1.4630 -0.6292
12614SOL     OW39282   5.819   4.147   7.844  0.0601 -0.7291 -0.2168
12614SOL    HW139283   5.803   4.144   7.750  0.3340  0.2000 -0.3028
12614SOL    HW239284   5.839   4.056   7.868 -1.1247 -1.1827 -0.8383
12615SOL     OW39285   2.040   1.080  10.321  0.7416 -0.1062 -0.2301
12615SOL    HW139286   2.064   1.093  10.413 -1.3351  0.5953  0.2548
12615SOL    HW239287   1.992   0.997  10.320  1.3499 -0.4635 -0.8233
12616SOL     OW39288   4.674   5.434   6.122  0.2603 -0.5643 -0.6480
12616SOL    HW139289   4.608   5.393   6.065 -0.3265  0.1951 -0.5314
12616SOL    HW239290   4.728   5.361   6.152 -1.1659 -1.3767  0.0759
12617SOL     OW39291   1.241   5.974  11.778 -0.4666 -0.2343  0.2033
12617SOL    HW139292   1.331   5.952  11.754  0.9249  3.7877  1.0069
12617SOL    HW239293   1.209   6.027  11.705 -0.1217  2.7885  2.0452
12618SOL     OW39294   4.352   1.201   5.837 -0.6610 -0.5796  0.3104
12618SOL    HW139295   4.380   1.181   5.926 -0.5160  1.9140  0.8895
12618SOL    HW239296   4.259   1.224   5.845 -1.0249 -1.7009 -0.4364
12619SOL     OW39297   1.780   5.036   8.222 -0.7472  0.1515  0.1174
12619SOL    HW139298   1.702   5.039   8.277 -0.7741 -1.8566  0.2604
12619SOL    HW239299   1.851   5.070   8.278 -0.8816 -1.3031  1.2091
12620SOL     OW39300   4.552   3.711   2.043 -0.1987  0.5444 -0.2429
12620SOL    HW139301   4.508   3.792   2.071  1.4060  0.8580  1.6064
12620SOL    HW239302   4.483   3.645   2.043 -0.8907  1.2008  1.7242
12621SOL     OW39303   6.181   6.147   9.057  0.3476  0.2679 -0.6473
12621SOL    HW139304   6.135   6.224   9.092  1.6352  0.6851  0.1981
12621SOL    HW239305   6.153   6.074   9.112  1.6215  0.7493  0.7055
12622SOL     OW39306   0.577   1.755   7.339  0.8966 -0.3488 -0.6966
12622SOL    HW139307   0.590   1.848   7.322  0.7774 -0.4176 -1.1708
12622SOL    HW239308   0.637   1.735   7.411 -0.2517  0.4517  0.5332
12623SOL     OW39309   5.646   6.601   9.164 -0.4395 -0.6978 -0.1001
12623SOL    HW139310   5.657   6.549   9.084  0.3854 -0.8236  0.0804
12623SOL    HW239311   5.706   6.675   9.153 -0.0255 -0.9167  0.5506
12624SOL     OW39312   1.977   0.562  10.945 -0.1231 -1.2186  0.1867
12624SOL    HW139313   2.043   0.494  10.951  0.1424 -1.1126 -1.1384
12624SOL    HW239314   1.900   0.527  10.990  0.7272 -1.4672  1.4641
12625SOL     OW39315   3.814   1.608   9.661  0.1116  0.4894  0.3195
12625SOL    HW139316   3.758   1.642   9.591  0.5083 -0.2877 -0.3890
12625SOL    HW239317   3.869   1.542   9.619 -0.3521 -0.7415  1.5720
12626SOL     OW39318   1.112   1.774   3.116 -0.0331 -0.2664  0.3256
12626SOL    HW139319   1.044   1.812   3.061 -1.0882  0.4906  2.0612
12626SOL    HW239320   1.073   1.693   3.150  0.3877 -0.4507  0.3769
12627SOL     OW39321   6.551   4.404   3.483  0.2878 -0.3818 -0.1950
12627SOL    HW139322   6.596   4.410   3.567 -1.3263  0.7965  0.6533
12627SOL    HW239323   6.584   4.479   3.433  0.6876 -0.6442 -0.3277
12628SOL     OW39324   6.927   0.487   5.395 -0.0331  0.3244  0.1323
12628SOL    HW139325   7.020   0.476   5.374  0.4988  1.4222  1.7421
12628SOL    HW239326   6.920   0.577   5.426 -1.1670 -0.4020  2.1663
12629SOL     OW39327   0.343   6.553   2.697 -0.0880  0.1668 -0.6023
12629SOL    HW139328   0.252   6.577   2.710 -0.6742 -1.8528 -0.7055
12629SOL    HW239329   0.378   6.545   2.786 -0.4385 -0.5530 -0.5249
12630SOL     OW39330   4.941   6.200   3.589 -0.0303  0.2953 -0.3918
12630SOL    HW139331   4.889   6.184   3.668  0.9366  1.8058  0.6215
12630SOL    HW239332   5.023   6.237   3.622  0.1998  1.4512 -2.1278
12631SOL     OW39333   5.232   0.236   7.445 -0.2550 -0.1853 -0.5011
12631SOL    HW139334   5.244   0.151   7.488 -1.6977 -0.3560 -0.3927
12631SOL    HW239335   5.317   0.255   7.405  1.5004  0.3536  3.0577
12632SOL     OW39336   0.389   1.591   0.792  0.0906 -0.1648  0.2008
12632SOL    HW139337   0.454   1.658   0.771 -1.9168  1.8780  0.0826
12632SOL    HW239338   0.378   1.541   0.711  0.1226  0.7230 -0.3618
12633SOL     OW39339   6.397   0.221   9.150 -0.1825 -0.7795  0.4005
12633SOL    HW139340   6.418   0.223   9.057 -3.3065 -2.0227 -0.4538
12633SOL    HW239341   6.391   0.313   9.176  2.2547 -0.4031 -0.1553
12634SOL     OW39342   0.578   0.845   6.594 -0.2016 -0.1865  0.6488
12634SOL    HW139343   0.532   0.898   6.660  0.7419  1.7847 -0.1750
12634SOL    HW239344   0.670   0.868   6.606  0.0995 -0.6657 -0.6155
12635SOL     OW39345   4.317   3.804   2.542  0.0168  0.0382  0.1823
12635SOL    HW139346   4.392   3.795   2.483 -0.0312  1.4203 -0.1208
12635SOL    HW239347   4.356   3.830   2.626 -0.1463  1.2194 -0.0994
12636SOL     OW39348   2.299   3.479   6.976  0.2969 -0.1804  0.2774
12636SOL    HW139349   2.259   3.557   7.014  0.0079 -0.2886  0.1933
12636SOL    HW239350   2.273   3.480   6.884  2.1834  0.8699 -0.2983
12637SOL     OW39351   4.344   6.167   8.529  0.2174 -0.4936  0.1292
12637SOL    HW139352   4.258   6.124   8.526 -0.0532  0.0258  0.2239
12637SOL    HW239353   4.404   6.103   8.493 -0.4783 -0.2549 -1.5614
12638SOL     OW39354   0.061   5.508   3.494  0.1382  0.3611  0.4033
12638SOL    HW139355  -0.020   5.540   3.454  0.6866  0.5491 -0.5923
12638SOL    HW239356   0.127   5.519   3.426  1.5735  2.6649  2.0319
12639SOL     OW39357   0.540   3.200   4.730 -0.3909 -0.9341  0.5817
12639SOL    HW139358   0.489   3.232   4.805 -0.6056  1.2120 -0.3998
12639SOL    HW239359   0.484   3.132   4.691 -1.8839  0.3238  0.4057
12640SOL     OW39360   3.935   2.048   7.604  0.8773  1.1364 -0.2641
12640SOL    HW139361   3.914   2.138   7.629  0.6337  0.5816  1.6790
12640SOL    HW239362   4.029   2.041   7.618  0.6152  0.5745  1.5542
12641SOL     OW39363   1.802   6.401   0.802 -0.0299  0.3071 -0.5738
12641SOL    HW139364   1.862   6.327   0.812 -0.4876 -0.0888 -0.6699
12641SOL    HW239365   1.852   6.477   0.829  0.0559 -0.2082  0.8376
12642SOL     OW39366   6.345   5.338   6.520  0.1264  0.7895 -0.5227
12642SOL    HW139367   6.382   5.276   6.582 -0.7176 -0.3890 -1.1611
12642SOL    HW239368   6.326   5.286   6.442 -0.8502  1.7956 -0.9852
12643SOL     OW39369   3.419   0.908   8.840  0.0286 -0.4685 -0.2687
12643SOL    HW139370   3.393   0.825   8.802  0.7985 -0.6287 -0.4611
12643SOL    HW239371   3.428   0.967   8.765  1.0359 -0.6463 -0.3060
12644SOL     OW39372   7.085   7.302   0.790 -0.1685  0.2123  0.5413
12644SOL    HW139373   7.164   7.322   0.840 -0.2073 -1.0031  1.1050
12644SOL    HW239374   7.117   7.257   0.712 -0.2381  0.6286  0.2670
12645SOL     OW39375   5.905   3.450  10.057 -0.9784 -0.0074  0.2373
12645SOL    HW139376   5.972   3.467   9.991 -1.7073 -1.7942 -1.0524
12645SOL    HW239377   5.954   3.440  10.139 -0.0636  2.3316  0.0557
12646SOL     OW39378   6.904   5.810   9.883  0.3967 -0.5033 -0.4211
12646SOL    HW139379   6.929   5.889   9.933 -0.1599 -1.8848  2.2095
12646SOL    HW239380   6.809   5.806   9.891  0.6012 -2.9743  2.1469
12647SOL     OW39381   3.591   7.268   7.588 -0.1303 -0.0976 -0.1595
12647SOL    HW139382   3.585   7.178   7.558 -1.8716 -0.1455  0.2157
12647SOL    HW239383   3.630   7.263   7.675 -0.8158 -0.5676  0.1267
12648SOL     OW39384   3.889   1.271  12.352 -0.0638 -0.3423 -0.2974
12648SOL    HW139385   3.818   1.238  12.407 -0.9333  1.2883 -0.3585
12648SOL    HW239386   3.853   1.351  12.313  2.4431  1.6317  1.1453
12649SOL     OW39387   5.341   4.722  10.037  0.4580 -0.1452 -0.2816
12649SOL    HW139388   5.422   4.687  10.002  1.1358  2.1379 -1.2212
12649SOL    HW239389   5.360   4.740  10.129  0.9012  0.0352 -0.4092
12650SOL     OW39390   5.661   4.781   8.759  0.1336  0.6852  0.2301
12650SOL    HW139391   5.601   4.730   8.705  0.1933  1.1836 -0.3124
12650SOL    HW239392   5.627   4.771   8.848 -1.1267  1.4724 -0.1418
12651SOL     OW39393   6.606   6.865   0.559  0.2069  0.5799  0.3588
12651SOL    HW139394   6.690   6.879   0.604  0.1643  2.1281  0.0152
12651SOL    HW239395   6.550   6.824   0.626  0.4555  1.9022  1.4230
12652SOL     OW39396   7.311   4.533   9.834  0.1246  0.1812 -0.0141
12652SOL    HW139397   7.304   4.449   9.879  0.7984  0.1080 -0.0298
12652SOL    HW239398   7.260   4.593   9.888  0.6001  0.0121  0.6514
12653SOL     OW39399   0.641   0.939   2.330  0.2204  0.1879  0.2164
12653SOL    HW139400   0.704   0.947   2.402 -0.0556  0.7797  0.3968
12653SOL    HW239401   0.613   0.847   2.333 -0.5310  0.4296  1.5081
12654SOL     OW39402   6.964   5.638   1.111  0.3058  0.0163  0.5705
12654SOL    HW139403   7.016   5.590   1.176  0.3595 -1.3913 -0.4785
12654SOL    HW239404   7.028   5.669   1.047 -0.0322 -0.9994 -0.2769
12655SOL     OW39405   4.820   2.844  12.134 -0.0456  0.5846 -0.0751
12655SOL    HW139406   4.874   2.915  12.098  1.0785 -0.0622  0.2593
12655SOL    HW239407   4.764   2.817  12.061 -0.7107  2.0089 -0.1145
12656SOL     OW39408   7.082   7.448   9.794  0.2442  0.4797  0.6990
12656SOL    HW139409   7.161   7.459   9.741 -0.2993  2.2573  0.1823
12656SOL    HW239410   7.085   7.357   9.823  2.5582  0.5461  0.8505
12657SOL     OW39411   7.181   2.457   6.987  0.0359 -0.0641  0.2251
12657SOL    HW139412   7.268   2.425   6.965  0.3577  0.7100  0.3343
12657SOL    HW239413   7.179   2.546   6.952  0.1672  0.8200  2.3147
12658SOL     OW39414   6.337   6.578   2.681 -0.3674 -0.3023  0.4366
12658SOL    HW139415   6.431   6.567   2.696 -0.4530 -0.4386  0.8828
12658SOL    HW239416   6.296   6.538   2.758 -0.7359  1.2701  1.0981
12659SOL     OW39417   1.880   7.334   3.463 -0.0864 -0.2018 -0.1976
12659SOL    HW139418   1.948   7.397   3.486 -0.4594  0.2326 -0.2536
12659SOL    HW239419   1.837   7.373   3.387 -2.0279  0.8043  1.3198
12660SOL     OW39420   5.734   4.893  12.202 -0.3038 -0.4058  0.1584
12660SOL    HW139421   5.810   4.883  12.145 -0.4671  0.7681 -0.2951
12660SOL    HW239422   5.679   4.959  12.158 -2.1017 -1.9522 -0.0538
12661SOL     OW39423   3.906   1.380   0.646  0.2861 -0.3253 -0.1762
12661SOL    HW139424   3.830   1.322   0.657  0.4988 -0.5097  0.3667
12661SOL    HW239425   3.890   1.451   0.709  0.1636  0.0664 -0.6424
12662SOL     OW39426   4.896   3.576   8.398 -0.0514 -0.0617 -0.2835
12662SOL    HW139427   4.810   3.596   8.360 -0.4245  1.8102  1.4091
12662SOL    HW239428   4.878   3.506   8.461  0.0715 -1.0765 -1.3182
12663SOL     OW39429   1.752   7.689   4.400  0.5195 -0.1535 -0.9112
12663SOL    HW139430   1.713   7.768   4.363  1.6605  1.3950  1.0110
12663SOL    HW239431   1.713   7.682   4.487  0.4920 -1.6953 -1.0167
12664SOL     OW39432   1.760   1.667   1.989 -0.1793  0.0182 -0.5089
12664SOL    HW139433   1.793   1.631   1.907  1.1685  0.6597 -0.2767
12664SOL    HW239434   1.761   1.593   2.050  0.6604 -0.0175 -0.5602
12665SOL     OW39435   4.543   0.230   2.863 -0.5054 -0.3354  0.4243
12665SOL    HW139436   4.571   0.310   2.818 -0.8076  0.3292  1.4018
12665SOL    HW239437   4.582   0.160   2.811 -0.9202  0.3917 -0.9502
12666SOL     OW39438   6.976   0.314   3.712 -0.4055 -0.2244  0.1542
12666SOL    HW139439   6.935   0.229   3.696 -1.2312  0.2911 -0.5923
12666SOL    HW239440   7.069   0.295   3.717 -0.5949 -1.2039  0.2262
12667SOL     OW39441   4.295   5.814   3.478 -0.5513 -0.1037  0.0540
12667SOL    HW139442   4.280   5.812   3.572  1.9862  0.7915  0.5375
12667SOL    HW239443   4.217   5.771   3.441 -1.6492 -0.4004  2.5060
12668SOL     OW39444   4.904   4.348   0.613  0.2752 -0.2570 -0.3176
12668SOL    HW139445   4.912   4.265   0.566 -0.0624  0.1738 -1.1762
12668SOL    HW239446   4.966   4.406   0.569  0.2673  0.0398  0.0581
12669SOL     OW39447   3.362   3.635  12.431 -0.3609  0.4047  0.2610
12669SOL    HW139448   3.358   3.730  12.420 -0.1481  0.3815 -0.0489
12669SOL    HW239449   3.332   3.600  12.347  3.3098  0.2283 -1.1888
12670SOL     OW39450   6.856   5.933   8.247 -0.6886 -0.2769 -0.3353
12670SOL    HW139451   6.827   5.950   8.337  0.6906  0.6380 -0.0221
12670SOL    HW239452   6.817   6.003   8.195 -0.9332 -0.4035 -0.3203
12671SOL     OW39453   4.564   3.321   1.646  0.2245 -0.6884 -0.0952
12671SOL    HW139454   4.581   3.327   1.740 -0.9683  1.6678  0.0511
12671SOL    HW239455   4.600   3.402   1.610 -0.1736 -1.1238 -1.5169
12672SOL     OW39456   5.658   1.823   9.590  0.7086  0.4395  0.0690
12672SOL    HW139457   5.634   1.895   9.648  1.3358  1.0262 -0.3854
12672SOL    HW239458   5.654   1.745   9.646 -2.1084  0.4775  0.0574
12673SOL     OW39459   0.717   1.379  10.021 -0.1410  0.0009  0.2324
12673SOL    HW139460   0.717   1.381  10.117  1.1494 -0.8813  0.2789
12673SOL    HW239461   0.628   1.404   9.996  0.4597  4.2138  1.5340
12674SOL     OW39462   5.690   2.458   4.768 -0.5613  0.3560 -0.2020
12674SOL    HW139463   5.676   2.436   4.860  1.5841  0.7442  0.2756
12674SOL    HW239464   5.644   2.541   4.756 -0.6454  0.4306  0.5920
12675SOL     OW39465   5.623   7.109   6.628 -0.1689  0.1344  0.3426
12675SOL    HW139466   5.646   7.123   6.536 -0.3642 -1.5627  0.0008
12675SOL    HW239467   5.554   7.043   6.625 -0.6624  0.5731  1.6795
12676SOL     OW39468   5.421   1.642   8.864 -0.2837 -0.0855 -0.5020
12676SOL    HW139469   5.427   1.734   8.891  0.8521  0.3013 -1.9570
12676SOL    HW239470   5.508   1.607   8.880 -1.2106 -1.5226  1.9312
12677SOL     OW39471   2.330   4.692   3.996 -0.1226  0.1012  0.3190
12677SOL    HW139472   2.398   4.756   3.978 -0.4443  0.6310  0.9553
12677SOL    HW239473   2.296   4.716   4.082 -2.7245  1.3061 -0.9572
12678SOL     OW39474   7.421   4.382   4.623  0.5164 -0.0790  0.7832
12678SOL    HW139475   7.420   4.439   4.546  0.1556  2.8041  2.7909
12678SOL    HW239476   7.512   4.352   4.629  0.4122 -0.9359 -1.0767
12679SOL     OW39477   2.331   2.428   9.365  0.3308  0.0774 -0.5296
12679SOL    HW139478   2.317   2.516   9.330 -0.7208 -0.0653 -0.4943
12679SOL    HW239479   2.259   2.376   9.330  0.2620 -0.4855  0.4006
12680SOL     OW39480   0.739   3.086   1.675  0.4291 -0.5372 -0.2114
12680SOL    HW139481   0.704   2.997   1.669 -1.6010  0.2825 -1.2296
12680SOL    HW239482   0.763   3.110   1.586 -1.2101  0.7372 -0.3506
12681SOL     OW39483   6.008   5.996   0.801  0.4556 -0.2036 -0.6064
12681SOL    HW139484   5.957   6.076   0.790  0.7927  0.4283  1.9490
12681SOL    HW239485   6.037   5.974   0.712  2.9097  4.1869 -1.1369
12682SOL     OW39486   5.856   4.792  10.883  0.5847 -0.1938 -0.2656
12682SOL    HW139487   5.939   4.825  10.848 -0.3962  2.4219 -0.3615
12682SOL    HW239488   5.856   4.822  10.975 -0.9109  1.3839 -0.7140
12683SOL     OW39489   0.999   2.868   4.396 -0.4867 -0.1152 -0.0400
12683SOL    HW139490   1.066   2.810   4.432 -1.5729 -1.0873  0.4633
12683SOL    HW239491   1.020   2.954   4.433  1.2273 -0.1149 -0.9229
12684SOL     OW39492   4.906   1.741   4.338 -0.4079 -0.2988 -0.0339
12684SOL    HW139493   4.880   1.785   4.257  2.4700 -0.7658 -1.3439
12684SOL    HW239494   4.917   1.649   4.312 -1.4878 -0.8789  1.4437
12685SOL     OW39495   3.644   3.222  12.448 -0.6227 -0.3477 -0.1759
12685SOL    HW139496   3.683   3.289  12.393  0.9279 -0.9024  0.2177
12685SOL    HW239497   3.580   3.179  12.391 -1.0483  0.8930 -0.6724
12686SOL     OW39498   2.643   7.676  11.401 -0.4389 -0.0090  0.1527
12686SOL    HW139499   2.648   7.670  11.496  1.7927  2.7277  0.3186
12686SOL    HW239500   2.706   7.611  11.369 -1.3395 -1.0764  0.4653
12687SOL     OW39501   0.944   2.037  10.785  1.0736  0.2683 -0.1588
12687SOL    HW139502   0.920   1.966  10.845 -1.3673  1.5470  0.5158
12687SOL    HW239503   0.912   2.116  10.827  3.1333  1.7359 -1.2104
12688SOL     OW39504   6.443   0.064   2.751  0.3931 -0.6059 -0.2777
12688SOL    HW139505   6.439  -0.031   2.752  0.6212 -0.6259 -0.7363
12688SOL    HW239506   6.493   0.085   2.671 -0.6848 -0.0670 -0.8278
12689SOL     OW39507   2.061   3.690   9.477 -0.2720  0.1857 -0.1410
12689SOL    HW139508   2.050   3.723   9.388 -2.6836  1.2334  0.4525
12689SOL    HW239509   2.082   3.598   9.466  0.3560  0.4889 -1.7908
12690SOL     OW39510   7.352   2.494   9.554  0.0673  0.1092  0.5710
12690SOL    HW139511   7.275   2.506   9.610 -1.4363 -0.3932 -1.2790
12690SOL    HW239512   7.337   2.410   9.511  1.5045  0.1701 -0.0888
12691SOL     OW39513   0.203   4.512   3.190  0.0053 -0.3329  0.1602
12691SOL    HW139514   0.197   4.600   3.152 -0.7612 -0.5096 -0.1362
12691SOL    HW239515   0.199   4.453   3.116 -1.0519 -0.6617  0.4526
12692SOL     OW39516   2.700   5.225   9.329  0.2767 -0.4094 -0.0368
12692SOL    HW139517   2.731   5.315   9.337  1.5438 -0.8120 -0.2850
12692SOL    HW239518   2.641   5.213   9.404 -0.9021  0.9978 -0.6976
12693SOL     OW39519   6.576   6.173   3.409 -0.6365 -0.5873  0.4474
12693SOL    HW139520   6.506   6.225   3.448 -0.6187  0.0721 -0.3745
12693SOL    HW239521   6.543   6.151   3.321  0.8658  1.2504 -0.6566
12694SOL     OW39522   4.061   1.657  10.154 -0.3063 -0.0478 -0.4766
12694SOL    HW139523   4.141   1.707  10.134  0.4496 -0.7839  0.5781
12694SOL    HW239524   4.017   1.648  10.069  1.2862 -0.5580 -1.3004
12695SOL     OW39525   7.934   6.301  11.720  0.1755 -0.2131  0.1253
12695SOL    HW139526   7.851   6.341  11.747  0.3774  1.2062 -1.2309
12695SOL    HW239527   7.975   6.273  11.802 -0.3345  1.7260  1.0902
12696SOL     OW39528   0.935   4.735   8.044  0.2435 -0.2218 -0.2074
12696SOL    HW139529   0.891   4.797   7.986 -1.4956  1.2803  2.4908
12696SOL    HW239530   1.024   4.729   8.010 -0.3318  1.5457 -2.2369
12697SOL     OW39531   7.506   0.944   8.127 -0.1761  0.0399 -0.4273
12697SOL    HW139532   7.565   0.954   8.202 -0.5258  2.0720 -0.3698
12697SOL    HW239533   7.563   0.946   8.050 -0.1075  2.4825 -0.3986
12698SOL     OW39534   6.238   2.634   8.924  0.1974 -0.2158 -0.0486
12698SOL    HW139535   6.204   2.676   8.846  1.6590 -1.7873 -1.6247
12698SOL    HW239536   6.258   2.544   8.896  2.9549 -0.1861  1.4407
12699SOL     OW39537   3.514   1.594   2.664  0.5799  0.0719  0.0964
12699SOL    HW139538   3.555   1.532   2.723 -0.3013  0.1158  0.7749
12699SOL    HW239539   3.505   1.546   2.581  1.6672 -0.0395  0.0358
12700SOL     OW39540   3.505   0.998   1.181  0.1804 -0.0472  0.4962
12700SOL    HW139541   3.531   0.938   1.251  0.8224  1.3752  1.5409
12700SOL    HW239542   3.487   1.081   1.226 -0.6455  0.5641 -0.8898
12701SOL     OW39543   4.328   1.852  10.540 -0.2956 -0.0945 -0.0829
12701SOL    HW139544   4.243   1.849  10.496 -0.0756  0.0653 -0.5244
12701SOL    HW239545   4.306   1.857  10.633 -0.7976  1.2208 -0.2466
12702SOL     OW39546   1.907   1.562  11.129 -0.1358 -0.5185 -0.1306
12702SOL    HW139547   1.968   1.618  11.082  2.0819 -0.9942  1.9783
12702SOL    HW239548   1.930   1.473  11.101 -0.1067 -0.6720  0.3625
12703SOL     OW39549   6.289   0.863   7.878  0.1403  0.4470 -0.0953
12703SOL    HW139550   6.302   0.814   7.959 -3.7863  1.2792  1.2806
12703SOL    HW239551   6.239   0.804   7.822  0.7146  0.7360 -0.9227
12704SOL     OW39552   7.038   6.342  11.327  0.3782 -0.8992  0.2421
12704SOL    HW139553   7.109   6.279  11.317 -0.7169 -2.3376  0.9986
12704SOL    HW239554   6.962   6.288  11.350 -0.6110  0.7059  0.9232
12705SOL     OW39555   7.479   2.216   0.464  0.1154  0.1904 -0.2300
12705SOL    HW139556   7.463   2.227   0.557  0.9576 -2.4258  0.2937
12705SOL    HW239557   7.393   2.196   0.427 -0.0226  0.0147  0.1807
12706SOL     OW39558   3.654   1.526   3.928  0.3463 -0.2329  0.0356
12706SOL    HW139559   3.620   1.609   3.894  0.7201  0.3176  0.9703
12706SOL    HW239560   3.684   1.547   4.017 -0.1066 -1.5013  0.5117
12707SOL     OW39561   1.614   7.565   3.971 -0.2145  0.1486 -0.1088
12707SOL    HW139562   1.596   7.632   3.905  2.3795 -0.0315 -1.1227
12707SOL    HW239563   1.634   7.614   4.051 -1.5915  0.4190  0.0987
12708SOL     OW39564   3.544   1.025   2.697  0.2091 -0.2214  0.3587
12708SOL    HW139565   3.511   1.115   2.693 -1.5298 -0.8547 -1.2252
12708SOL    HW239566   3.468   0.974   2.726  0.6774 -1.3617 -0.3597
12709SOL     OW39567   4.938   4.526   8.962 -0.2265 -0.0570 -0.3955
12709SOL    HW139568   4.985   4.536   8.879 -1.1371 -1.8092 -1.1757
12709SOL    HW239569   5.004   4.543   9.029  0.6370  0.9581 -1.4632
12710SOL     OW39570   7.655   2.466  11.455 -0.2667 -0.3214 -0.1598
12710SOL    HW139571   7.569   2.507  11.452  0.1302  0.5181 -1.9256
12710SOL    HW239572   7.665   2.424  11.369  1.3196  0.1542 -0.2492
12711SOL     OW39573   4.410   4.168  10.209 -0.2686 -0.1708  0.0441
12711SOL    HW139574   4.342   4.162  10.277  1.0081 -0.4584  1.3339
12711SOL    HW239575   4.436   4.260  10.210  0.1028 -0.2783  0.2985
12712SOL     OW39576   2.445   3.784   4.538  0.2968 -0.0252 -0.2727
12712SOL    HW139577   2.391   3.724   4.588 -1.7830  2.5219  0.7356
12712SOL    HW239578   2.532   3.778   4.578 -0.6054 -0.2000  1.7358
12713SOL     OW39579   4.952   6.198   4.360 -1.0169 -0.3034  0.1278
12713SOL    HW139580   4.903   6.254   4.420 -2.7591 -0.9120 -0.6530
12713SOL    HW239581   4.975   6.121   4.412 -0.5734  0.1429  0.5971
12714SOL     OW39582   5.525   3.420   1.303  0.0664  0.3613  0.1354
12714SOL    HW139583   5.583   3.439   1.377 -0.9782  0.8392  0.8531
12714SOL    HW239584   5.519   3.324   1.301  0.1692  0.3418  0.6197
12715SOL     OW39585   4.167   5.954  11.910 -0.0664 -0.1313  0.0594
12715SOL    HW139586   4.128   5.947  11.823  0.7793 -0.3254 -0.3182
12715SOL    HW239587   4.106   5.907  11.968  0.7729 -2.5602 -0.9033
12716SOL     OW39588   3.340   0.077   5.132  0.2354 -0.5241 -1.0465
12716SOL    HW139589   3.264   0.115   5.090 -0.0626 -0.4604 -0.4607
12716SOL    HW239590   3.333  -0.017   5.116 -0.2651 -0.5805 -0.5254
12717SOL     OW39591   0.074   7.942   7.255  0.1511  0.3729  0.0018
12717SOL    HW139592   0.053   7.982   7.339 -0.9803  1.9792 -0.9886
12717SOL    HW239593   0.052   7.849   7.266 -2.3457  0.9888  0.7534
12718SOL     OW39594   6.197   0.434   2.298  0.2097 -0.4439  0.1185
12718SOL    HW139595   6.124   0.482   2.338 -0.9465 -1.6837 -0.3948
12718SOL    HW239596   6.249   0.403   2.373  0.4252  0.7401  0.4791
12719SOL     OW39597   7.473   6.433   9.114  0.4662 -0.6804  0.2439
12719SOL    HW139598   7.534   6.435   9.187  1.3808 -0.2247 -0.4957
12719SOL    HW239599   7.508   6.498   9.052 -1.2743  0.2573  0.1824
12720SOL     OW39600   2.001   1.949   2.660  0.0140 -0.2504  0.3115
12720SOL    HW139601   2.080   1.955   2.714  0.1429 -0.5222  0.1522
12720SOL    HW239602   1.943   2.016   2.696 -0.0170 -0.6282  0.9790
12721SOL     OW39603   7.847   1.799   0.451 -0.0302  0.0530 -0.0988
12721SOL    HW139604   7.885   1.884   0.430 -0.9487  0.3544 -0.6045
12721SOL    HW239605   7.817   1.808   0.542 -1.8503  0.9611 -0.7258
12722SOL     OW39606   4.565   3.227   7.806  0.1173  0.4624  0.1769
12722SOL    HW139607   4.620   3.283   7.752 -0.7824  1.4954  0.3000
12722SOL    HW239608   4.583   3.254   7.896  0.0884  0.1729  0.2721
12723SOL     OW39609   2.104   6.790  10.671  0.1651  0.3397  0.4354
12723SOL    HW139610   2.189   6.746  10.665 -0.3683 -0.6642 -0.1222
12723SOL    HW239611   2.049   6.729  10.722 -0.1647  1.0665  0.9630
12724SOL     OW39612   1.372   3.083  12.365 -0.3320  0.1914 -0.3015
12724SOL    HW139613   1.369   2.988  12.355  1.1893  0.0946  0.0160
12724SOL    HW239614   1.401   3.116  12.280 -1.1059  0.4158 -0.4938
12725SOL     OW39615   4.669   1.255   3.931  0.4634  0.2274  0.1786
12725SOL    HW139616   4.605   1.296   3.873  1.4502 -1.1913 -2.0201
12725SOL    HW239617   4.619   1.188   3.978  0.1883 -0.6321 -1.2676
12726SOL     OW39618   6.494   6.120   8.570 -0.3535  0.3749  0.0537
12726SOL    HW139619   6.503   6.069   8.651 -1.6338 -0.2240 -0.1502
12726SOL    HW239620   6.482   6.210   8.600 -0.0809  0.2653  0.5051
12727SOL     OW39621   1.357   0.335   5.159 -0.8643 -0.5142 -0.2237
12727SOL    HW139622   1.319   0.251   5.135 -3.0710  0.8500 -1.8626
12727SOL    HW239623   1.381   0.375   5.076 -1.1700  1.0622  0.4227
12728SOL     OW39624   3.476   1.839   8.066  0.1977 -0.1289  0.4723
12728SOL    HW139625   3.448   1.751   8.040 -0.1519 -0.5013  2.0202
12728SOL    HW239626   3.535   1.824   8.139  2.3437  0.8045 -0.9866
12729SOL     OW39627   4.420   1.541   5.277 -0.4190 -0.2752 -0.2827
12729SOL    HW139628   4.501   1.581   5.246 -0.4781 -1.4842 -2.1321
12729SOL    HW239629   4.439   1.447   5.280 -1.2176 -0.4310  1.0297
12730SOL     OW39630   5.127   6.688   4.329 -0.4124  1.1472  0.1619
12730SOL    HW139631   5.128   6.783   4.332 -1.2476  1.1459  0.6291
12730SOL    HW239632   5.218   6.663   4.349 -0.2826  1.8290  0.4554
12731SOL     OW39633   7.225   5.558   6.801 -0.0637  0.9840  0.2015
12731SOL    HW139634   7.319   5.571   6.789 -0.0592  0.6156 -0.1541
12731SOL    HW239635   7.197   5.633   6.853  0.1643  1.8378 -0.8932
12732SOL     OW39636   3.291   3.231   7.678 -0.8187 -0.2426 -0.0090
12732SOL    HW139637   3.214   3.287   7.687 -0.3679  0.1903  1.4772
12732SOL    HW239638   3.363   3.285   7.711 -0.0406 -0.9844 -0.4630
12733SOL     OW39639   0.555   6.632  10.834  0.5823  0.0158 -0.0595
12733SOL    HW139640   0.603   6.583  10.768 -0.7896 -0.3922 -0.7918
12733SOL    HW239641   0.535   6.716  10.793  1.5510  0.5993  0.6201
12734SOL     OW39642   1.874   7.720   8.064  0.8268 -0.7152 -0.4312
12734SOL    HW139643   1.807   7.736   7.997  0.1509 -1.3585  0.0727
12734SOL    HW239644   1.874   7.799   8.118 -0.4265 -1.1890  0.3068
12735SOL     OW39645   2.278   2.901   9.355  0.6592 -0.0498 -0.1890
12735SOL    HW139646   2.327   2.952   9.419 -0.6930  1.9330 -0.6468
12735SOL    HW239647   2.211   2.857   9.408  0.7501  0.0269 -0.0064
12736SOL     OW39648   6.753   3.349   6.526 -0.2721 -0.2733 -0.0730
12736SOL    HW139649   6.838   3.316   6.499  0.7142  0.7738  1.5875
12736SOL    HW239650   6.693   3.275   6.513  1.0223 -1.2700 -0.5636
12737SOL     OW39651   4.090   4.158   2.261  0.2584 -0.1819 -0.2092
12737SOL    HW139652   4.128   4.071   2.249 -0.3722 -0.5879  0.6560
12737SOL    HW239653   4.124   4.210   2.188  2.1421 -0.6290  0.3025
12738SOL     OW39654   7.861   4.519   0.884 -0.0621  0.1010  0.0391
12738SOL    HW139655   7.902   4.605   0.887  0.3404  0.0074 -1.5283
12738SOL    HW239656   7.932   4.459   0.909 -0.3088  0.1942  1.0070
12739SOL     OW39657   4.073   2.167   4.827  0.1533 -0.6776 -0.2164
12739SOL    HW139658   4.044   2.222   4.899  0.5825  0.3706 -0.8039
12739SOL    HW239659   4.168   2.162   4.838  0.1427 -1.0913 -0.3096
12740SOL     OW39660   1.217   4.398  12.395  0.3461  0.5107  0.0594
12740SOL    HW139661   1.178   4.464  12.452 -1.3277  0.8251 -1.3598
12740SOL    HW239662   1.167   4.404  12.314  1.6638 -0.9482 -0.9203
12741SOL     OW39663   3.285   3.854   2.093 -0.2907 -0.0052  0.2597
12741SOL    HW139664   3.353   3.914   2.124 -0.6860  2.1864 -2.7047
12741SOL    HW239665   3.333   3.788   2.043 -0.1179 -0.2594  0.7547
12742SOL     OW39666   1.071   3.803   5.476  0.4766  0.1957  0.4992
12742SOL    HW139667   0.998   3.749   5.446  2.2806 -2.0206 -0.2082
12742SOL    HW239668   1.039   3.847   5.554 -2.3852  1.2743 -1.1343
12743SOL     OW39669   3.197   7.565   3.401  0.0207 -0.3364  0.4692
12743SOL    HW139670   3.210   7.470   3.394 -1.3766 -0.4769 -0.6808
12743SOL    HW239671   3.285   7.601   3.405  0.5807 -1.7143  1.5341
12744SOL     OW39672   6.737   0.772   0.026  0.8237 -0.2062 -0.0877
12744SOL    HW139673   6.677   0.708   0.064 -0.2308  1.9214  2.0623
12744SOL    HW239674   6.824   0.745   0.058  0.3033 -0.1678  1.4446
12745SOL     OW39675   1.672   3.061   6.901  0.3845  0.3142 -0.3304
12745SOL    HW139676   1.767   3.075   6.905  0.2213  2.5382 -1.9869
12745SOL    HW239677   1.637   3.107   6.977  0.5401  0.8177 -0.5594
12746SOL     OW39678   1.350   4.572  11.177  0.3933  0.1332  0.3678
12746SOL    HW139679   1.352   4.547  11.084  0.7640  0.5179  0.2726
12746SOL    HW239680   1.291   4.647  11.180  1.8335  1.3079  0.1503
12747SOL     OW39681   2.484   2.459  11.028 -0.1516  0.6142  0.3675
12747SOL    HW139682   2.468   2.381  11.080 -0.6086 -0.0167 -0.6996
12747SOL    HW239683   2.484   2.531  11.091 -2.3889  0.0806  1.0283
12748SOL     OW39684   2.413   7.484   3.052 -0.0153 -0.2250  0.4002
12748SOL    HW139685   2.418   7.477   2.957  0.7950  0.1162  0.4111
12748SOL    HW239686   2.377   7.400   3.081 -1.2460  0.0450 -0.2671
12749SOL     OW39687   0.603   6.410   1.336  0.0094  0.0505  0.2091
12749SOL    HW139688   0.663   6.442   1.268  0.7155 -0.0746  0.7665
12749SOL    HW239689   0.630   6.455   1.416 -0.5673 -0.0940  0.4929
12750SOL     OW39690   4.625   1.819   0.384  0.3219 -0.1352 -0.3382
12750SOL    HW139691   4.530   1.834   0.381  0.3142  0.4969  1.5171
12750SOL    HW239692   4.658   1.861   0.305 -0.8354  0.7330 -0.3918
12751SOL     OW39693   4.155   5.930   2.925  0.2512  0.4388  0.8960
12751SOL    HW139694   4.195   5.845   2.942  1.2720  0.8402  0.5856
12751SOL    HW239695   4.152   5.973   3.011 -3.0938 -1.0224  1.6694
12752SOL     OW39696   4.091   1.062   8.883  0.7024  0.3461 -0.2124
12752SOL    HW139697   4.181   1.073   8.852  0.7634 -0.5910 -0.3785
12752SOL    HW239698   4.039   1.058   8.803  0.2987  2.3283 -0.1218
12753SOL     OW39699   4.787   2.999   8.423  0.2827  0.3318 -0.7115
12753SOL    HW139700   4.856   3.038   8.478  0.1700  0.2622 -0.5187
12753SOL    HW239701   4.706   3.024   8.467  0.1883  0.3585 -0.9036
12754SOL     OW39702   0.781   1.902   5.439 -0.2650 -0.2089 -0.0819
12754SOL    HW139703   0.860   1.848   5.444 -0.5653 -0.6499  0.0307
12754SOL    HW239704   0.800   1.978   5.493  0.1771 -0.1854 -0.2644
12755SOL     OW39705   2.621   2.857   1.043  0.3897  0.3660 -0.2693
12755SOL    HW139706   2.542   2.909   1.032  1.0511  0.9535 -2.9552
12755SOL    HW239707   2.680   2.889   0.975  2.4838 -0.9279  0.8337
12756SOL     OW39708   5.272   7.071  12.409  0.4401 -0.2639  0.1432
12756SOL    HW139709   5.327   6.993  12.409  1.6695  0.5727  0.0068
12756SOL    HW239710   5.332   7.142  12.388 -0.8101  0.6108 -0.5934
12757SOL     OW39711   4.465   6.233   2.753 -0.0637  0.2439  0.1190
12757SOL    HW139712   4.454   6.296   2.682  1.9894  2.1001  1.3157
12757SOL    HW239713   4.544   6.184   2.729  0.0855  0.2252  0.6441
12758SOL     OW39714   5.460   4.855   7.688 -0.1328 -0.7225 -0.2362
12758SOL    HW139715   5.485   4.763   7.683  0.0185 -0.6718 -0.4112
12758SOL    HW239716   5.517   4.891   7.756 -0.4969 -0.8560  0.1449
12759SOL     OW39717   4.626   6.838  11.514 -0.2423 -0.3900 -0.5465
12759SOL    HW139718   4.613   6.803  11.425 -0.5741  1.3436 -1.2118
12759SOL    HW239719   4.616   6.761  11.571 -2.5655 -1.1221 -1.7978
12760SOL     OW39720   6.834   3.114  10.171  0.7376 -0.1527 -0.0357
12760SOL    HW139721   6.779   3.036  10.165  0.3710  0.1901 -2.5907
12760SOL    HW239722   6.923   3.080  10.172  0.6158 -0.6827 -1.9753
12761SOL     OW39723   5.359   4.954   8.398 -0.1149 -0.3106 -0.1407
12761SOL    HW139724   5.372   4.864   8.370 -1.3795 -0.7148  0.4738
12761SOL    HW239725   5.325   4.947   8.487 -0.4312  0.7619 -0.1566
12762SOL     OW39726   4.736   7.193  11.248 -0.5209 -0.2767  0.2358
12762SOL    HW139727   4.735   7.245  11.328  2.1139  0.5786 -0.1951
12762SOL    HW239728   4.812   7.136  11.257 -1.4489 -1.7503 -0.7380
12763SOL     OW39729   4.768   3.352  11.151  0.4525  0.2223  0.3817
12763SOL    HW139730   4.736   3.298  11.223 -0.4892 -0.9344 -0.8622
12763SOL    HW239731   4.826   3.294  11.102  1.6906  1.2305  0.5941
12764SOL     OW39732   2.436   5.838   1.132 -0.2828  0.3232 -0.0697
12764SOL    HW139733   2.345   5.862   1.152 -0.2085  0.3355  0.2447
12764SOL    HW239734   2.450   5.756   1.179  0.2950  1.0059  0.9805
12765SOL     OW39735   1.417   5.561  11.931 -0.1620 -0.3086  0.2487
12765SOL    HW139736   1.426   5.496  11.861 -1.9815  0.7833 -1.0959
12765SOL    HW239737   1.361   5.518  11.996 -0.8240 -0.3522 -0.3331
12766SOL     OW39738   4.345   7.263   7.205  0.3554  0.4096 -0.0560
12766SOL    HW139739   4.342   7.198   7.275  1.0374 -0.4963 -0.8324
12766SOL    HW239740   4.282   7.330   7.231 -0.4762 -0.6348  0.6944
12767SOL     OW39741   4.000   5.109   3.359 -0.3316 -0.2003 -1.0038
12767SOL    HW139742   3.935   5.175   3.334  0.8528  1.6285  0.4239
12767SOL    HW239743   3.981   5.034   3.303 -1.4907  1.4903 -3.0460
12768SOL     OW39744   6.001   2.415   5.475  0.0913  0.3102 -0.2459
12768SOL    HW139745   6.033   2.393   5.388  0.0860 -0.5268 -0.0508
12768SOL    HW239746   6.037   2.347   5.532 -2.7294 -1.3185 -0.1625
12769SOL     OW39747   5.539   7.286   0.527 -0.2652 -0.5170 -0.5574
12769SOL    HW139748   5.607   7.268   0.463  0.0820 -1.0092 -0.0516
12769SOL    HW239749   5.475   7.339   0.479 -0.5170 -1.7417 -1.6012
12770SOL     OW39750   5.925   5.396   4.140 -0.1000 -0.0867  0.7159
12770SOL    HW139751   5.883   5.315   4.169  0.3053  0.2581  2.3283
12770SOL    HW239752   5.852   5.449   4.108 -0.4350 -0.8637  0.1412
12771SOL     OW39753   5.268   0.165   9.281  0.2171 -0.4906 -0.0307
12771SOL    HW139754   5.247   0.258   9.278 -0.2233 -0.4685  2.1493
12771SOL    HW239755   5.191   0.124   9.320  0.6241 -1.7081 -0.4577
12772SOL     OW39756   3.203   1.618  10.497 -0.1288  0.2558  0.4130
12772SOL    HW139757   3.111   1.610  10.522 -1.1449  1.6200 -2.4084
12772SOL    HW239758   3.222   1.538  10.449  0.0256  0.1862  0.5886
12773SOL     OW39759   4.661   3.597   7.810  0.3031  0.9552 -0.0014
12773SOL    HW139760   4.701   3.554   7.886 -0.1350  0.6983  0.0811
12773SOL    HW239761   4.696   3.550   7.735 -1.8790 -1.0361  0.1415
12774SOL     OW39762   3.708   5.068   6.049  0.2355  0.2615  0.6721
12774SOL    HW139763   3.687   4.976   6.038 -1.0689  0.6488 -0.3727
12774SOL    HW239764   3.624   5.111   6.067  0.7398  1.3023  0.6478
12775SOL     OW39765   5.440   5.340   2.903 -0.2867  0.0899 -0.0455
12775SOL    HW139766   5.491   5.381   2.973 -2.4867  1.3795  0.9183
12775SOL    HW239767   5.433   5.248   2.929  1.1235 -0.0222  0.0150
12776SOL     OW39768   5.620   7.847   0.079 -0.2409 -0.4839 -0.0619
12776SOL    HW139769   5.670   7.805   0.009 -0.7893 -1.4800  0.1218
12776SOL    HW239770   5.539   7.796   0.085  0.2680 -1.1609  2.0414
12777SOL     OW39771   7.065   2.959   6.878  0.0269  0.3288 -0.0759
12777SOL    HW139772   7.129   3.004   6.822 -1.1292  2.1576  0.0079
12777SOL    HW239773   7.042   3.023   6.945 -2.9256  0.2759 -0.9159
12778SOL     OW39774   5.333   7.361   2.929  0.1410 -0.5350  0.2073
12778SOL    HW139775   5.257   7.418   2.939  1.0080  0.8308 -0.6124
12778SOL    HW239776   5.376   7.392   2.850  2.0255 -0.6895  1.1074
12779SOL     OW39777   5.711   2.364   5.028 -0.1275 -0.4306  0.2451
12779SOL    HW139778   5.635   2.403   5.073 -1.3794 -1.4135 -0.9242
12779SOL    HW239779   5.738   2.292   5.085 -0.8357 -0.8092  0.1171
12780SOL     OW39780   6.609   0.209  11.295  0.1041 -0.4415 -0.2645
12780SOL    HW139781   6.704   0.210  11.307  0.0307  0.2732  0.3018
12780SOL    HW239782   6.577   0.145  11.358  0.0635  0.5659  0.7591
12781SOL     OW39783   5.654   5.138   4.532 -0.6774  0.1485 -0.0178
12781SOL    HW139784   5.681   5.219   4.489 -1.9454  0.7880  0.3374
12781SOL    HW239785   5.694   5.143   4.619 -1.0901  0.6150  0.1544
12782SOL     OW39786   4.699   7.588   7.870  0.3319 -0.4924 -0.2693
12782SOL    HW139787   4.764   7.558   7.806  0.3947  1.2653 -1.1151
12782SOL    HW239788   4.738   7.668   7.907 -0.8776 -0.0016 -0.0157
12783SOL     OW39789   0.351   0.518  11.974  0.2080 -0.4763  0.0286
12783SOL    HW139790   0.422   0.554  11.922 -0.1489  0.6021  0.2634
12783SOL    HW239791   0.309   0.595  12.014 -0.7886 -1.1275  0.2696
12784SOL     OW39792   5.948   1.051  12.206 -0.1293 -0.3312 -0.0076
12784SOL    HW139793   5.983   1.063  12.295 -0.1886 -0.9033  0.0930
12784SOL    HW239794   5.947   0.957  12.193 -2.5850 -0.4280  0.4015
12785SOL     OW39795   5.077   7.797   3.014  0.9056  0.1891 -0.0741
12785SOL    HW139796   5.077   7.840   2.928  5.1528 -0.7751 -0.7527
12785SOL    HW239797   4.993   7.750   3.017  0.4168  0.5818 -3.5190
12786SOL     OW39798   6.899   0.260  11.226 -0.2078  0.1258 -0.1732
12786SOL    HW139799   6.950   0.184  11.254 -1.6779 -0.3593  1.3165
12786SOL    HW239800   6.919   0.269  11.133  2.4329 -0.1343  0.2763
12787SOL     OW39801   2.660   4.060  12.446 -0.3169 -0.2183  0.5374
12787SOL    HW139802   2.626   4.148  12.436 -0.8126 -0.4188  0.4062
12787SOL    HW239803   2.722   4.050  12.374  1.5830  0.8556  1.9647
12788SOL     OW39804   2.620   2.166   9.322  0.5255  0.3636 -0.1347
12788SOL    HW139805   2.529   2.157   9.352 -0.0560  3.1186 -0.7649
12788SOL    HW239806   2.623   2.120   9.238 -0.4920  0.7723 -0.4076
12789SOL     OW39807   7.735   3.898   0.723 -0.4829  0.2889 -0.2841
12789SOL    HW139808   7.724   3.888   0.629  2.7996 -0.6798 -0.6701
12789SOL    HW239809   7.766   3.988   0.734  0.1942  0.0519 -0.2502
12790SOL     OW39810   4.950   6.521  11.244  0.6379 -0.0379  0.1469
12790SOL    HW139811   4.875   6.465  11.263  0.5968 -0.0759 -0.1306
12790SOL    HW239812   4.985   6.544  11.330  0.8111 -0.6968  0.2528
12791SOL     OW39813   6.556   2.085   6.765 -0.3619  0.2988  0.7177
12791SOL    HW139814   6.490   2.153   6.778 -1.0097  0.2696 -1.8767
12791SOL    HW239815   6.639   2.132   6.761 -0.7525  0.9250 -0.5840
12792SOL     OW39816   7.162   6.154   8.263 -0.0655 -0.3063  0.2546
12792SOL    HW139817   7.148   6.059   8.262  0.1925 -0.3725 -2.1202
12792SOL    HW239818   7.094   6.188   8.321 -1.9127 -1.7171 -0.9873
12793SOL     OW39819   4.684   0.039   8.016  0.1388 -0.0069  0.2193
12793SOL    HW139820   4.709  -0.046   7.978 -0.2969 -0.2672  0.5026
12793SOL    HW239821   4.722   0.038   8.104 -1.4349 -0.7215  0.9380
12794SOL     OW39822   5.138   5.427   7.537  0.3739  0.2284 -0.1185
12794SOL    HW139823   5.145   5.470   7.622 -0.3811  2.7837 -1.2586
12794SOL    HW239824   5.228   5.404   7.514  0.5277 -1.0078  1.5702
12795SOL     OW39825   1.792   6.455   2.454  0.4043 -0.6060  0.2972
12795SOL    HW139826   1.830   6.444   2.367  0.8094 -0.8190  0.4971
12795SOL    HW239827   1.744   6.537   2.449 -1.7507 -1.8456 -0.9052
12796SOL     OW39828   7.951   7.260  10.986 -0.2212  0.4324  0.1815
12796SOL    HW139829   8.004   7.200  11.038 -1.1766  1.1459  2.0811
12796SOL    HW239830   7.956   7.343  11.033 -2.3118  0.7337 -0.0527
12797SOL     OW39831   6.928   0.331   0.546 -0.0749 -0.0311  0.5294
12797SOL    HW139832   6.958   0.421   0.527  1.6161 -0.6182  0.2599
12797SOL    HW239833   6.912   0.330   0.640 -0.1456  0.5548  0.5282
12798SOL     OW39834   7.427   5.565   1.283  0.2567 -0.2210 -0.1031
12798SOL    HW139835   7.437   5.471   1.300  0.3961 -0.4024 -1.1345
12798SOL    HW239836   7.333   5.581   1.297  0.0643 -0.7024 -0.7882
12799SOL     OW39837   3.150   2.983   0.326 -0.1254  0.0945  0.3557
12799SOL    HW139838   3.116   2.964   0.413  1.2403 -0.9556  0.6849
12799SOL    HW239839   3.183   3.072   0.332  0.2613 -0.0854  1.0174
12800SOL     OW39840   3.789   4.161  12.442  0.3143  0.7223 -0.0509
12800SOL    HW139841   3.762   4.158  12.534  1.5042  2.1834  0.3890
12800SOL    HW239842   3.871   4.210  12.443 -0.6532  2.5387 -2.1260
12801SOL     OW39843   0.338   4.304   5.941 -0.0920 -0.2295  0.2829
12801SOL    HW139844   0.291   4.222   5.949 -1.9540  0.8818  1.3928
12801SOL    HW239845   0.274   4.365   5.903  0.7569  1.0799  0.8873
12802SOL     OW39846   6.873   5.658   5.026  0.1004 -0.3348  0.2667
12802SOL    HW139847   6.942   5.604   5.065  0.6977  1.9853  2.7769
12802SOL    HW239848   6.830   5.700   5.100 -1.3900  1.3613 -1.4390
12803SOL     OW39849   3.977   0.404   4.040  0.4209 -0.0476  0.5320
12803SOL    HW139850   3.970   0.489   3.997  0.5989  0.3579  1.2906
12803SOL    HW239851   4.010   0.424   4.127  0.3244 -0.8831  0.7674
12804SOL     OW39852   0.189   0.013   1.656  0.1779 -0.7046  0.2253
12804SOL    HW139853   0.125  -0.017   1.721  2.0057 -0.9648  1.9967
12804SOL    HW239854   0.273  -0.022   1.687  1.4655  1.1298 -1.0211
12805SOL     OW39855   7.315   1.206  10.373 -0.1539  0.4288  0.4190
12805SOL    HW139856   7.260   1.231  10.447 -3.0237 -0.3800 -1.2849
12805SOL    HW239857   7.396   1.175  10.413 -1.0002  1.3603  3.1109
12806SOL     OW39858   4.706   3.507   1.519  0.4924 -0.2782  0.2200
12806SOL    HW139859   4.733   3.585   1.470  1.0749 -0.3372  0.4479
12806SOL    HW239860   4.785   3.478   1.564 -0.0584 -0.1311  1.3204
12807SOL     OW39861   1.310   7.968   7.948  0.7965 -0.2611 -0.3820
12807SOL    HW139862   1.383   7.926   7.903  0.0714  0.0125 -1.8591
12807SOL    HW239863   1.338   8.059   7.959  0.6053 -0.1099 -1.1233
12808SOL     OW39864   4.124   0.621  11.412  0.7125  0.6160  0.4913
12808SOL    HW139865   4.177   0.615  11.492 -0.9276 -0.5968  1.5580
12808SOL    HW239866   4.083   0.535  11.404  1.8910  0.2130 -2.4865
12809SOL     OW39867   4.581   7.728   2.035 -0.0135  0.4582 -0.1568
12809SOL    HW139868   4.565   7.661   1.969 -0.1550  0.7228 -0.3950
12809SOL    HW239869   4.671   7.757   2.018  0.5179 -0.5844  0.7798
12810SOL     OW39870   5.927   6.960  11.432 -0.2955  0.6083  0.2006
12810SOL    HW139871   5.979   6.987  11.356 -0.9121 -0.2437 -0.5520
12810SOL    HW239872   5.844   7.008  11.422 -0.0497  1.1737  0.8297
12811SOL     OW39873   3.344   1.138   8.204 -0.1529  0.1935 -0.0142
12811SOL    HW139874   3.273   1.088   8.244 -0.5360 -1.6987 -2.8488
12811SOL    HW239875   3.302   1.190   8.135  0.7237  2.1500  0.8318
12812SOL     OW39876   6.493   7.686   3.701  0.0553 -0.1059  0.0188
12812SOL    HW139877   6.514   7.778   3.681 -2.0887  0.2691 -0.8749
12812SOL    HW239878   6.576   7.648   3.730  1.1450  1.9533 -0.1709
12813SOL     OW39879   1.058   7.439   6.809 -0.0605 -0.6472  0.2817
12813SOL    HW139880   1.082   7.514   6.863 -2.6307  0.6112 -0.1639
12813SOL    HW239881   1.006   7.383   6.867  1.3495 -1.8399  0.4451
12814SOL     OW39882   4.008   1.659   7.593  0.1873  0.1581 -0.0964
12814SOL    HW139883   4.053   1.650   7.677  2.3566  2.1710 -0.9352
12814SOL    HW239884   3.935   1.596   7.598  1.8816 -1.8106  2.1471
12815SOL     OW39885   0.723   4.633   8.161  0.0157  0.1315 -0.1497
12815SOL    HW139886   0.673   4.631   8.080  0.9227 -1.2822 -0.7122
12815SOL    HW239887   0.794   4.695   8.145  0.1509 -0.0900 -0.4093
12816SOL     OW39888   0.412   6.992   3.083 -0.0745  0.1659  0.7737
12816SOL    HW139889   0.497   6.950   3.068 -0.3241 -0.3012  0.6551
12816SOL    HW239890   0.434   7.080   3.114  0.4550  0.4059 -0.2423
12817SOL     OW39891   2.853   5.336   8.643 -0.3129 -0.3770 -0.1414
12817SOL    HW139892   2.798   5.261   8.618 -1.4998  0.3042  0.3417
12817SOL    HW239893   2.907   5.302   8.715 -2.1495 -0.3179  1.3517
12818SOL     OW39894   6.193   5.520   9.592 -0.3355 -0.9090 -0.7986
12818SOL    HW139895   6.129   5.591   9.586  0.2773 -0.2531  0.0674
12818SOL    HW239896   6.162   5.454   9.531 -2.1006 -0.8124 -0.0655
12819SOL     OW39897   5.453   0.836   5.729 -0.4341  0.0731 -0.0120
12819SOL    HW139898   5.519   0.783   5.774 -0.4995 -0.2414 -0.2815
12819SOL    HW239899   5.401   0.875   5.799  0.8199  1.3412  0.2557
12820SOL     OW39900   1.412   3.009   4.599 -0.0741 -0.0871 -0.1268
12820SOL    HW139901   1.447   3.069   4.533  1.9636  1.6371  2.3015
12820SOL    HW239902   1.483   2.947   4.616  0.7342  1.3808  2.4860
12821SOL     OW39903   0.495   1.721   6.852 -0.2067 -0.2473 -0.7673
12821SOL    HW139904   0.480   1.803   6.804  0.5381  1.0527  1.1084
12821SOL    HW239905   0.435   1.726   6.927  0.1108 -1.2511 -0.4310
12822SOL     OW39906   0.997   4.593   6.412 -0.1166  0.0966  0.3098
12822SOL    HW139907   0.965   4.625   6.496 -0.8493  1.8155 -0.5548
12822SOL    HW239908   1.077   4.643   6.396 -1.3995  1.8231 -1.1765
12823SOL     OW39909   6.836   3.756   2.204 -0.6723 -0.4754 -0.1094
12823SOL    HW139910   6.768   3.794   2.260  0.1078  1.2422 -0.2495
12823SOL    HW239911   6.884   3.832   2.171 -0.1637 -1.5323 -1.9001
12824SOL     OW39912   0.037   3.138   1.123  0.6712  0.3710  0.2114
12824SOL    HW139913  -0.037   3.078   1.115  1.6982 -0.7767 -1.1529
12824SOL    HW239914   0.016   3.211   1.065 -1.2169  2.1636  2.8751
12825SOL     OW39915   6.960   5.048   0.554  0.1259  0.6273 -0.0655
12825SOL    HW139916   6.918   5.031   0.469 -0.7234  2.4105 -0.0452
12825SOL    HW239917   6.888   5.046   0.617  0.5288  0.7453  0.4011
12826SOL     OW39918   5.091   7.370  10.951 -0.3014 -0.3205 -0.3902
12826SOL    HW139919   5.006   7.375  10.995 -0.5331 -2.0218 -0.5801
12826SOL    HW239920   5.153   7.407  11.014 -0.8374 -1.4069  0.8215
12827SOL     OW39921   6.707   3.130   8.172  0.1601 -0.0460 -0.9936
12827SOL    HW139922   6.764   3.207   8.181 -0.0736 -0.0341  0.6530
12827SOL    HW239923   6.623   3.159   8.208 -0.0045 -0.9936 -0.5983
12828SOL     OW39924   4.884   2.445  10.062  0.0613 -0.6974  0.4224
12828SOL    HW139925   4.978   2.463  10.062  0.0624 -0.5486  2.0809
12828SOL    HW239926   4.850   2.492   9.986  1.3695 -1.1074 -0.4572
12829SOL     OW39927   3.922   1.725   2.187 -0.1324 -0.5417 -0.0484
12829SOL    HW139928   3.972   1.761   2.260  2.1868 -0.0316 -1.7883
12829SOL    HW239929   3.910   1.633   2.209 -0.9906 -0.0568  1.7275
12830SOL     OW39930   2.413   0.214  10.898 -0.6944 -0.8803 -0.1917
12830SOL    HW139931   2.421   0.228  10.993 -2.1253  0.6560 -0.2393
12830SOL    HW239932   2.436   0.299  10.860 -1.3153 -1.1244 -1.1427
12831SOL     OW39933   4.240   1.563  12.233 -0.4678  0.1835  0.4043
12831SOL    HW139934   4.281   1.478  12.221 -0.3117  0.2003  0.7834
12831SOL    HW239935   4.290   1.623  12.177 -0.9313 -0.0740 -0.2939
12832SOL     OW39936   6.087   0.195   8.849 -0.0476 -0.1000  0.1460
12832SOL    HW139937   6.065   0.166   8.761 -1.9047  1.3502  0.0628
12832SOL    HW239938   6.132   0.278   8.836  2.9005 -1.5264  0.4822
12833SOL     OW39939   2.524   4.650   7.750 -0.0855  0.3817  0.5014
12833SOL    HW139940   2.558   4.668   7.662  0.4551 -1.3851  0.3134
12833SOL    HW239941   2.594   4.680   7.809 -0.2255  1.0845  0.3155
12834SOL     OW39942   3.187   3.135  11.934 -0.0401 -0.7179 -0.2197
12834SOL    HW139943   3.247   3.208  11.921  0.3474 -0.6044  1.8385
12834SOL    HW239944   3.140   3.127  11.851  1.4737  0.4147 -1.2243
12835SOL     OW39945   2.873   5.507   5.112  0.0792 -0.7011  0.3843
12835SOL    HW139946   2.780   5.526   5.123 -0.0166 -0.1814 -1.0145
12835SOL    HW239947   2.888   5.427   5.162 -0.8081 -0.0563  1.7309
12836SOL     OW39948   2.788   0.224   8.944  0.2675  0.5199 -0.0147
12836SOL    HW139949   2.862   0.199   8.889 -0.8887  0.3788 -1.6144
12836SOL    HW239950   2.771   0.315   8.921 -0.9881  0.1001 -0.8557
12837SOL     OW39951   1.046   1.051  10.713  0.4438 -0.3989 -0.0025
12837SOL    HW139952   1.080   0.963  10.727 -0.3410 -0.5565  1.0942
12837SOL    HW239953   1.083   1.103  10.784  1.6686  0.4005 -1.1984
12838SOL     OW39954   4.949   6.099   2.815  0.0349  0.6626  0.1223
12838SOL    HW139955   4.966   6.079   2.907 -1.1292 -2.3233 -0.2028
12838SOL    HW239956   5.036   6.114   2.778  0.7882 -0.6560  1.2236
12839SOL     OW39957   7.208   6.102   4.782 -0.2460  0.5761 -0.6140
12839SOL    HW139958   7.262   6.154   4.841 -1.8024  1.8565 -0.2360
12839SOL    HW239959   7.200   6.017   4.826  0.0800  0.9197  0.1372
12840SOL     OW39960   5.117   1.429   3.165  0.2183  0.2477 -0.4945
12840SOL    HW139961   5.177   1.355   3.174  0.3478  0.3710 -0.3545
12840SOL    HW239962   5.165   1.493   3.114  0.2564  0.4003 -0.2687
12841SOL     OW39963   4.606   1.868   4.192  0.1877  0.5055  0.2549
12841SOL    HW139964   4.573   1.780   4.178 -0.0744  0.5434  0.6454
12841SOL    HW239965   4.546   1.925   4.144  1.7091  0.3071 -2.0909
12842SOL     OW39966   5.658   7.828   5.105 -0.0243 -0.1676 -0.8517
12842SOL    HW139967   5.735   7.773   5.089  0.7491  0.7813 -0.5187
12842SOL    HW239968   5.618   7.790   5.183  0.8554  0.0834 -0.2549
12843SOL     OW39969   6.988   4.020   1.516  0.5315 -0.3153  0.4547
12843SOL    HW139970   7.031   4.101   1.489 -0.3352  1.1951  3.1521
12843SOL    HW239971   7.023   4.003   1.604 -0.5293 -1.9641  0.5975
12844SOL     OW39972   1.439   0.280   2.293  0.0831 -0.2189 -0.2550
12844SOL    HW139973   1.449   0.289   2.198  0.2270 -0.2093 -0.2391
12844SOL    HW239974   1.456   0.368   2.327 -1.9865  0.2793 -0.3778
12845SOL     OW39975   4.986   4.549   5.642 -0.0578 -0.2481 -0.2808
12845SOL    HW139976   4.981   4.456   5.663  1.4009  0.0465  1.5717
12845SOL    HW239977   4.956   4.554   5.551  1.2937 -2.7185 -0.9554
12846SOL     OW39978   0.003   6.792  12.035 -0.3097  0.1124  0.4176
12846SOL    HW139979   0.056   6.843  11.974 -0.0743 -0.8524 -0.2059
12846SOL    HW239980  -0.086   6.828  12.026 -0.1586  0.3716 -0.0487
12847SOL     OW39981   7.255   4.222  12.023 -0.1813 -0.3944 -0.2186
12847SOL    HW139982   7.349   4.221  12.002 -0.0257  1.6007  0.1942
12847SOL    HW239983   7.224   4.307  11.990 -1.6910 -0.7149  0.3062
12848SOL     OW39984   6.876   6.041   7.519  0.1918 -0.2026 -0.4727
12848SOL    HW139985   6.940   5.971   7.532 -1.5052 -1.4668  1.9149
12848SOL    HW239986   6.928   6.121   7.516  1.9262 -1.0224  2.7670
12849SOL     OW39987   2.015   7.511  12.343 -0.0348  0.0491  0.6287
12849SOL    HW139988   2.041   7.590  12.390 -0.2787  3.2421 -3.9347
12849SOL    HW239989   2.095   7.457  12.341  1.6438  2.3994 -0.0181
12850SOL     OW39990   3.244   7.226   1.331 -0.5236 -0.7702 -0.5501
12850SOL    HW139991   3.325   7.176   1.322 -0.3486 -0.4422 -0.7943
12850SOL    HW239992   3.266   7.299   1.389 -0.6570 -0.7111 -0.5727
12851SOL     OW39993   6.551   7.678   4.084  0.4576 -0.0942 -0.1710
12851SOL    HW139994   6.536   7.749   4.147  1.0932  2.2049 -2.4399
12851SOL    HW239995   6.467   7.667   4.040  0.0478 -1.6203  0.9038
12852SOL     OW39996   3.733   2.451   8.762  0.0565  0.4026 -0.5215
12852SOL    HW139997   3.726   2.547   8.768  1.5316  0.5102 -0.2231
12852SOL    HW239998   3.671   2.419   8.827 -1.2762  1.1013 -1.3739
12853SOL     OW39999   2.153   5.570  12.051  0.3739  0.7429 -0.3549
12853SOL    HW140000   2.214   5.506  12.014 -1.7628 -1.9259  0.4448
12853SOL    HW240001   2.067   5.542  12.021 -0.7988  2.4264  1.2144
12854SOL     OW40002   5.848   4.509   1.598  0.1078 -0.5569  0.0376
12854SOL    HW140003   5.864   4.527   1.505 -3.2321  2.9551 -0.1076
12854SOL    HW240004   5.871   4.590   1.642 -0.8487 -1.2755  1.9377
12855SOL     OW40005   0.938   0.857   8.829 -0.2433 -0.0996  0.0446
12855SOL    HW140006   0.883   0.820   8.898 -0.5823 -0.2905 -0.3212
12855SOL    HW240007   0.953   0.948   8.856 -0.0255 -0.2897  0.5765
12856SOL     OW40008   1.646   5.682   7.555  0.0164 -0.4882 -0.3378
12856SOL    HW140009   1.650   5.655   7.647  0.0511  0.2918 -0.1010
12856SOL    HW240010   1.579   5.750   7.553  1.0798  0.5997 -0.5841
12857SOL     OW40011   5.915   3.649  12.466 -0.3967  0.1612 -0.5899
12857SOL    HW140012   5.925   3.556  12.449 -1.4161 -0.2743  1.0229
12857SOL    HW240013   5.997   3.688  12.435  1.3909 -1.6596  1.5377
12858SOL     OW40014   1.849   5.410   7.596 -0.0568  0.3943 -0.7666
12858SOL    HW140015   1.824   5.361   7.674 -1.5867  1.4133 -0.5811
12858SOL    HW240016   1.935   5.375   7.572  1.3480  1.2758  2.4218
12859SOL     OW40017   0.108   0.214   2.900 -0.3347  0.1396 -0.4376
12859SOL    HW140018   0.022   0.225   2.861 -1.1166 -2.0415  0.5273
12859SOL    HW240019   0.095   0.225   2.994  0.6947  0.9714 -0.3635
12860SOL     OW40020   4.032   7.745   8.360 -0.4176  0.0467 -0.0569
12860SOL    HW140021   4.000   7.740   8.270 -1.1136 -0.7876  0.2231
12860SOL    HW240022   4.083   7.826   8.363 -0.2328 -0.0067 -1.2434
12861SOL     OW40023   0.760   6.457   6.261  0.4413 -0.2432 -0.5874
12861SOL    HW140024   0.787   6.372   6.226  1.1453  1.0996 -3.5558
12861SOL    HW240025   0.703   6.494   6.193  0.0626  1.6426  0.6944
12862SOL     OW40026   2.168   2.267   1.177  0.2862 -0.0277  0.0163
12862SOL    HW140027   2.149   2.360   1.189  0.7960  0.1314 -0.3682
12862SOL    HW240028   2.263   2.262   1.168  0.0997 -0.2144 -2.7275
12863SOL     OW40029   0.402   6.423   4.048  0.0751 -0.4016 -0.4183
12863SOL    HW140030   0.480   6.467   4.013 -1.3338  0.6777 -2.3679
12863SOL    HW240031   0.339   6.493   4.062 -0.6250 -1.2727  1.0756
12864SOL     OW40032   0.497   7.401   7.665  0.2452 -0.2431 -0.7957
12864SOL    HW140033   0.545   7.465   7.613  1.8566 -0.1265  0.7252
12864SOL    HW240034   0.460   7.451   7.737 -1.4794 -0.4937 -1.4709
12865SOL     OW40035   7.610   2.409   9.759  0.1013  0.3707 -0.3201
12865SOL    HW140036   7.675   2.472   9.726 -0.4845  0.8125 -0.6466
12865SOL    HW240037   7.548   2.398   9.687 -1.5926  1.8712  0.8339
12866SOL     OW40038   5.313   2.675   1.152 -0.3982 -0.6373  0.1134
12866SOL    HW140039   5.382   2.680   1.086 -0.4140  0.1139  0.1488
12866SOL    HW240040   5.243   2.625   1.110 -1.6045  2.2315 -1.5247
12867SOL     OW40041   1.402   1.489   1.728  0.2285  0.0942  0.8883
12867SOL    HW140042   1.468   1.435   1.772 -0.9312 -0.4972  1.9936
12867SOL    HW240043   1.328   1.429   1.715 -0.1071  0.7478 -0.2876
12868SOL     OW40044   0.929   5.762   0.474 -0.3834  0.2004  0.6271
12868SOL    HW140045   0.928   5.666   0.475  0.4845  0.1918  0.8704
12868SOL    HW240046   0.937   5.787   0.566 -0.9968  0.5242  0.6026
12869SOL     OW40047   0.216   7.807  11.554  0.1830  0.6795 -0.1641
12869SOL    HW140048   0.248   7.802  11.644  1.7315  2.6092 -0.5564
12869SOL    HW240049   0.187   7.898  11.543  0.2303  0.5432 -1.6859
12870SOL     OW40050   5.049   5.971  11.131  0.0285 -0.0174  0.1840
12870SOL    HW140051   4.984   6.037  11.108 -0.9220 -1.0011 -0.0264
12870SOL    HW240052   5.091   5.949  11.048 -1.4063 -1.4698 -0.2158
12871SOL     OW40053   6.170   7.334   1.645 -0.0547 -0.5769 -0.0760
12871SOL    HW140054   6.195   7.257   1.592 -0.9201  0.1300 -1.5937
12871SOL    HW240055   6.244   7.393   1.636 -0.6683  0.0285 -1.5600
12872SOL     OW40056   7.066   5.815   9.211 -0.3663  0.2397  0.1562
12872SOL    HW140057   7.038   5.830   9.121 -0.4490  0.5488  0.2321
12872SOL    HW240058   7.100   5.725   9.211  1.3916  0.8398 -0.6340
12873SOL     OW40059   4.720   7.781  10.528  0.7731 -0.1024 -0.0314
12873SOL    HW140060   4.754   7.697  10.560  1.8749  1.0394  1.9703
12873SOL    HW240061   4.799   7.830  10.502  0.1084  0.1506 -1.7522
12874SOL     OW40062   5.461   4.682   4.991 -0.6541 -0.6239  0.4412
12874SOL    HW140063   5.389   4.678   5.053  0.5391 -3.1582  1.8182
12874SOL    HW240064   5.420   4.669   4.905 -2.0016 -0.0542  0.9711
12875SOL     OW40065   1.934   2.705  12.467 -0.4939  0.1408 -0.1827
12875SOL    HW140066   1.946   2.776  12.530 -0.7005  0.4350 -0.4793
12875SOL    HW240067   1.883   2.639  12.515  0.4825 -0.2159  0.3973
12876SOL     OW40068   3.067   5.094  12.173  0.3543 -0.6765 -0.3427
12876SOL    HW140069   3.010   5.162  12.138 -1.0795  0.0494  2.9139
12876SOL    HW240070   3.138   5.141  12.216 -0.1296 -1.2132  1.1115
12877SOL     OW40071   7.977   4.568  12.125 -0.0831  0.0786  1.2321
12877SOL    HW140072   7.929   4.651  12.121 -0.5732 -0.2488 -0.3729
12877SOL    HW240073   8.056   4.583  12.073  0.4520 -0.0792  1.9928
12878SOL     OW40074   5.602   1.670   4.249  0.2486  0.5231 -0.2353
12878SOL    HW140075   5.680   1.620   4.223  0.4624  1.9061 -2.5927
12878SOL    HW240076   5.535   1.644   4.186 -0.6136  0.8200  0.5312
12879SOL     OW40077   6.348   5.471   2.366  0.4884  0.2735  0.0723
12879SOL    HW140078   6.415   5.480   2.434  0.0548 -3.2653  1.2045
12879SOL    HW240079   6.319   5.380   2.374 -3.3341  1.1687 -1.4394
12880SOL     OW40080   6.810   2.043   5.937  0.0081  0.4718 -0.2728
12880SOL    HW140081   6.890   2.002   5.904  1.4262  2.5276  0.4417
12880SOL    HW240082   6.739   1.995   5.894  1.5659 -1.8676 -0.4091
12881SOL     OW40083   6.557   0.803   7.463  0.1713 -0.1263 -0.3396
12881SOL    HW140084   6.472   0.831   7.497  0.2463 -1.1261  0.7365
12881SOL    HW240085   6.547   0.710   7.445  0.7189 -0.0149 -1.2837
12882SOL     OW40086   7.283   1.719   7.132  0.4992 -0.0121 -0.1648
12882SOL    HW140087   7.190   1.742   7.131  0.9808  2.3997 -2.6175
12882SOL    HW240088   7.302   1.693   7.041  2.0035 -1.7045  0.5776
12883SOL     OW40089   3.123   6.934   4.741 -0.0279 -0.3317 -0.1176
12883SOL    HW140090   3.081   6.855   4.775  1.8228 -1.6987 -0.7938
12883SOL    HW240091   3.180   6.902   4.670  0.9909  1.5778 -0.2327
12884SOL     OW40092   6.777   1.943  10.682  0.3816  0.2180  0.4315
12884SOL    HW140093   6.762   1.926  10.589 -1.8210  2.4787  0.2743
12884SOL    HW240094   6.824   2.027  10.684  0.6631  0.0506  1.3620
12885SOL     OW40095   4.730   4.274   9.035 -0.1728 -0.0611  0.0217
12885SOL    HW140096   4.707   4.250   9.125  0.6422 -1.3396 -0.0773
12885SOL    HW240097   4.744   4.190   8.991  0.7625  0.5668 -0.9307
12886SOL     OW40098   3.438   7.199   4.601  0.1023 -0.1352  0.1964
12886SOL    HW140099   3.484   7.118   4.625 -1.2545 -0.9462  0.1675
12886SOL    HW240100   3.499   7.244   4.542  0.2929 -1.8778 -1.0319
12887SOL     OW40101   1.812   0.648   8.929  0.1176  0.2235 -0.2267
12887SOL    HW140102   1.892   0.661   8.878  1.0254 -0.7668  0.8792
12887SOL    HW240103   1.798   0.553   8.928 -0.1073  0.2268  0.9470
12888SOL     OW40104   5.653   1.730  10.104 -0.0471  0.1873 -0.0465
12888SOL    HW140105   5.724   1.679  10.143  0.0235  0.1885 -0.1745
12888SOL    HW240106   5.625   1.789  10.175  0.7756  0.9136 -0.3008
12889SOL     OW40107   7.516   0.819   6.221  0.0429 -0.0823 -0.5551
12889SOL    HW140108   7.426   0.841   6.245  0.3408 -0.8214  1.3913
12889SOL    HW240109   7.507   0.764   6.143 -1.0788  1.0039 -1.2336
12890SOL     OW40110   3.549   2.461  10.424 -0.1189 -0.2481 -0.3756
12890SOL    HW140111   3.503   2.379  10.438  0.5138 -0.4454  0.6500
12890SOL    HW240112   3.639   2.436  10.406  0.5061  0.2349  1.7768
12891SOL     OW40113   7.392   6.504   4.113 -0.0138  0.4953 -0.4238
12891SOL    HW140114   7.341   6.500   4.194  0.8858  0.6892  0.1604
12891SOL    HW240115   7.430   6.591   4.113  2.9913 -0.6928  0.8351
12892SOL     OW40116   7.498   6.310   9.546 -0.6516 -0.7904  0.0027
12892SOL    HW140117   7.456   6.344   9.625  0.4189  0.6174  0.0073
12892SOL    HW240118   7.475   6.218   9.544 -2.5486 -0.3850  0.7622
12893SOL     OW40119   4.819   1.784   3.998  0.2657 -0.5612  0.1980
12893SOL    HW140120   4.744   1.796   4.057 -0.1860  2.6153 -0.7954
12893SOL    HW240121   4.784   1.733   3.925 -0.7500  0.1622  0.1498
12894SOL     OW40122   5.812   3.996   9.553  0.1663 -0.0787 -0.1614
12894SOL    HW140123   5.878   4.046   9.601  0.7097  0.1401 -1.1110
12894SOL    HW240124   5.840   3.904   9.563 -1.3901 -0.3753  2.4423
12895SOL     OW40125   5.796   3.965   6.531  0.1180 -0.7857 -0.4598
12895SOL    HW140126   5.704   3.938   6.530  0.3074 -1.5540  0.8824
12895SOL    HW240127   5.841   3.895   6.579  1.5444 -0.8179 -1.7570
12896SOL     OW40128   0.108   1.622   7.286 -0.3823  0.7180  0.2236
12896SOL    HW140129   0.097   1.656   7.375  1.2185  1.1447  0.2913
12896SOL    HW240130   0.034   1.563   7.273 -0.9988  1.1510  1.5956
12897SOL     OW40131   4.257   1.112   3.510 -0.4462 -0.1952  0.1588
12897SOL    HW140132   4.187   1.174   3.532  0.1819  0.2732  0.8779
12897SOL    HW240133   4.236   1.083   3.422 -1.1924  0.4378  0.1154
12898SOL     OW40134   2.580   2.224   2.050  0.5217  0.4214  0.1122
12898SOL    HW140135   2.633   2.144   2.053 -1.3113 -0.8231  0.5836
12898SOL    HW240136   2.504   2.205   2.105 -0.9045  1.7986 -1.2885
12899SOL     OW40137   2.029   7.449  10.709 -0.2149 -0.1512  0.4933
12899SOL    HW140138   2.008   7.541  10.725  0.3191  0.0238  0.2311
12899SOL    HW240139   1.955   7.416  10.659 -0.1101  0.3205  0.0071
12900SOL     OW40140   2.576   7.983   2.663 -0.2633  0.1579  0.5651
12900SOL    HW140141   2.611   8.001   2.751  0.0063 -2.8748  1.1699
12900SOL    HW240142   2.484   8.008   2.669  0.0764  1.3510  1.2358
12901SOL     OW40143   7.704   5.524   1.067 -0.1700  0.2323 -0.1175
12901SOL    HW140144   7.792   5.548   1.098 -0.7596  0.6053  1.3201
12901SOL    HW240145   7.661   5.608   1.053 -0.5210  0.0443 -0.1588
12902SOL     OW40146   6.067   6.223   6.709  0.0431 -0.1227 -0.0050
12902SOL    HW140147   6.120   6.299   6.731  0.0419  0.0353 -0.5362
12902SOL    HW240148   5.999   6.256   6.650  0.3065 -0.6035 -0.6001
12903SOL     OW40149   6.697   4.404   6.671  0.3316 -0.2069  0.5230
12903SOL    HW140150   6.734   4.491   6.655 -1.7144  1.2313  2.9474
12903SOL    HW240151   6.674   4.371   6.583  1.0039  1.7492 -0.4360
12904SOL     OW40152   5.949   2.990   5.426 -0.3386  0.3791  0.5423
12904SOL    HW140153   5.970   3.005   5.518 -1.0510  2.9719  0.3525
12904SOL    HW240154   5.892   2.913   5.427 -0.6447  0.5856  2.3166
12905SOL     OW40155   6.606   3.976  10.916 -0.1950  0.3001  0.2801
12905SOL    HW140156   6.658   3.918  10.972 -1.7758 -1.5027 -0.0384
12905SOL    HW240157   6.610   3.935  10.830 -0.5862  1.1817 -0.1636
12906SOL     OW40158   0.121   3.871   6.122 -0.5831  0.1408  0.1363
12906SOL    HW140159   0.174   3.800   6.156 -0.6321 -0.4724 -0.9960
12906SOL    HW240160   0.071   3.903   6.197  1.2450  0.6402  1.1893
12907SOL     OW40161   7.403   3.622   7.193  0.1803  0.1346  0.5906
12907SOL    HW140162   7.317   3.592   7.162  0.3278  1.7789 -1.6776
12907SOL    HW240163   7.446   3.542   7.223 -1.4765 -1.0109  0.0992
12908SOL     OW40164   2.444   7.378   8.366 -0.5413  0.0327 -0.0878
12908SOL    HW140165   2.464   7.466   8.397  1.0014 -0.6093  0.8803
12908SOL    HW240166   2.510   7.361   8.299  0.8695 -1.2850  1.5325
12909SOL     OW40167   6.875   5.192   4.159  0.5782 -0.1801 -0.1532
12909SOL    HW140168   6.831   5.152   4.084 -0.3806  2.6330 -1.2256
12909SOL    HW240169   6.968   5.192   4.135  0.4724 -0.7393 -0.5960
12910SOL     OW40170   4.780   6.842   5.893 -0.0385 -0.4631  0.3136
12910SOL    HW140171   4.776   6.919   5.950  0.3406 -0.5138  0.4098
12910SOL    HW240172   4.861   6.798   5.918  0.9836  0.3730 -1.3705
12911SOL     OW40173   3.902   7.493   3.181 -0.0822 -0.1747  0.0314
12911SOL    HW140174   3.806   7.491   3.186 -0.2006 -0.9315 -1.8349
12911SOL    HW240175   3.928   7.401   3.181  0.6140  0.0195 -0.0483
12912SOL     OW40176   7.918   3.315  11.614  0.2832 -0.0494  0.3373
12912SOL    HW140177   7.905   3.396  11.564  0.1323  0.3526  1.0189
12912SOL    HW240178   7.962   3.256  11.552 -1.7380 -0.2963 -0.9679
12913SOL     OW40179   7.210   5.286   6.766  0.0906  0.1840  0.4278
12913SOL    HW140180   7.117   5.279   6.749  0.0735  0.6989  0.2749
12913SOL    HW240181   7.222   5.377   6.794  0.5689  0.1610  0.3060
12914SOL     OW40182   4.396   5.266  11.707 -0.1343  0.0047 -0.4539
12914SOL    HW140183   4.338   5.339  11.725  0.7309  0.7782 -0.7258
12914SOL    HW240184   4.456   5.299  11.640  0.7972 -0.6677  0.0227
12915SOL     OW40185   4.442   5.465   9.269  0.1193  0.2069  0.2662
12915SOL    HW140186   4.489   5.530   9.218 -0.1121 -0.3669 -0.7004
12915SOL    HW240187   4.349   5.484   9.254  0.0393  0.2794  0.8015
12916SOL     OW40188   4.701   5.102   9.132 -0.8129  0.2640 -0.3529
12916SOL    HW140189   4.609   5.078   9.132 -1.7599  3.3710  0.6237
12916SOL    HW240190   4.730   5.086   9.222 -0.4551 -0.4162 -0.5808
12917SOL     OW40191   3.007   3.092  12.461  0.6527 -0.0187 -0.4836
12917SOL    HW140192   2.911   3.083  12.458  0.4356  1.5022  0.5292
12917SOL    HW240193   3.038   3.043  12.385 -1.0549  0.7961 -1.7969
12918SOL     OW40194   3.121   5.817   0.944 -0.2043  0.8426  0.0554
12918SOL    HW140195   3.051   5.831   1.008 -0.0083  1.5990  0.1187
12918SOL    HW240196   3.161   5.904   0.933 -0.0264  0.6596 -0.8453
12919SOL     OW40197   0.223   7.626   1.525  0.2308 -0.3665  0.1516
12919SOL    HW140198   0.287   7.587   1.584  0.8782  0.3983 -0.0170
12919SOL    HW240199   0.138   7.605   1.563  0.6391  1.2820  2.1707
12920SOL     OW40200   3.264   1.070   1.068 -0.3093 -0.0216  0.0382
12920SOL    HW140201   3.211   1.050   1.146 -1.1564 -0.2063 -0.5780
12920SOL    HW240202   3.347   1.025   1.084 -0.9719 -1.2174  0.2201
12921SOL     OW40203   1.742   1.922   9.885  0.0577 -0.1132  0.0915
12921SOL    HW140204   1.719   1.874   9.805 -2.6597 -0.3423  0.9088
12921SOL    HW240205   1.723   1.860   9.955  0.2498  0.8337  0.9937
12922SOL     OW40206   6.685   3.864   9.071 -0.2682  0.0881  0.1491
12922SOL    HW140207   6.650   3.904   9.150  1.2613 -0.9403  1.4161
12922SOL    HW240208   6.773   3.835   9.095  0.4558  0.1791 -2.0870
12923SOL     OW40209   5.648   3.515   7.413  0.0383 -0.0499 -0.0351
12923SOL    HW140210   5.563   3.548   7.443 -0.0291 -0.0468 -0.2273
12923SOL    HW240211   5.679   3.460   7.485  0.1852  0.4866  0.3144
12924SOL     OW40212   1.783   7.444  12.237 -0.2519  0.1421 -0.2609
12924SOL    HW140213   1.805   7.379  12.170  2.2879  1.9058 -1.3100
12924SOL    HW240214   1.866   7.462  12.281 -0.9711  2.2410  0.3650
12925SOL     OW40215   5.132   2.891   4.402 -1.1293 -0.1670  0.6858
12925SOL    HW140216   5.042   2.898   4.371 -0.9644 -2.6321 -0.6469
12925SOL    HW240217   5.186   2.912   4.325 -0.5342  1.1864  1.4412
12926SOL     OW40218   4.779   3.460   1.163  0.1265  0.6294 -0.4601
12926SOL    HW140219   4.835   3.382   1.160 -0.2285  0.2862  1.1470
12926SOL    HW240220   4.709   3.442   1.100 -0.1662 -0.5310  0.1771
12927SOL     OW40221   5.196   4.109   5.027  0.1945 -0.4028 -0.2497
12927SOL    HW140222   5.155   4.127   5.112  1.5198 -1.0772  0.5671
12927SOL    HW240223   5.145   4.036   4.991 -0.1393 -0.3710  0.1551
12928SOL     OW40224   0.965   0.270   3.015 -0.4004 -0.9196  0.0030
12928SOL    HW140225   0.937   0.346   3.066 -1.1344 -1.0542 -0.1874
12928SOL    HW240226   0.965   0.197   3.077  1.0853 -0.6269  0.3787
12929SOL     OW40227   7.211   5.157  10.009 -0.2861 -0.1567  0.2081
12929SOL    HW140228   7.140   5.102   9.975 -0.6024  0.1367  0.3964
12929SOL    HW240229   7.270   5.166   9.934 -0.3954 -0.4824  0.0773
12930SOL     OW40230   7.596   5.682   5.630 -0.1059 -0.3452  0.1821
12930SOL    HW140231   7.532   5.631   5.579 -1.1179 -0.4756  1.5316
12930SOL    HW240232   7.581   5.656   5.721  0.6533  0.9676  0.7124
12931SOL     OW40233   7.562   6.459   2.801  0.6776  0.5979  0.2822
12931SOL    HW140234   7.476   6.458   2.759  0.9482  0.1214 -0.2763
12931SOL    HW240235   7.597   6.371   2.785  0.3550  0.0109  2.4253
12932SOL     OW40236   4.789   5.902  12.165 -0.7568  0.3225 -0.3749
12932SOL    HW140237   4.750   5.814  12.166  0.3612 -0.2416 -2.2355
12932SOL    HW240238   4.864   5.895  12.225 -0.7382  0.0381 -0.4285
12933SOL     OW40239   5.087   0.761   9.930  0.4137  0.4311 -0.6756
12933SOL    HW140240   5.178   0.782   9.951  0.5896 -1.0551  0.2702
12933SOL    HW240241   5.038   0.838   9.955  0.8712 -0.3986  3.5674
12934SOL     OW40242   4.381   7.525   0.824 -0.0019 -0.2831 -0.4864
12934SOL    HW140243   4.379   7.436   0.859 -0.3417 -0.0629  0.0789
12934SOL    HW240244   4.289   7.548   0.812  0.0166  0.4488  0.6042
12935SOL     OW40245   0.163   5.993   2.820  0.0938 -0.7704  0.4335
12935SOL    HW140246   0.180   6.085   2.839 -0.4673 -0.5338 -0.1845
12935SOL    HW240247   0.235   5.966   2.764  0.5686 -0.8695  1.0836
12936SOL     OW40248   2.605   3.350   8.494 -0.9671  0.7255 -0.2335
12936SOL    HW140249   2.558   3.287   8.550  0.6228 -3.7986 -3.4143
12936SOL    HW240250   2.541   3.376   8.428 -1.3203  1.7368  0.4745
12937SOL     OW40251   3.160   5.674   5.808  0.3666 -0.6636 -0.3291
12937SOL    HW140252   3.077   5.697   5.766 -0.5748 -1.7554  0.8264
12937SOL    HW240253   3.174   5.743   5.872 -0.1806 -0.9803  0.1445
12938SOL     OW40254   6.733   3.662   5.158 -0.3341 -0.4213  0.2013
12938SOL    HW140255   6.721   3.708   5.075 -1.3133 -1.2692 -0.1406
12938SOL    HW240256   6.649   3.622   5.176  0.5490 -2.3231  0.3359
12939SOL     OW40257   3.932   2.988   4.860  0.0326  0.2090 -0.0785
12939SOL    HW140258   4.006   2.962   4.806 -1.0345  0.7766 -1.9029
12939SOL    HW240259   3.904   2.907   4.903  0.2660 -0.4827 -1.1992
12940SOL     OW40260   5.573   5.924   0.400  0.1093 -0.3011 -0.0500
12940SOL    HW140261   5.574   6.005   0.451  1.2636  0.5863 -1.4484
12940SOL    HW240262   5.481   5.912   0.376  0.0752  1.1841 -0.7380
12941SOL     OW40263   4.539   7.174   1.994  0.0461 -0.1600  0.2910
12941SOL    HW140264   4.470   7.162   2.059 -1.1397  2.0053 -0.4712
12941SOL    HW240265   4.496   7.221   1.922  2.3413  1.4515 -0.1270
12942SOL     OW40266   7.721   6.585  11.488 -0.2128 -0.3286 -0.1188
12942SOL    HW140267   7.692   6.676  11.477  0.0750 -0.1705  0.3827
12942SOL    HW240268   7.641   6.533  11.484 -0.6498  0.1387  1.7514
12943SOL     OW40269   6.003   3.600   7.961 -0.3538 -0.0251 -0.1902
12943SOL    HW140270   5.972   3.602   8.052  0.0381  2.1485 -0.0549
12943SOL    HW240271   5.969   3.517   7.926 -1.0190 -0.6263  1.7479
12944SOL     OW40272   6.518   2.109   8.468  0.4634  0.2696 -0.2037
12944SOL    HW140273   6.567   2.050   8.526 -1.2982 -1.5596 -0.4706
12944SOL    HW240274   6.558   2.194   8.483  3.2066 -0.9444  0.1398
12945SOL     OW40275   4.106   2.963   1.206 -0.1968  0.2461 -0.2975
12945SOL    HW140276   4.167   2.894   1.180  0.2993  0.6513 -0.2295
12945SOL    HW240277   4.019   2.925   1.193  0.0574 -0.8244  0.8734
12946SOL     OW40278   6.313   1.702   8.052 -0.0355 -0.1396  0.2707
12946SOL    HW140279   6.275   1.631   8.001  1.0339 -0.0634 -0.6882
12946SOL    HW240280   6.380   1.659   8.106  0.6799  0.1174 -0.3816
12947SOL     OW40281   7.551   5.917   7.418 -0.0983 -0.2799 -0.2811
12947SOL    HW140282   7.569   5.963   7.500  1.6158  1.6342 -1.6246
12947SOL    HW240283   7.587   5.830   7.430 -0.5177 -0.2738  1.2195
12948SOL     OW40284   0.093   5.768   1.347 -0.0235  0.4476 -0.1217
12948SOL    HW140285   0.151   5.721   1.288  1.3205 -0.8151  2.0608
12948SOL    HW240286   0.143   5.776   1.428 -2.0525  1.4101  1.1106
12949SOL     OW40287   6.286   2.311  11.571 -0.4492 -0.1799  0.5607
12949SOL    HW140288   6.210   2.257  11.550 -0.4642 -0.0910  0.3885
12949SOL    HW240289   6.257   2.366  11.644 -1.0880  1.0129 -0.5448
12950SOL     OW40290   5.195   1.853   1.768 -0.5508  0.4360 -0.2133
12950SOL    HW140291   5.134   1.869   1.696  1.3074  2.1017 -1.5221
12950SOL    HW240292   5.151   1.890   1.845 -2.4147 -1.0459 -0.4932
12951SOL     OW40293   6.071   0.949   4.071  0.0069 -0.3750 -0.1730
12951SOL    HW140294   5.976   0.952   4.081 -0.1672  1.5274 -1.7023
12951SOL    HW240295   6.105   1.006   4.140  0.0354 -0.9992  0.3296
12952SOL     OW40296   7.094   6.513   7.263  0.4283 -0.1692  0.2557
12952SOL    HW140297   7.085   6.506   7.168  2.1102  0.1356  0.0511
12952SOL    HW240298   7.068   6.603   7.283 -1.4686 -0.6922  0.3175
12953SOL     OW40299   0.159   6.836   3.222 -0.7016  0.3207  0.2930
12953SOL    HW140300   0.180   6.816   3.131 -1.0697 -3.0731  0.7984
12953SOL    HW240301   0.132   6.928   3.221 -0.3766  0.5085 -2.9246
12954SOL     OW40302   4.179   1.895   4.536  0.2258  0.0270 -0.5413
12954SOL    HW140303   4.272   1.897   4.517  0.2144  0.1582 -0.5833
12954SOL    HW240304   4.141   1.842   4.466  0.2964 -0.2101 -0.4034
12955SOL     OW40305   7.787   4.035  11.634 -0.2673  0.3853 -0.4127
12955SOL    HW140306   7.725   4.104  11.609  0.2725  0.8413 -0.5260
12955SOL    HW240307   7.864   4.083  11.665 -0.7700 -0.1475  1.8041
12956SOL     OW40308   4.993   6.823   2.120  0.6487  0.3881  0.1709
12956SOL    HW140309   5.010   6.771   2.042  0.5977 -0.6963  0.8668
12956SOL    HW240310   4.973   6.910   2.087 -1.1546 -0.4646 -1.1265
12957SOL     OW40311   4.796   4.246   0.116  0.1265 -0.1152  0.1483
12957SOL    HW140312   4.731   4.199   0.167 -0.4958  1.2573  0.6655
12957SOL    HW240313   4.748   4.275   0.038  0.7461 -1.1083 -0.6273
12958SOL     OW40314   5.576   7.365   8.271  0.2078 -0.3617  0.0605
12958SOL    HW140315   5.556   7.271   8.265  0.2318 -0.3527 -0.1660
12958SOL    HW240316   5.524   7.396   8.345  2.3650 -1.1218  1.9890
12959SOL     OW40317   5.099   5.341   1.163 -0.0872 -0.2011 -1.0153
12959SOL    HW140318   5.015   5.384   1.184  1.0241  1.5221  0.1828
12959SOL    HW240319   5.123   5.378   1.078 -0.6637 -0.9207 -1.5006
12960SOL     OW40320   7.115   1.676   3.591 -0.8732 -0.3764  0.4151
12960SOL    HW140321   7.186   1.612   3.589 -0.7455 -0.2152 -0.7510
12960SOL    HW240322   7.053   1.644   3.526 -0.8275  0.6601 -0.1529
12961SOL     OW40323   1.206   2.737   7.689 -0.0103  0.0335 -0.4237
12961SOL    HW140324   1.224   2.646   7.711  0.1723  0.1442 -0.1113
12961SOL    HW240325   1.156   2.733   7.607 -1.2356 -0.3995  0.3213
12962SOL     OW40326   4.525   0.054   5.797 -0.8455 -0.3677  0.0943
12962SOL    HW140327   4.533   0.149   5.809  0.0501 -0.2931 -0.8704
12962SOL    HW240328   4.559   0.017   5.878 -0.7156  0.1380  0.2787
12963SOL     OW40329   6.762   5.906   3.893 -0.0895  0.0314  0.5622
12963SOL    HW140330   6.735   5.943   3.809  0.9038 -0.9517 -0.2223
12963SOL    HW240331   6.694   5.842   3.914 -0.2984  0.2220  0.4695
12964SOL     OW40332   3.640   7.764   5.320 -0.3779  0.4776  0.3570
12964SOL    HW140333   3.717   7.713   5.345 -0.9540 -0.0390  1.0922
12964SOL    HW240334   3.595   7.783   5.402 -1.1146  0.6427 -0.0735
12965SOL     OW40335   5.458   3.847   9.265 -0.1580 -0.1960 -0.3083
12965SOL    HW140336   5.548   3.824   9.287  0.0250  0.2605 -0.5767
12965SOL    HW240337   5.430   3.778   9.204  0.9557  1.1327 -2.4524
12966SOL     OW40338   4.362   4.811  11.397 -0.3477  0.4231 -0.1431
12966SOL    HW140339   4.451   4.822  11.432 -0.4131 -1.9681  0.9574
12966SOL    HW240340   4.322   4.898  11.406  1.1119  0.9818  1.6362
12967SOL     OW40341   6.636   5.489   9.402  0.5029  0.2041  0.0228
12967SOL    HW140342   6.695   5.565   9.402  1.0407 -0.2050  0.4312
12967SOL    HW240343   6.552   5.524   9.370  0.3757  1.2542  1.4010
12968SOL     OW40344   1.565   3.370   2.131  0.1382  0.4699 -0.3472
12968SOL    HW140345   1.602   3.407   2.211  2.1862  0.7312 -1.3455
12968SOL    HW240346   1.605   3.284   2.123 -0.6390  0.1299 -0.7156
12969SOL     OW40347   6.387   6.093   1.303  0.1814 -0.3418  0.1588
12969SOL    HW140348   6.308   6.046   1.277  1.0985 -1.6873 -0.3039
12969SOL    HW240349   6.409   6.147   1.228 -0.1386 -0.1740  0.1840
12970SOL     OW40350   5.488   6.311   7.207  0.0244 -0.2509 -0.0466
12970SOL    HW140351   5.481   6.321   7.302 -1.2359  0.6650 -0.2081
12970SOL    HW240352   5.553   6.376   7.180 -1.0689  0.8872 -0.0081
12971SOL     OW40353   4.458   5.004  11.830  0.6409  0.7273 -0.6287
12971SOL    HW140354   4.380   4.982  11.880 -0.1019  1.4352 -1.4216
12971SOL    HW240355   4.426   5.017  11.741  1.5388  1.7614 -0.8250
12972SOL     OW40356   7.351   2.397   1.671 -0.5189 -0.1852  0.0256
12972SOL    HW140357   7.308   2.338   1.733 -0.4091  0.0377  0.3164
12972SOL    HW240358   7.340   2.484   1.709  0.0781 -0.1111  0.0393
12973SOL     OW40359   1.926   5.639   0.052  0.3998  0.1683 -0.6239
12973SOL    HW140360   1.883   5.554   0.061 -0.9905  1.0063  1.3294
12973SOL    HW240361   2.019   5.620   0.069 -0.1541 -0.7315  1.8023
12974SOL     OW40362   0.614   0.777   5.071  0.2942 -0.6620 -0.4643
12974SOL    HW140363   0.633   0.832   5.147 -2.7451  0.2642 -0.2556
12974SOL    HW240364   0.651   0.825   4.997 -2.9916  2.3709 -0.4073
12975SOL     OW40365   3.008   7.166   0.771  0.2940  0.3744  0.3431
12975SOL    HW140366   2.918   7.178   0.740  0.5588  0.9519 -0.2191
12975SOL    HW240367   3.056   7.239   0.733  0.1748  2.6232  3.9992
12976SOL     OW40368   2.372   4.881   5.785 -0.0778 -0.2281 -0.7083
12976SOL    HW140369   2.306   4.940   5.821  1.0077  0.0360  0.9597
12976SOL    HW240370   2.388   4.818   5.854  0.8699 -0.7387 -1.3760
12977SOL     OW40371   5.735   0.457   7.958 -0.0951  0.0395  0.1328
12977SOL    HW140372   5.763   0.521   8.023 -1.0890 -0.8342  1.4603
12977SOL    HW240373   5.817   0.428   7.917  0.4978  0.9816  0.6129
12978SOL     OW40374   3.296   3.422   1.748  0.3547  0.9719 -0.6110
12978SOL    HW140375   3.382   3.402   1.784 -1.3041 -3.0367  1.8524
12978SOL    HW240376   3.290   3.367   1.669  0.3246  1.8899 -1.2591
12979SOL     OW40377   5.140   1.341   1.656 -0.1616  0.0728  0.4050
12979SOL    HW140378   5.227   1.332   1.618 -0.8850 -0.2993 -1.2649
12979SOL    HW240379   5.143   1.423   1.705  1.2935 -0.2438  0.8900
12980SOL     OW40380   2.517   6.374   4.073  0.2960 -0.4113  0.2716
12980SOL    HW140381   2.472   6.318   4.010 -0.9731  0.1513  0.6470
12980SOL    HW240382   2.447   6.412   4.126  1.3235 -0.7219  1.9145
12981SOL     OW40383   3.522   6.179   7.255  0.1005 -0.0558  0.3072
12981SOL    HW140384   3.477   6.140   7.179  0.8086  2.5140 -1.5656
12981SOL    HW240385   3.607   6.134   7.258  0.5708  0.6740 -1.2630
12982SOL     OW40386   1.669   3.940  12.247  0.0030 -0.5333  0.1011
12982SOL    HW140387   1.620   3.932  12.328 -2.4997  0.1692 -1.2387
12982SOL    HW240388   1.681   3.850  12.217  0.8668 -0.7940  1.1577
12983SOL     OW40389   0.982   7.645  10.354 -0.2125 -0.0127  0.2668
12983SOL    HW140390   1.053   7.694  10.313 -1.3202  2.1703  0.8390
12983SOL    HW240391   1.008   7.638  10.446 -0.5197  0.3461  0.3786
12984SOL     OW40392   5.916   6.542   2.512  0.1555  0.0647  0.1162
12984SOL    HW140393   5.994   6.529   2.458 -0.7931  1.9697 -1.8452
12984SOL    HW240394   5.856   6.474   2.484  0.4795 -0.3592  0.4300
12985SOL     OW40395   7.440   7.896  11.631  0.1241  0.1647  0.1626
12985SOL    HW140396   7.519   7.910  11.579  0.5315  0.7988  0.9233
12985SOL    HW240397   7.368   7.906  11.569  0.6143  0.2891 -0.3977
12986SOL     OW40398   0.672   6.758   1.390 -0.0430  0.2214 -0.1422
12986SOL    HW140399   0.763   6.731   1.395  0.1044  0.4037 -1.3498
12986SOL    HW240400   0.628   6.710   1.460  0.7546 -0.8356 -0.3423
12987SOL     OW40401   3.116   1.218   0.470 -0.1093  0.3130 -0.1645
12987SOL    HW140402   3.106   1.255   0.382 -1.4387 -2.5479 -1.3461
12987SOL    HW240403   3.054   1.145   0.472  0.7716 -0.4734  2.7525
12988SOL     OW40404   1.305   5.759   9.334 -0.0073 -0.1389  0.3465
12988SOL    HW140405   1.219   5.716   9.329 -0.1726  0.2788 -0.6866
12988SOL    HW240406   1.357   5.702   9.390 -0.1332 -1.8856 -1.1944
12989SOL     OW40407   7.599   1.805  12.198  0.1847  0.0476  0.2230
12989SOL    HW140408   7.642   1.727  12.164  0.5114  0.0511  0.6207
12989SOL    HW240409   7.553   1.775  12.277 -1.3023 -0.1518 -0.6714
12990SOL     OW40410   3.754   0.729   0.110  0.6173 -0.4233  0.0638
12990SOL    HW140411   3.714   0.749   0.194 -0.7854  1.5141 -0.9665
12990SOL    HW240412   3.721   0.642   0.087 -2.1096  0.5675 -0.1433
12991SOL     OW40413   7.517   0.418  11.926 -0.1804  0.1120 -0.0857
12991SOL    HW140414   7.573   0.367  11.985 -3.0501 -3.1241  0.1451
12991SOL    HW240415   7.562   0.414  11.841  1.4951  0.5258  0.7261
12992SOL     OW40416   0.367   0.038   5.414  0.2318  0.1542 -0.0138
12992SOL    HW140417   0.352   0.036   5.509  1.2368 -0.6605  0.1476
12992SOL    HW240418   0.362   0.130   5.390 -0.9994  0.2749  0.6678
12993SOL     OW40419   3.130   3.098   6.620  0.2272 -0.0432  0.0234
12993SOL    HW140420   3.202   3.097   6.556  0.4834 -1.3976  0.2969
12993SOL    HW240421   3.156   3.166   6.682  1.6231 -0.9395  0.4758
12994SOL     OW40422   2.558   2.041   8.430 -0.1310 -0.4414  0.0109
12994SOL    HW140423   2.485   2.101   8.422 -0.8104 -1.2554  0.0002
12994SOL    HW240424   2.551   1.984   8.354 -1.6001 -2.7787  1.7729
12995SOL     OW40425   5.364   1.842   9.775  0.3219  0.8349 -0.0335
12995SOL    HW140426   5.456   1.851   9.801  1.2440 -3.0523 -1.2034
12995SOL    HW240427   5.316   1.836   9.858  1.6169 -0.1002  0.6879
12996SOL     OW40428   2.000   4.720   6.396 -0.2191  1.1375 -0.4392
12996SOL    HW140429   1.917   4.769   6.401 -0.7407  0.1343  1.5683
12996SOL    HW240430   1.990   4.650   6.460  2.0172  0.7095 -0.5045
12997SOL     OW40431   4.658   2.785   6.801 -0.2291 -0.1846  0.3732
12997SOL    HW140432   4.678   2.875   6.827  0.4089 -0.5292  1.1124
12997SOL    HW240433   4.728   2.763   6.739 -0.4734 -0.1235  0.0737
12998SOL     OW40434   7.322   0.717   5.661  0.1474 -0.0714 -0.5054
12998SOL    HW140435   7.384   0.645   5.670 -1.4791 -1.5888 -0.9795
12998SOL    HW240436   7.341   0.754   5.575  1.1035  0.2287 -0.1856
12999SOL     OW40437   4.033   1.597   9.871  0.6009 -0.5681 -0.4734
12999SOL    HW140438   3.960   1.582   9.811 -0.8330 -0.7160  1.2343
12999SOL    HW240439   4.071   1.510   9.885 -0.1725 -0.8145  0.1666
13000SOL     OW40440   6.737   1.288   1.267 -0.8439  0.3571  0.3794
13000SOL    HW140441   6.659   1.235   1.284  0.0647 -0.9910  0.5383
13000SOL    HW240442   6.715   1.375   1.300 -2.3775  0.0816  0.1413
13001SOL     OW40443   0.228   1.129   4.513  0.1969 -0.1240  0.0255
13001SOL    HW140444   0.191   1.161   4.595 -0.1080  1.2000 -0.6007
13001SOL    HW240445   0.196   1.040   4.506 -0.0633 -0.1429  1.1652
13002SOL     OW40446   5.274   4.879   4.771  0.1148 -0.0374 -0.2395
13002SOL    HW140447   5.353   4.877   4.825  0.6899 -1.4431 -1.0680
13002SOL    HW240448   5.308   4.885   4.681 -0.6565 -1.8107 -0.6831
13003SOL     OW40449   3.556   1.001   7.551  0.0607 -0.4445 -0.3043
13003SOL    HW140450   3.589   1.080   7.508  1.2726 -0.0030  1.3374
13003SOL    HW240451   3.603   0.930   7.509  0.9063 -0.0545 -0.0470
13004SOL     OW40452   5.122   7.436   9.248 -0.1954 -0.1958  0.1474
13004SOL    HW140453   5.170   7.504   9.199 -0.6187  0.1848  0.2518
13004SOL    HW240454   5.117   7.471   9.337 -0.4548 -0.3417  0.1906
13005SOL     OW40455   4.862   7.242   7.865 -0.1658  0.0483 -0.4031
13005SOL    HW140456   4.786   7.184   7.871  0.6937 -0.9614  2.4284
13005SOL    HW240457   4.826   7.327   7.842 -2.2646 -0.2738  1.3739
13006SOL     OW40458   3.857   5.805   0.279 -0.1820  0.3425  0.2978
13006SOL    HW140459   3.842   5.854   0.360  0.5390  0.3856  0.4167
13006SOL    HW240460   3.944   5.766   0.291 -0.5577 -0.6032  0.0230
13007SOL     OW40461   7.192   0.206   8.930  0.1309  0.1366  0.3128
13007SOL    HW140462   7.247   0.190   9.007  1.8249  0.4616 -0.7808
13007SOL    HW240463   7.115   0.150   8.944  1.0226 -0.8362  1.5994
13008SOL     OW40464   0.403   4.525   2.618  0.2331  0.4075  0.0394
13008SOL    HW140465   0.472   4.468   2.651 -0.1870 -0.4497 -0.5028
13008SOL    HW240466   0.322   4.480   2.643 -0.0997  0.5031 -0.8399
13009SOL     OW40467   5.980   5.895   0.333 -0.5089  0.1079  0.4949
13009SOL    HW140468   6.019   5.899   0.420  1.7347 -0.9685 -0.3762
13009SOL    HW240469   5.996   5.805   0.304 -0.6484  0.6021 -1.2596
13010SOL     OW40470   2.792   3.895   3.893 -0.1699  0.2592 -0.7147
13010SOL    HW140471   2.878   3.856   3.876 -0.1975  0.3473 -1.0663
13010SOL    HW240472   2.756   3.912   3.806 -0.0363  1.3275 -0.5728
13011SOL     OW40473   6.256   3.743  11.743 -0.4101 -0.7398 -0.5401
13011SOL    HW140474   6.237   3.836  11.731 -0.3673 -0.7319 -0.5476
13011SOL    HW240475   6.248   3.706  11.655 -2.4734 -1.1288 -0.2495
13012SOL     OW40476   5.133   2.589   3.782  0.2531 -0.2008 -0.2368
13012SOL    HW140477   5.217   2.547   3.767 -0.6796 -1.3637 -2.7092
13012SOL    HW240478   5.073   2.517   3.801 -0.2045  0.6375  1.8623
13013SOL     OW40479   6.384   0.202   6.099  0.6736  0.3562 -0.2180
13013SOL    HW140480   6.331   0.226   6.023 -0.7186  0.2276  0.6654
13013SOL    HW240481   6.371   0.275   6.160  3.2901  1.3905 -0.7735
13014SOL     OW40482   7.502   2.153   7.962 -0.0898  0.6065 -0.1622
13014SOL    HW140483   7.542   2.066   7.960  0.2097  0.6978  1.0084
13014SOL    HW240484   7.414   2.139   7.927 -0.0841 -0.1857  0.1105
13015SOL     OW40485   7.078   0.328   2.377  0.3270  0.1712  0.5724
13015SOL    HW140486   7.036   0.281   2.304  1.5033 -0.3608  0.2074
13015SOL    HW240487   7.075   0.267   2.450  0.5451  0.0872  0.5136
13016SOL     OW40488   0.448   2.093   3.472  0.2246 -0.1442 -0.5651
13016SOL    HW140489   0.536   2.054   3.478  1.5833  2.7146 -0.1832
13016SOL    HW240490   0.437   2.109   3.378  0.4870  0.2723 -0.5264
13017SOL     OW40491   6.995   7.266   8.212  0.2018 -0.3558 -0.4204
13017SOL    HW140492   6.970   7.177   8.188 -1.4607 -0.0655  0.1086
13017SOL    HW240493   6.942   7.322   8.155  2.6662  0.3604 -2.1625
13018SOL     OW40494   3.943   5.051   9.079 -0.0739  0.1619  0.0166
13018SOL    HW140495   3.948   5.096   8.995  0.4094  0.2858  0.1114
13018SOL    HW240496   4.024   5.075   9.125  0.5232 -1.3198 -0.1993
13019SOL     OW40497   4.979   7.772   1.247 -0.1746  0.8010 -0.9609
13019SOL    HW140498   4.973   7.861   1.281  2.1595  0.6234  0.1107
13019SOL    HW240499   4.923   7.720   1.304  0.8125  1.1245  0.3490
13020SOL     OW40500   3.132   5.714   6.977  0.2515 -0.0896 -0.0192
13020SOL    HW140501   3.166   5.629   6.949 -0.4921 -0.3802 -0.0566
13020SOL    HW240502   3.040   5.714   6.951  0.2088  0.6782  0.0939
13021SOL     OW40503   2.623   2.356   8.508  0.1804 -0.1636  0.1454
13021SOL    HW140504   2.568   2.390   8.438 -0.4657 -0.9987  0.2289
13021SOL    HW240505   2.682   2.294   8.465  0.1184 -0.3077  0.2673
13022SOL     OW40506   2.224   7.343  12.298 -0.3837  0.2469  0.3783
13022SOL    HW140507   2.302   7.394  12.321 -0.7537  1.5846 -1.1292
13022SOL    HW240508   2.247   7.301  12.215 -1.4635  1.2480 -0.4654
13023SOL     OW40509   6.516   4.104   6.092 -0.8791 -0.2421 -0.6533
13023SOL    HW140510   6.472   4.044   6.153 -2.8827  0.6253 -1.1786
13023SOL    HW240511   6.520   4.187   6.139 -1.3092  0.1150 -1.2464
13024SOL     OW40512   5.461   1.550   2.743  0.5352 -0.0015  0.0796
13024SOL    HW140513   5.455   1.600   2.824 -0.6233  0.6995 -0.4134
13024SOL    HW240514   5.466   1.617   2.674  1.1714 -0.5887 -0.4626
13025SOL     OW40515   7.574   5.228  11.077 -0.2373  0.4302 -0.0025
13025SOL    HW140516   7.511   5.279  11.026 -0.1582 -0.4140 -0.9783
13025SOL    HW240517   7.591   5.150  11.024  1.3761  0.4739  0.3787
13026SOL     OW40518   0.105   0.059  12.391  0.0452  0.2560 -0.0125
13026SOL    HW140519   0.163   0.012  12.331  0.4457  0.7006  0.0203
13026SOL    HW240520   0.136   0.034  12.478  0.0035  0.2672  0.0052
13027SOL     OW40521   3.873   6.612   4.997  0.4950  0.4906 -0.5273
13027SOL    HW140522   3.883   6.691   4.944  1.2098  0.6490 -0.1817
13027SOL    HW240523   3.779   6.594   4.997  0.2883  1.5036 -0.3846
13028SOL     OW40524   4.154   1.644   7.851  0.3372 -0.0201 -0.2634
13028SOL    HW140525   4.128   1.735   7.862  1.3678 -0.0279  4.6123
13028SOL    HW240526   4.249   1.644   7.860  0.5250 -1.5022 -1.6615
13029SOL     OW40527   5.683   0.384   9.828  0.1362  0.1675 -0.4997
13029SOL    HW140528   5.741   0.309   9.834 -1.0164 -1.0099 -2.7584
13029SOL    HW240529   5.600   0.354   9.864  0.1553  0.9724  0.2554
13030SOL     OW40530   3.497   7.286   7.892 -0.0422  0.0366  0.1942
13030SOL    HW140531   3.490   7.195   7.862  1.1849 -0.7198  2.0134
13030SOL    HW240532   3.409   7.321   7.881 -1.5688 -2.5177  2.7668
13031SOL     OW40533   5.070   6.609   8.732  0.0548 -0.2980 -0.1095
13031SOL    HW140534   4.979   6.587   8.717 -0.2823  1.6109 -1.2310
13031SOL    HW240535   5.116   6.574   8.656 -0.1484  0.8546 -0.7861
13032SOL     OW40536   3.262   5.683   2.341 -0.0080  0.7098 -0.3494
13032SOL    HW140537   3.235   5.722   2.424 -0.3448 -2.3554  1.1072
13032SOL    HW240538   3.355   5.662   2.353  0.3661  1.6997 -1.3875
13033SOL     OW40539   2.335   4.805   9.535  0.5432 -0.2936 -0.2193
13033SOL    HW140540   2.342   4.826   9.442  2.1743 -1.6152 -0.4443
13033SOL    HW240541   2.423   4.776   9.559 -0.2995 -1.7445  1.2893
13034SOL     OW40542   0.829   4.036   9.651  0.2099 -0.3320  0.2312
13034SOL    HW140543   0.865   4.091   9.720  1.1274  0.2909 -0.7218
13034SOL    HW240544   0.813   3.952   9.694 -1.4147  0.6876  1.7566
13035SOL     OW40545   5.585   6.294   8.906  0.3548 -0.4486 -0.1065
13035SOL    HW140546   5.566   6.294   8.812 -1.8982 -0.3054  0.2851
13035SOL    HW240547   5.569   6.203   8.933  1.6308 -0.6417  0.0543
13036SOL     OW40548   3.031   4.936   1.908  0.6226  0.4679  0.3402
13036SOL    HW140549   3.099   4.918   1.973  1.1049 -0.3365 -0.3695
13036SOL    HW240550   2.956   4.884   1.937  0.9143 -0.0743  0.1287
13037SOL     OW40551   7.264   7.643  10.584 -0.5280  0.0128  0.0040
13037SOL    HW140552   7.296   7.731  10.566  2.2525 -1.0856 -1.0669
13037SOL    HW240553   7.309   7.616  10.664  1.1702 -1.4631 -1.3549
13038SOL     OW40554   0.744   6.594   0.186  0.1153 -0.1456  0.0426
13038SOL    HW140555   0.662   6.569   0.144 -0.5151  2.2639 -0.3007
13038SOL    HW240556   0.812   6.549   0.135 -0.8932 -0.9158 -0.6501
13039SOL     OW40557   6.543   4.563   7.675  0.1368  0.4091  0.3429
13039SOL    HW140558   6.613   4.498   7.684  0.2775  0.7389  2.0182
13039SOL    HW240559   6.473   4.531   7.733 -0.7267  0.5761 -0.5792
13040SOL     OW40560   6.015   3.782   6.659  0.6060 -0.7428 -0.1503
13040SOL    HW140561   5.951   3.788   6.730  0.8297  1.3498 -0.0468
13040SOL    HW240562   5.975   3.724   6.594 -0.4365 -1.1609  0.8520
13041SOL     OW40563   0.276   6.692   3.583 -0.0157  0.0225  0.4129
13041SOL    HW140564   0.317   6.755   3.524  0.4755  0.5271  1.2799
13041SOL    HW240565   0.191   6.731   3.603 -0.9320 -0.9771 -1.3059
13042SOL     OW40566   0.303   6.185   7.406  0.2226  0.3956 -0.4678
13042SOL    HW140567   0.252   6.177   7.486 -0.0852 -3.3172 -0.8676
13042SOL    HW240568   0.250   6.243   7.350 -0.0256  2.2507  1.5817
13043SOL     OW40569   4.560   5.991   8.033  0.1548  0.0337  0.0275
13043SOL    HW140570   4.465   5.998   8.039 -0.0605  2.9253 -3.2418
13043SOL    HW240571   4.575   5.920   7.970  0.1731 -0.4358  0.5585
13044SOL     OW40572   6.235   0.902  10.540  0.1251 -0.3043  0.6169
13044SOL    HW140573   6.286   0.892  10.460 -0.2272  2.6403 -0.0964
13044SOL    HW240574   6.156   0.948  10.512 -0.7633 -0.6455  2.4271
13045SOL     OW40575   1.536   2.108   1.417 -0.3413  0.1837 -0.2492
13045SOL    HW140576   1.523   2.194   1.455  2.9672  0.8151 -0.2369
13045SOL    HW240577   1.511   2.047   1.486  1.3445  1.2567  1.4161
13046SOL     OW40578   4.087   3.877   0.819  0.3402 -0.5968  0.1671
13046SOL    HW140579   4.103   3.783   0.823 -0.4395 -0.7356  0.1860
13046SOL    HW240580   4.050   3.899   0.905 -1.1622 -0.6149 -0.4387
13047SOL     OW40581   0.841   0.220   3.477  0.2252 -0.2009 -0.3803
13047SOL    HW140582   0.910   0.274   3.438  0.5515 -0.5411 -0.2764
13047SOL    HW240583   0.778   0.284   3.511 -0.3522  0.1090 -1.9348
13048SOL     OW40584   0.371   5.397  10.655  0.1503 -0.2284  0.7709
13048SOL    HW140585   0.438   5.338  10.620 -1.7599 -2.5154  0.7377
13048SOL    HW240586   0.322   5.425  10.578 -0.0162  0.0616  0.9802
13049SOL     OW40587   0.183   0.087   4.004  0.2157 -0.6826  0.0742
13049SOL    HW140588   0.241   0.010   4.002  2.5174  0.9635 -0.2075
13049SOL    HW240589   0.148   0.088   4.093  0.9837 -1.4661  0.4014
13050SOL     OW40590   6.538   4.180   1.924  0.2453  0.2992 -0.1078
13050SOL    HW140591   6.493   4.194   1.841 -0.7328 -0.4067  0.2792
13050SOL    HW240592   6.585   4.098   1.913 -0.8437 -0.4211  0.4017
13051SOL     OW40593   4.983   1.352   9.807  0.4640  0.1041  0.3601
13051SOL    HW140594   4.997   1.315   9.894  3.0255  0.2072  0.0832
13051SOL    HW240595   4.914   1.298   9.768  0.5112 -1.0659  1.8214
13052SOL     OW40596   6.492   0.050   0.431 -0.3112 -0.0362  0.1204
13052SOL    HW140597   6.469  -0.035   0.470  0.0477 -0.8309 -1.3119
13052SOL    HW240598   6.426   0.064   0.364 -0.9785  1.3548  1.0365
13053SOL     OW40599   3.505   1.813   8.992  0.4749  0.4350 -0.2563
13053SOL    HW140600   3.420   1.851   8.971  1.3260  2.5449 -0.1148
13053SOL    HW240601   3.569   1.878   8.962  2.0980 -1.5120 -1.2346
13054SOL     OW40602   3.296   5.032   1.109  0.4517  0.4976 -0.1151
13054SOL    HW140603   3.341   5.115   1.127 -1.2186  1.3415  0.3964
13054SOL    HW240604   3.247   5.013   1.188  0.7503 -0.9868 -0.2531
13055SOL     OW40605   0.539   4.268   9.848  0.0898 -0.1179 -0.5282
13055SOL    HW140606   0.584   4.352   9.837 -1.1294  0.4406 -1.5699
13055SOL    HW240607   0.545   4.227   9.761  0.1250 -0.8372 -0.1923
13056SOL     OW40608   7.642   5.082   3.218  0.4706  0.3848  0.2635
13056SOL    HW140609   7.621   5.097   3.126  0.0999  1.2756  0.4826
13056SOL    HW240610   7.691   5.160   3.244 -0.7368  0.8599  1.2050
13057SOL     OW40611   5.935   5.253   9.078 -0.3013  0.0998 -0.4307
13057SOL    HW140612   6.017   5.221   9.041 -0.6075 -0.7267 -0.4074
13057SOL    HW240613   5.867   5.205   9.031 -0.7426  0.1129  0.1816
13058SOL     OW40614   2.774   6.097   5.661 -0.0530  0.2810 -0.0515
13058SOL    HW140615   2.769   6.181   5.616 -1.2757  0.2445 -0.0252
13058SOL    HW240616   2.725   6.037   5.606 -1.9287  0.3225  1.4576
13059SOL     OW40617   5.829   3.344  11.795 -0.1082  0.3758  0.7112
13059SOL    HW140618   5.735   3.360  11.787  0.0665  1.3233  0.3727
13059SOL    HW240619   5.866   3.430  11.816  0.8763  0.3719 -0.8421
13060SOL     OW40620   0.230   1.487   2.268 -0.3963  0.4295 -0.1108
13060SOL    HW140621   0.267   1.478   2.180 -1.1437  1.1211 -0.5081
13060SOL    HW240622   0.185   1.404   2.283  0.0818  0.1459 -0.2042
13061SOL     OW40623   7.631   7.647   6.168  0.2175  0.3776 -0.0305
13061SOL    HW140624   7.710   7.602   6.138  1.5543  2.4595  0.1732
13061SOL    HW240625   7.656   7.690   6.249 -1.5418  0.0050  0.7606
13062SOL     OW40626   6.063   3.138   4.969  0.1791  0.1725 -0.2243
13062SOL    HW140627   6.004   3.104   5.036  0.2651 -0.2827 -0.3769
13062SOL    HW240628   6.138   3.079   4.971  0.3337  0.3587 -0.4880
13063SOL     OW40629   6.716   5.768   2.758 -0.0925 -0.4257 -0.4918
13063SOL    HW140630   6.625   5.795   2.751 -0.0312 -0.5611 -2.1910
13063SOL    HW240631   6.712   5.678   2.792 -0.4884  0.1258  0.9794
13064SOL     OW40632   7.426   4.135   9.632  0.3345 -0.0622 -0.3082
13064SOL    HW140633   7.515   4.152   9.602 -0.1261  3.0509 -0.2003
13064SOL    HW240634   7.371   4.194   9.580 -1.3789 -0.1441  1.2970
13065SOL     OW40635   3.093   4.987   8.915  0.2637  0.0725  0.1859
13065SOL    HW140636   3.052   4.939   8.843  0.6544  0.4579 -0.2927
13065SOL    HW240637   3.024   4.994   8.981  0.3568 -1.6265  0.4982
13066SOL     OW40638   0.695   3.516   2.174 -0.0334  0.6154 -0.0645
13066SOL    HW140639   0.669   3.458   2.245 -0.2015  0.7889  0.0183
13066SOL    HW240640   0.724   3.596   2.218 -1.1896  1.1483 -0.2136
13067SOL     OW40641   2.186   3.431   4.432 -0.0368  0.1717 -0.9682
13067SOL    HW140642   2.260   3.409   4.375 -0.5414  0.1584 -1.6352
13067SOL    HW240643   2.223   3.490   4.498  0.6427 -0.1266 -1.0773
13068SOL     OW40644   6.726   0.662   9.135 -0.1211  0.7530  0.0488
13068SOL    HW140645   6.806   0.616   9.161 -1.2134 -0.4166  1.5257
13068SOL    HW240646   6.737   0.751   9.167  0.3207  0.4076  0.8879
13069SOL     OW40647   1.635   4.544   7.900 -0.6931 -0.0040  0.0348
13069SOL    HW140648   1.584   4.619   7.870  1.2755  1.5106  0.3035
13069SOL    HW240649   1.635   4.552   7.996  0.0862  0.0350  0.0308
13070SOL     OW40650   1.477   7.052  11.319  0.4288  0.1873  0.4772
13070SOL    HW140651   1.384   7.068  11.304  0.4637 -1.8591 -2.9874
13070SOL    HW240652   1.517   7.138  11.309 -0.7632  0.5383 -2.5310
13071SOL     OW40653   0.192   5.434   6.946  0.2279 -0.1999  0.1075
13071SOL    HW140654   0.218   5.361   7.003  0.9226  0.2355  0.3555
13071SOL    HW240655   0.097   5.425   6.939  0.4248 -1.9413 -0.9634
13072SOL     OW40656   1.483   5.033   2.354  0.0870  0.2247  0.5043
13072SOL    HW140657   1.472   4.942   2.328  0.0629 -0.3363  2.3049
13072SOL    HW240658   1.478   5.083   2.272 -1.5086 -1.2440 -0.3541
13073SOL     OW40659   5.094   4.317   7.444 -0.7348 -0.0520 -0.2091
13073SOL    HW140660   5.046   4.354   7.517 -0.1902  1.7666 -0.7325
13073SOL    HW240661   5.036   4.328   7.369 -1.9005 -3.1728  0.0695
13074SOL     OW40662   5.591   3.290   5.273 -0.2970  0.2131 -0.3066
13074SOL    HW140663   5.627   3.205   5.247 -0.5182  0.2225 -0.6467
13074SOL    HW240664   5.517   3.268   5.329 -0.1468  0.1881 -0.1142
13075SOL     OW40665   0.104   1.803   7.510  0.5838 -0.2114  0.6415
13075SOL    HW140666   0.133   1.824   7.599  4.4132  1.5345 -0.7861
13075SOL    HW240667   0.062   1.884   7.479  1.2172 -0.0434  0.2009
13076SOL     OW40668   2.397   6.981   9.932 -0.3126  0.2461 -0.2844
13076SOL    HW140669   2.480   6.933   9.934 -0.7660 -0.5585  0.2668
13076SOL    HW240670   2.334   6.919   9.968 -0.9389  1.2541  0.4100
13077SOL     OW40671   4.077   7.615  12.080 -0.4013  0.1300  0.2748
13077SOL    HW140672   4.125   7.682  12.032 -1.6516  0.6786 -0.2482
13077SOL    HW240673   4.014   7.580  12.016  1.5341 -3.0332 -0.1337
13078SOL     OW40674   4.134   5.495  11.140  0.2975  0.3344 -0.4819
13078SOL    HW140675   4.201   5.537  11.085  0.0463  0.5091 -0.6581
13078SOL    HW240676   4.071   5.460  11.078  1.5547 -2.2221 -0.4837
13079SOL     OW40677   4.394   4.307   1.230  0.1266  0.1487  0.7766
13079SOL    HW140678   4.445   4.364   1.287 -0.1464  0.5371  0.6413
13079SOL    HW240679   4.459   4.251   1.186  0.6894  2.0467 -0.9844
13080SOL     OW40680   4.861   6.241  12.324 -0.0976  0.4024 -0.0700
13080SOL    HW140681   4.773   6.210  12.303 -0.3046  0.4023  0.7477
13080SOL    HW240682   4.919   6.190  12.268 -0.6167  0.3729 -0.5855
13081SOL     OW40683   5.345   2.569   6.440 -0.0245 -0.1694 -0.1880
13081SOL    HW140684   5.344   2.595   6.532 -1.3776 -1.0540  0.0817
13081SOL    HW240685   5.435   2.583   6.412  0.2567  0.7800  1.0710
13082SOL     OW40686   7.805   0.407   0.687 -0.2543 -0.6672  0.7351
13082SOL    HW140687   7.725   0.387   0.735 -1.2505  1.0102 -0.1177
13082SOL    HW240688   7.788   0.492   0.646  1.9740 -0.2488  0.5197
13083SOL     OW40689   7.749   1.044   5.973  0.3972 -0.0148 -0.4734
13083SOL    HW140690   7.675   0.984   5.966  0.0885  0.3742 -0.6410
13083SOL    HW240691   7.725   1.118   5.916  0.7148  0.3179 -0.1850
13084SOL     OW40692   7.220   2.876  10.690 -0.0142  0.2814 -0.1711
13084SOL    HW140693   7.148   2.921  10.646  0.5114  1.1227 -0.2124
13084SOL    HW240694   7.235   2.927  10.769 -0.0910 -0.4581  0.3255
13085SOL     OW40695   2.150   7.813   1.129  0.3295  0.5652  0.3403
13085SOL    HW140696   2.121   7.848   1.044  1.2638  0.7705  0.0864
13085SOL    HW240697   2.094   7.857   1.193  0.3300  1.2338 -0.1013
13086SOL     OW40698   0.965   4.887  10.797 -0.3915  0.3300  0.3060
13086SOL    HW140699   1.037   4.921  10.851 -0.8559 -0.4061  1.4210
13086SOL    HW240700   0.984   4.793  10.790 -0.9239  0.2389  0.1010
13087SOL     OW40701   0.403   6.111   7.044 -0.1737  0.2122 -0.1983
13087SOL    HW140702   0.327   6.115   7.101  0.0725 -1.5367  0.3387
13087SOL    HW240703   0.402   6.021   7.009  1.3517  0.3022 -0.5517
13088SOL     OW40704   7.269   2.029   5.961 -0.1614 -0.2284  0.5757
13088SOL    HW140705   7.364   2.042   5.962  0.1935 -2.1696 -0.9548
13088SOL    HW240706   7.234   2.108   5.920  0.7400  0.6978  1.5692
13089SOL     OW40707   7.603   2.773   9.235  0.5809  0.2536 -0.0992
13089SOL    HW140708   7.654   2.789   9.314 -1.8974 -1.4843  2.0462
13089SOL    HW240709   7.566   2.859   9.212  0.5341  0.6261  1.2801
13090SOL     OW40710   6.628   1.630  11.099  0.3712 -0.0988  0.4541
13090SOL    HW140711   6.675   1.660  11.021  1.1626 -0.6109  0.7203
13090SOL    HW240712   6.626   1.706  11.157 -1.7604  0.8463 -0.7171
13091SOL     OW40713   4.683   4.857  10.598  0.2134 -0.5298 -0.5982
13091SOL    HW140714   4.623   4.870  10.672  0.1434  0.3362 -0.7965
13091SOL    HW240715   4.659   4.771  10.562  1.1151 -1.5999  1.1816
13092SOL     OW40716   2.674   4.760   1.278 -0.2007  0.0907 -0.3931
13092SOL    HW140717   2.591   4.745   1.324  0.8248 -0.9540  1.2171
13092SOL    HW240718   2.665   4.714   1.195 -1.1158 -0.2727 -0.0966
13093SOL     OW40719   2.203   1.779   2.193 -0.1472  0.3457  0.2314
13093SOL    HW140720   2.130   1.785   2.131 -0.4931 -1.3254  0.4159
13093SOL    HW240721   2.166   1.808   2.276 -0.1700  0.9219  0.0263
13094SOL     OW40722   2.578   4.247   5.495  0.3138 -0.6500 -0.2406
13094SOL    HW140723   2.610   4.170   5.447  0.3735 -0.6493 -0.2016
13094SOL    HW240724   2.606   4.322   5.441 -0.7087 -0.6995 -0.8562
13095SOL     OW40725   0.510   7.714   0.459  0.1781  0.0555  0.6061
13095SOL    HW140726   0.469   7.724   0.373  0.0902 -1.8165  0.3946
13095SOL    HW240727   0.597   7.752   0.448 -0.1494  0.6516 -0.0354
13096SOL     OW40728   5.406   6.190   2.255  0.0190  0.0325  0.3732
13096SOL    HW140729   5.339   6.215   2.191  0.5688 -2.6991 -1.4349
13096SOL    HW240730   5.489   6.216   2.215  0.3330 -1.1845  0.1877
13097SOL     OW40731   5.035   5.425   1.722  0.6306 -0.4036 -0.0450
13097SOL    HW140732   4.990   5.369   1.785  0.7420  0.7419  1.0952
13097SOL    HW240733   5.097   5.367   1.678  1.0504 -1.0940  1.4067
13098SOL     OW40734   1.185   0.130   2.889  0.1709 -0.2243 -0.3558
13098SOL    HW140735   1.157   0.142   2.980  1.5434  2.7103 -0.2022
13098SOL    HW240736   1.119   0.176   2.838  0.1233 -0.7160 -0.7404
13099SOL     OW40737   1.969   7.559   3.241  0.4757  0.1272 -0.3407
13099SOL    HW140738   1.897   7.498   3.230 -1.6813  2.3997  0.3557
13099SOL    HW240739   2.045   7.513   3.207 -1.5870 -1.7332 -2.7843
13100SOL     OW40740   0.998   6.971  10.588  0.0808  0.2635  0.0290
13100SOL    HW140741   1.091   6.990  10.593  0.2705 -0.8018  0.8559
13100SOL    HW240742   0.958   7.024  10.657  0.5168 -1.6624  1.8579
13101SOL     OW40743   1.767   0.683  12.114 -0.2676 -0.3805  0.1047
13101SOL    HW140744   1.809   0.608  12.074  0.1536 -0.2583  0.3082
13101SOL    HW240745   1.836   0.724  12.168 -0.3725  0.3749 -0.3159
13102SOL     OW40746   1.780   6.011   9.908  0.5322 -0.4292 -0.1444
13102SOL    HW140747   1.752   5.927   9.871 -1.3304  0.2675 -0.4046
13102SOL    HW240748   1.793   5.992  10.001 -0.0311 -0.9723 -0.1677
13103SOL     OW40749   2.860   7.054   3.750 -0.7657 -0.5382 -0.5784
13103SOL    HW140750   2.832   7.018   3.666  1.8808  0.5646 -2.0577
13103SOL    HW240751   2.927   6.993   3.780 -1.5330 -0.7959  0.6655
13104SOL     OW40752   7.398   6.027   9.830 -0.4188 -0.3281 -0.7439
13104SOL    HW140753   7.478   5.979   9.853 -0.4226 -0.1674 -0.3956
13104SOL    HW240754   7.340   5.960   9.792 -0.7024 -0.7457  0.3923
13105SOL     OW40755   3.594   3.420   7.543  0.2405 -0.2858  0.3256
13105SOL    HW140756   3.627   3.368   7.616 -0.5008 -0.7128  0.3658
13105SOL    HW240757   3.574   3.356   7.475  0.2798  0.0448  0.0004
13106SOL     OW40758   3.109   4.875   7.919 -0.8305 -0.1193 -0.2745
13106SOL    HW140759   3.194   4.878   7.876 -1.5167  0.8300 -1.6191
13106SOL    HW240760   3.102   4.959   7.965 -1.0223 -0.2132 -0.1296
13107SOL     OW40761   6.419   1.981  10.731 -0.0608  0.4570  0.3255
13107SOL    HW140762   6.324   1.978  10.720 -0.0950  1.6377  0.1779
13107SOL    HW240763   6.450   1.896  10.698 -0.8645  0.8798 -1.6642
13108SOL     OW40764   7.198   1.157   2.781  0.4830 -0.9483  0.1409
13108SOL    HW140765   7.166   1.226   2.839  0.7522 -0.4672 -0.2758
13108SOL    HW240766   7.175   1.187   2.694  2.5232 -0.3015 -0.2424
13109SOL     OW40767   4.866   4.884   5.600 -0.1981 -0.1449  0.3577
13109SOL    HW140768   4.840   4.825   5.529  0.2425 -0.9574  0.8620
13109SOL    HW240769   4.961   4.876   5.605 -0.3413 -1.2798  2.0309
13110SOL     OW40770   1.751   1.998   3.144 -0.2487 -0.1481 -0.2921
13110SOL    HW140771   1.669   1.995   3.095 -1.2054 -0.3194  1.2210
13110SOL    HW240772   1.753   1.915   3.192  1.2907 -0.5549 -1.0076
13111SOL     OW40773   3.820   7.774   7.406 -0.0502  0.0479 -0.0240
13111SOL    HW140774   3.818   7.758   7.312 -1.6229  0.1997 -0.0526
13111SOL    HW240775   3.897   7.829   7.420  0.0825  0.1932 -1.2470
13112SOL     OW40776   5.834   3.669   9.550  0.5157  0.2918 -0.1456
13112SOL    HW140777   5.869   3.590   9.508  0.0240 -0.4777  0.8402
13112SOL    HW240778   5.907   3.702   9.603  0.5733  0.2285 -0.1854
13113SOL     OW40779   0.416   3.150   1.575 -0.3331 -0.1950  0.3283
13113SOL    HW140780   0.505   3.176   1.554 -0.2474 -1.1279 -0.5377
13113SOL    HW240781   0.417   3.054   1.568 -0.8560 -0.4083  2.4538
13114SOL     OW40782   1.372   5.551   0.795 -0.7472  1.0818 -0.1297
13114SOL    HW140783   1.460   5.559   0.758  0.0363 -0.6247  1.1983
13114SOL    HW240784   1.322   5.504   0.728 -0.2214  0.7422 -0.2869
13115SOL     OW40785   2.551   6.305   9.530 -0.0893 -0.4016  0.3553
13115SOL    HW140786   2.551   6.331   9.622  0.7931 -0.7216  0.4508
13115SOL    HW240787   2.461   6.321   9.501  0.2034  2.1146  0.5874
13116SOL     OW40788   3.219   2.410  10.185  0.0142 -0.5032  0.4567
13116SOL    HW140789   3.271   2.476  10.231  1.1166 -1.4597  0.6312
13116SOL    HW240790   3.249   2.327  10.221  0.7624 -1.2814 -1.7984
13117SOL     OW40791   2.278   4.984   2.824 -0.0560  0.0165 -0.2619
13117SOL    HW140792   2.227   5.019   2.751 -0.8381 -0.3230  0.1068
13117SOL    HW240793   2.328   5.059   2.856 -0.3508  0.3690 -0.6115
13118SOL     OW40794   0.698   2.469   5.890 -0.5917  0.5263  0.2959
13118SOL    HW140795   0.702   2.563   5.905  1.1879  0.3855  0.9535
13118SOL    HW240796   0.634   2.436   5.953  0.6781  1.0082  1.9105
13119SOL     OW40797   1.036   0.912   3.046  0.0003 -0.4384 -0.2109
13119SOL    HW140798   1.119   0.922   3.092 -1.0912 -0.4585  1.8668
13119SOL    HW240799   1.031   0.819   3.025  0.3490 -0.4916 -0.0613
13120SOL     OW40800   2.629   6.652   7.420  0.1546 -0.6430  0.3388
13120SOL    HW140801   2.683   6.686   7.492  0.2964 -0.5508  0.1891
13120SOL    HW240802   2.627   6.557   7.434  0.2945 -0.6391  0.3834
13121SOL     OW40803   7.952   0.458   3.835  0.7593  0.0889 -0.7350
13121SOL    HW140804   8.036   0.428   3.870  0.8381  2.1814  1.0978
13121SOL    HW240805   7.968   0.548   3.806 -1.4080  1.6352  2.3398
13122SOL     OW40806   0.153   6.282   2.192  0.0402  0.0314  0.3101
13122SOL    HW140807   0.195   6.245   2.114 -0.2011  0.5515 -0.0767
13122SOL    HW240808   0.107   6.360   2.159  1.7331  1.5299  1.3121
13123SOL     OW40809   5.728   1.385   5.205  0.2275  0.3268 -0.0021
13123SOL    HW140810   5.697   1.414   5.290  2.0751 -0.1137  0.8718
13123SOL    HW240811   5.760   1.296   5.219  0.2519  0.1184 -1.2280
13124SOL     OW40812   0.152   2.567   3.679 -0.3329  0.3420  0.1907
13124SOL    HW140813   0.221   2.522   3.729 -0.7775  0.2125  0.7013
13124SOL    HW240814   0.196   2.644   3.642 -0.3209  1.2813  2.0251
13125SOL     OW40815   3.976   5.546   1.727 -0.6850  0.0502  0.5446
13125SOL    HW140816   4.015   5.527   1.642 -1.4282 -1.8443  0.5722
13125SOL    HW240817   4.045   5.589   1.777  0.5310 -0.9526 -0.2396
13126SOL     OW40818   1.436   2.720   6.322 -0.0778  0.7823  0.3138
13126SOL    HW140819   1.500   2.687   6.386  0.0196  0.2616 -0.0492
13126SOL    HW240820   1.477   2.800   6.287  0.8300 -0.0657 -0.6220
13127SOL     OW40821   7.241   2.929   9.210 -0.0956 -0.1488 -1.1050
13127SOL    HW140822   7.211   2.846   9.247  0.8916 -0.0186  0.0499
13127SOL    HW240823   7.166   2.962   9.160 -0.7986 -1.2943 -0.8412
13128SOL     OW40824   0.655   6.239   8.001 -0.5648 -0.1024  0.5267
13128SOL    HW140825   0.577   6.269   8.047 -3.1150 -3.4410 -1.2194
13128SOL    HW240826   0.649   6.278   7.914  1.2595  1.7117  1.1219
13129SOL     OW40827   0.318   3.944   1.455 -0.5346  0.0191 -0.5222
13129SOL    HW140828   0.261   3.901   1.391 -1.8470 -0.4909  0.9067
13129SOL    HW240829   0.317   4.036   1.430 -1.4468 -0.0958 -0.9516
13130SOL     OW40830   7.770   0.259   1.100 -0.4889  0.4376  0.4857
13130SOL    HW140831   7.834   0.224   1.162 -0.2181 -0.1860 -0.1338
13130SOL    HW240832   7.799   0.348   1.084  0.0748  0.2459  0.4172
13131SOL     OW40833   1.811   0.967   2.142 -0.9867  0.1253 -0.5244
13131SOL    HW140834   1.886   0.953   2.200  0.0024  0.6539 -1.6453
13131SOL    HW240835   1.764   0.883   2.143 -1.4589  0.3600  1.6446
13132SOL     OW40836   5.107   2.196   2.976 -0.2498  0.1056  0.0349
13132SOL    HW140837   5.028   2.207   3.030  0.3019  0.7408  0.7430
13132SOL    HW240838   5.075   2.160   2.893 -1.0549 -1.5795  1.0166
13133SOL     OW40839   2.046   7.669  10.991 -0.3140 -0.1298 -0.2045
13133SOL    HW140840   1.960   7.705  10.969 -1.2806 -2.7910 -1.3009
13133SOL    HW240841   2.044   7.580  10.955  2.4731 -0.7033  0.8052
13134SOL     OW40842   2.895   2.817   1.443  0.4904 -0.1063 -0.0525
13134SOL    HW140843   2.829   2.873   1.402  1.1231  0.5979 -0.1236
13134SOL    HW240844   2.877   2.730   1.408 -1.3525 -0.2303  1.0912
13135SOL     OW40845   0.783   2.152   6.145 -0.5395  0.2146 -0.2410
13135SOL    HW140846   0.836   2.109   6.079 -1.3019 -0.2409 -0.5710
13135SOL    HW240847   0.777   2.243   6.115 -1.1712 -0.0647 -1.0008
13136SOL     OW40848   1.232   5.518   5.203  0.0941  0.6804  0.7014
13136SOL    HW140849   1.314   5.516   5.252 -0.0902  0.2351  1.0008
13136SOL    HW240850   1.174   5.571   5.258 -0.6104 -1.1339  1.7917
13137SOL     OW40851   4.531   5.210   4.015  0.1516 -0.0753  0.3952
13137SOL    HW140852   4.597   5.240   3.952 -1.7244  1.1033 -1.1341
13137SOL    HW240853   4.508   5.289   4.064 -0.5377 -0.3366  0.4967
13138SOL     OW40854   4.483   1.279   1.378 -0.1700 -0.3162  0.5330
13138SOL    HW140855   4.482   1.346   1.446 -1.8188  1.2284 -0.9162
13138SOL    HW240856   4.573   1.246   1.377  0.3369  0.9067  2.1813
13139SOL     OW40857   5.006   0.369   8.840  0.0976 -0.4860 -0.1440
13139SOL    HW140858   4.922   0.415   8.844 -0.6501 -1.8953  2.4971
13139SOL    HW240859   4.991   0.295   8.782 -0.8472 -1.3054  1.1017
13140SOL     OW40860   7.178   0.251   4.224 -0.6790 -0.0793  0.0593
13140SOL    HW140861   7.170   0.195   4.301 -0.5909  0.5343  0.5182
13140SOL    HW240862   7.114   0.321   4.238  0.5715  1.0287  0.4493
13141SOL     OW40863   0.108   1.748  11.843 -1.0430  0.5868 -0.2239
13141SOL    HW140864   0.194   1.784  11.821  0.8390 -1.3343  3.0657
13141SOL    HW240865   0.045   1.812  11.810  1.7278  3.3455 -0.6035
13142SOL     OW40866   1.798   3.060   0.149 -0.3167  0.2431 -0.4425
13142SOL    HW140867   1.777   3.150   0.125  0.7693  0.6820  0.1699
13142SOL    HW240868   1.734   3.007   0.102 -0.5028  1.2825 -1.4099
13143SOL     OW40869   3.250   5.003   9.395  0.2850 -0.7700  0.0771
13143SOL    HW140870   3.300   4.923   9.385 -0.3019 -1.2316  0.7001
13143SOL    HW240871   3.293   5.067   9.337  1.0043 -1.4095 -0.1017
13144SOL     OW40872   6.799   5.270   5.731 -0.2009 -0.6292 -0.3544
13144SOL    HW140873   6.716   5.317   5.731  0.0006 -0.2159  0.8721
13144SOL    HW240874   6.801   5.222   5.649 -1.5217 -0.4078 -0.5246
13145SOL     OW40875   0.357   0.538   1.694 -0.1618 -0.0582  0.0308
13145SOL    HW140876   0.436   0.510   1.647  0.6172 -0.2792  1.4218
13145SOL    HW240877   0.346   0.472   1.763 -1.3337  0.2089  0.1192
13146SOL     OW40878   2.531   5.932   5.677  0.3173  0.1719  0.1941
13146SOL    HW140879   2.522   5.993   5.604 -0.7320 -0.0197  0.1485
13146SOL    HW240880   2.515   5.985   5.755  1.3087  0.3490  0.2889
13147SOL     OW40881   1.086   7.054  12.291 -0.3512  0.1975  0.2727
13147SOL    HW140882   1.156   7.119  12.291 -0.2309  0.0739 -0.1244
13147SOL    HW240883   1.105   6.999  12.214 -0.6602 -0.0761  0.3907
13148SOL     OW40884   6.571   6.323   4.808 -0.1913 -0.2966  0.1059
13148SOL    HW140885   6.649   6.370   4.779  0.6501 -1.0201  1.1136
13148SOL    HW240886   6.504   6.390   4.816  0.4925  0.4395 -0.1953
13149SOL     OW40887   3.085   4.543   5.338  0.2389 -0.3533 -0.4378
13149SOL    HW140888   3.155   4.605   5.363 -0.2037  0.2810 -0.7348
13149SOL    HW240889   3.032   4.533   5.417  0.3979 -0.4756 -0.3451
13150SOL     OW40890   6.485   7.717   1.314 -0.1001 -0.1988 -0.2146
13150SOL    HW140891   6.433   7.638   1.298  1.0141 -0.4441 -3.1067
13150SOL    HW240892   6.425   7.789   1.294 -0.3515 -0.3710 -0.0919
13151SOL     OW40893   3.282   5.019  10.290 -0.4036 -0.6002 -0.2293
13151SOL    HW140894   3.334   4.941  10.311  0.4558  0.0331  0.0363
13151SOL    HW240895   3.195   4.998  10.324  0.4000 -0.5005  2.0994
13152SOL     OW40896   1.224   7.802  10.861  0.2821 -0.3100  0.0033
13152SOL    HW140897   1.199   7.783  10.771  0.8037 -0.6548 -0.0720
13152SOL    HW240898   1.225   7.717  10.904  1.7836 -0.3718 -0.1156
13153SOL     OW40899   7.111   4.686   7.287 -0.1596  0.0594  0.2577
13153SOL    HW140900   7.139   4.732   7.208 -0.8285 -1.4702 -0.9214
13153SOL    HW240901   7.033   4.734   7.316  0.5379  1.0978  0.4609
13154SOL     OW40902   7.142   5.572   7.776 -0.4989  0.4222  0.0481
13154SOL    HW140903   7.152   5.478   7.793 -1.0631  0.0149 -1.6558
13154SOL    HW240904   7.102   5.607   7.855  1.6067 -0.3519  1.5660
13155SOL     OW40905   1.462   6.795   1.891 -0.3173 -0.0124  0.6597
13155SOL    HW140906   1.519   6.852   1.838  0.0789 -1.1559 -0.1805
13155SOL    HW240907   1.414   6.856   1.948 -2.7311  1.6792 -2.7645
13156SOL     OW40908   3.473   5.911   7.963  0.6957 -0.0440  0.2054
13156SOL    HW140909   3.479   5.936   7.871  2.4402 -1.0108  0.0059
13156SOL    HW240910   3.459   5.816   7.961  0.1294  0.0109  0.9457
13157SOL     OW40911   2.139   2.713   3.734  0.0335 -0.3206  0.0370
13157SOL    HW140912   2.159   2.798   3.696 -1.3545 -0.1772 -0.4239
13157SOL    HW240913   2.057   2.686   3.692  0.6195 -2.0554 -0.0990
13158SOL     OW40914   6.700   4.477   8.280  0.2209 -0.1140 -0.4038
13158SOL    HW140915   6.741   4.422   8.347 -1.6085 -0.4100  0.5367
13158SOL    HW240916   6.728   4.566   8.301  0.8819 -0.3714 -0.1753
13159SOL     OW40917   7.392   2.832   7.038  0.4275  0.0071 -0.5375
13159SOL    HW140918   7.325   2.796   6.980  0.9399  1.5354 -2.1805
13159SOL    HW240919   7.474   2.794   7.007  0.5764 -0.1657  0.0462
13160SOL     OW40920   2.760   3.609   4.512  0.1869 -0.1893  0.3456
13160SOL    HW140921   2.828   3.555   4.550  0.3836 -0.4467 -0.3586
13160SOL    HW240922   2.707   3.549   4.460  0.7981  0.3907 -0.9796
13161SOL     OW40923   1.504   1.383  10.885  0.0547  0.4606 -0.5113
13161SOL    HW140924   1.542   1.433  10.813  0.6838 -1.4537 -1.5668
13161SOL    HW240925   1.502   1.293  10.853 -3.5416  0.1246  0.2306
13162SOL     OW40926   2.701   6.758  12.150  0.2033 -0.7290 -0.1639
13162SOL    HW140927   2.678   6.701  12.224 -1.9568 -0.0096 -0.2051
13162SOL    HW240928   2.701   6.699  12.074  0.6631 -1.1539  0.1644
13163SOL     OW40929   7.438   4.620   2.128 -0.1950 -0.1473  0.2283
13163SOL    HW140930   7.366   4.564   2.100  0.8769 -0.8409 -1.3133
13163SOL    HW240931   7.499   4.619   2.054  2.0689 -0.7255  1.9976
13164SOL     OW40932   1.101   3.899   2.553  0.3208 -0.0528  0.0351
13164SOL    HW140933   1.020   3.909   2.504  0.0041 -2.2075  0.0110
13164SOL    HW240934   1.085   3.942   2.637 -1.1527 -1.0912  0.3300
13165SOL     OW40935   0.577   1.994   0.678 -0.4408 -0.0525  0.7290
13165SOL    HW140936   0.516   1.927   0.709  0.0390 -0.1878  1.3960
13165SOL    HW240937   0.649   1.944   0.638 -0.1122  0.0528  1.1716
13166SOL     OW40938   1.151   4.394   9.850  0.1660 -0.1812 -0.0010
13166SOL    HW140939   1.150   4.364   9.940  1.5723  0.6607  0.3325
13166SOL    HW240940   1.127   4.487   9.855 -0.1412 -0.2254 -0.5448
13167SOL     OW40941   5.072   1.597   0.167 -0.0979 -0.4870  0.3974
13167SOL    HW140942   5.150   1.638   0.205  0.1232 -0.9461  0.4519
13167SOL    HW240943   5.023   1.564   0.242 -0.4194 -0.0673  0.3704
13168SOL     OW40944   0.970   3.742   1.793 -0.0545 -0.5401 -0.0185
13168SOL    HW140945   1.025   3.670   1.824  2.2026 -0.2711 -3.0105
13168SOL    HW240946   1.001   3.818   1.842 -0.2726 -1.0022  0.8696
13169SOL     OW40947   6.828   1.015  10.863  0.0748 -0.0612  0.4811
13169SOL    HW140948   6.815   0.923  10.839  0.1547 -0.2983  1.2930
13169SOL    HW240949   6.897   1.046  10.805 -0.2402 -0.3949 -0.0777
13170SOL     OW40950   7.159   3.438   5.465  0.0234 -0.4498  0.4199
13170SOL    HW140951   7.167   3.400   5.377 -0.3001  2.9891 -1.2539
13170SOL    HW240952   7.249   3.458   5.491 -0.0410  0.9359 -0.3484
13171SOL     OW40953   5.242   7.614   8.290 -0.8627  0.3432  0.1978
13171SOL    HW140954   5.284   7.672   8.227 -0.3907  0.2805  0.4483
13171SOL    HW240955   5.295   7.535   8.288 -1.6374 -0.1778 -0.3117
13172SOL     OW40956   5.801   4.003   9.243  0.1201  0.1535  0.3116
13172SOL    HW140957   5.794   4.013   9.338  0.6943 -0.5549  0.4411
13172SOL    HW240958   5.776   3.912   9.227  1.1364 -0.0655 -0.0830
13173SOL     OW40959   7.390   3.885   4.432  0.1367 -0.4610 -0.3010
13173SOL    HW140960   7.392   3.943   4.356  1.3950  0.1276  0.1580
13173SOL    HW240961   7.300   3.851   4.434 -0.7550  1.7428 -0.3641
13174SOL     OW40962   7.267   0.137   1.621  0.3065 -0.0520 -0.3488
13174SOL    HW140963   7.174   0.132   1.600  0.2849  1.7705 -0.8214
13174SOL    HW240964   7.273   0.202   1.690  1.0788 -1.4316  0.9335
13175SOL     OW40965   2.795   6.583   7.186 -0.1971  0.3868  0.1026
13175SOL    HW140966   2.724   6.562   7.125 -1.4169 -1.6670  2.0364
13175SOL    HW240967   2.751   6.625   7.260  0.6106 -0.5371  1.1557
13176SOL     OW40968   0.605   4.038   6.861  0.7009 -0.3793  0.0219
13176SOL    HW140969   0.565   4.033   6.947 -1.8009  1.5896 -0.9058
13176SOL    HW240970   0.675   3.972   6.863 -0.3457 -1.5537  2.9375
13177SOL     OW40971   3.888   0.711   6.103 -0.2971 -0.0172  0.4472
13177SOL    HW140972   3.932   0.779   6.155  1.7766 -1.7689  1.1317
13177SOL    HW240973   3.960   0.663   6.062 -1.6656 -2.0850  0.3589
13178SOL     OW40974   2.065   4.935   0.764 -0.2901  0.6227  0.3129
13178SOL    HW140975   2.057   4.971   0.853 -0.7959 -0.2126  0.6152
13178SOL    HW240976   2.007   4.990   0.711  1.5317  2.4459  0.0447
13179SOL     OW40977   1.631   2.175  10.663 -0.1401  0.3215 -0.1052
13179SOL    HW140978   1.540   2.204  10.660 -0.3755 -0.3206  0.4929
13179SOL    HW240979   1.626   2.084  10.693  0.6675  0.1307 -0.5183
13180SOL     OW40980   3.552   6.278   3.270  0.1903  0.3707  0.5476
13180SOL    HW140981   3.623   6.338   3.247 -0.7375  1.0911 -0.5392
13180SOL    HW240982   3.554   6.212   3.201  1.0467 -0.7579  1.6037
13181SOL     OW40983   2.175   2.757   8.205 -0.0760 -0.0145  0.2656
13181SOL    HW140984   2.206   2.675   8.167  1.5071  0.5313  0.2830
13181SOL    HW240985   2.170   2.817   8.130 -2.1022 -0.3234  0.0956
13182SOL     OW40986   0.569   7.419  11.865 -0.2051 -0.0302 -0.5631
13182SOL    HW140987   0.490   7.444  11.817 -2.2054 -0.2812  2.3465
13182SOL    HW240988   0.594   7.334  11.829 -0.1923  0.8103 -2.6723
13183SOL     OW40989   2.498   0.553  11.371 -0.3296  0.3100  0.0844
13183SOL    HW140990   2.449   0.562  11.289  1.4609 -0.8332 -1.1761
13183SOL    HW240991   2.436   0.512  11.431 -1.2077 -0.2835 -1.1801
13184SOL     OW40992   6.823   7.127  10.828  0.3104  0.4200  0.0489
13184SOL    HW140993   6.854   7.086  10.746  1.1029  0.5736  0.2686
13184SOL    HW240994   6.754   7.068  10.859  0.7284 -0.2050 -0.1862
13185SOL     OW40995   0.509   4.419   3.909  0.7585  0.3726  0.1505
13185SOL    HW140996   0.495   4.343   3.853 -1.4250  0.5744  0.3055
13185SOL    HW240997   0.539   4.488   3.849 -0.9800  0.4215 -0.7437
13186SOL     OW40998   7.870   4.775   8.737  0.0423 -0.3059 -0.1319
13186SOL    HW140999   7.928   4.699   8.749 -0.1087 -0.4290 -0.1696
13186SOL    HW241000   7.927   4.851   8.747 -0.0531 -0.3958  1.2781
13187SOL     OW41001   2.424   6.501   0.763 -0.3993 -0.1705  0.2220
13187SOL    HW141002   2.516   6.526   0.777 -0.9088  1.7508  0.4511
13187SOL    HW241003   2.426   6.406   0.755  1.9864 -0.0281 -2.4827
13188SOL     OW41004   4.488   6.898   8.063 -0.0491 -0.5517  0.2711
13188SOL    HW141005   4.473   6.933   7.975 -1.1493 -2.3999 -0.3411
13188SOL    HW241006   4.401   6.874   8.094  0.5132 -1.6441  1.0926
13189SOL     OW41007   5.335   0.451   5.860  0.2518  0.6722  0.1444
13189SOL    HW141008   5.267   0.515   5.839 -0.2508  0.1760  0.2259
13189SOL    HW241009   5.332   0.443   5.955  2.1449  2.4973  0.4291
13190SOL     OW41010   4.594   6.961   2.704  0.0191  0.0881  0.4294
13190SOL    HW141011   4.587   6.900   2.631  0.1940 -0.6830  1.0507
13190SOL    HW241012   4.546   7.039   2.674  0.7507  0.0943 -0.8148
13191SOL     OW41013   5.776   6.910   2.061 -0.3100 -0.0407 -0.3716
13191SOL    HW141014   5.776   7.000   2.027 -0.0318 -0.4024 -1.3236
13191SOL    HW241015   5.706   6.866   2.013 -1.0826 -0.1051  0.7530
13192SOL     OW41016   4.089   1.751   4.336 -0.4597 -0.1247  0.8189
13192SOL    HW141017   4.163   1.762   4.277 -0.6797  0.2782  0.6126
13192SOL    HW241018   4.012   1.752   4.278 -0.5414 -2.4502  0.7860
13193SOL     OW41019   4.212   4.884  11.087  0.0362 -0.2534  0.3415
13193SOL    HW141020   4.221   4.967  11.133  2.4657  0.1060 -0.6092
13193SOL    HW241021   4.144   4.837  11.134  1.0473  0.8577  3.0947
13194SOL     OW41022   5.410   1.301  11.510 -0.5304  0.0685 -0.4991
13194SOL    HW141023   5.330   1.251  11.491 -1.9239  1.5322  1.0843
13194SOL    HW241024   5.378   1.390  11.524  1.5503  0.8947 -0.7747
13195SOL     OW41025   4.412   2.910   1.962 -0.2406 -0.7007 -0.0601
13195SOL    HW141026   4.345   2.869   1.906  0.8132 -0.5225 -1.5160
13195SOL    HW241027   4.485   2.927   1.903 -0.2507  2.4477  0.6603
13196SOL     OW41028   2.049   4.320   6.903 -0.2877 -0.4818 -0.3594
13196SOL    HW141029   2.008   4.406   6.898 -0.7230 -0.4937  1.9857
13196SOL    HW241030   2.142   4.337   6.885 -0.5871  0.2308 -1.3132
13197SOL     OW41031   6.653   3.662   4.529 -0.1141  0.3396  0.0106
13197SOL    HW141032   6.687   3.751   4.530 -0.0744  0.3243  0.0331
13197SOL    HW241033   6.730   3.607   4.544 -0.2210  0.3281  0.5060
13198SOL     OW41034   5.483   4.416  12.044  0.3896 -0.5040 -0.2353
13198SOL    HW141035   5.513   4.413  12.135 -1.0648  0.6958  0.3275
13198SOL    HW241036   5.545   4.474  12.000 -1.4797  2.8333  1.1614
13199SOL     OW41037   0.574   2.261   3.934  0.4028  0.2494  0.3776
13199SOL    HW141038   0.554   2.340   3.985 -1.3865  1.6586 -2.2840
13199SOL    HW241039   0.614   2.294   3.853  0.0265 -1.5901 -0.6160
13200SOL     OW41040   5.697   3.784   6.167  0.9582 -0.4378  0.3472
13200SOL    HW141041   5.670   3.854   6.108  0.6775  0.6214  1.6811
13200SOL    HW241042   5.616   3.757   6.212  0.9250 -2.1437 -0.6539
13201SOL     OW41043   3.104   5.932   6.648  0.3377  0.2818  0.4770
13201SOL    HW141044   3.128   6.001   6.710 -1.0348 -0.2070  1.6023
13201SOL    HW241045   3.040   5.973   6.590 -0.0301  0.1167  0.7681
13202SOL     OW41046   5.395   4.961   5.160 -0.0589 -0.3582 -0.4498
13202SOL    HW141047   5.312   4.916   5.178 -0.5927  1.2385  1.5142
13202SOL    HW241048   5.376   5.054   5.174  2.2448 -0.0092  1.0629
13203SOL     OW41049   0.191   0.917   5.721  0.3252  0.1429  0.0054
13203SOL    HW141050   0.176   0.955   5.634  2.4631 -1.0409 -0.9723
13203SOL    HW241051   0.108   0.875   5.744 -0.1362  0.0481 -1.7201
13204SOL     OW41052   2.803   5.140  11.952  0.1830 -0.0611 -0.7664
13204SOL    HW141053   2.811   5.225  11.995 -0.7029  0.2438 -1.1780
13204SOL    HW241054   2.765   5.083  12.019 -0.2389  0.1525 -0.8177
13205SOL     OW41055   2.033   5.174   2.810 -0.0253  0.1625  0.5608
13205SOL    HW141056   2.093   5.177   2.736 -2.1896 -0.1688 -1.3398
13205SOL    HW241057   1.992   5.087   2.804  0.4099 -0.2752  2.7915
13206SOL     OW41058   1.255   1.973   9.884 -0.2904  0.3674  0.0322
13206SOL    HW141059   1.249   2.033   9.959  1.2526  1.6585 -0.8148
13206SOL    HW241060   1.175   1.988   9.834 -0.4715  0.8514  0.4593
13207SOL     OW41061   1.718   2.899   0.722 -0.4318  0.6631  0.1974
13207SOL    HW141062   1.661   2.822   0.718 -0.2622  0.5934 -1.8362
13207SOL    HW241063   1.739   2.909   0.815 -0.4275 -1.7614  0.5042
13208SOL     OW41064   2.750   7.637   9.174  0.3102  0.1091  0.5664
13208SOL    HW141065   2.803   7.650   9.095 -0.0171  2.3717  0.6692
13208SOL    HW241066   2.672   7.590   9.143  1.4099 -1.4753  0.0736
13209SOL     OW41067   5.194   0.968   6.069 -0.2369 -0.2960 -0.1779
13209SOL    HW141068   5.175   1.035   6.134 -0.4508  1.4885 -1.9901
13209SOL    HW241069   5.176   0.885   6.114 -1.0437  0.8859  1.7847
13210SOL     OW41070   0.780   3.577   2.975  0.2062 -0.1502 -0.2441
13210SOL    HW141071   0.685   3.584   2.967  0.3032  0.2897 -1.1059
13210SOL    HW241072   0.809   3.667   2.993  0.3345 -0.5210  1.5345
13211SOL     OW41073   2.723   2.032  12.359  0.8106 -0.2967  0.1421
13211SOL    HW141074   2.769   2.090  12.419 -0.4591  1.6177 -0.6258
13211SOL    HW241075   2.649   1.998  12.409 -0.5600  1.7267 -0.4159
13212SOL     OW41076   6.820   1.487  10.852  0.8764 -0.0846 -0.1031
13212SOL    HW141077   6.863   1.550  10.910  1.1586 -0.1114 -0.2777
13212SOL    HW241078   6.799   1.537  10.773  2.3220 -0.4978 -0.7958
13213SOL     OW41079   5.845   5.997   9.603 -0.2746  0.4886 -0.3455
13213SOL    HW141080   5.770   5.956   9.561 -0.6341 -0.1677  0.8926
13213SOL    HW241081   5.811   6.082   9.634  0.1901  1.3072 -1.9832
13214SOL     OW41082   1.036   5.945   7.101  0.1031  0.9116 -0.0146
13214SOL    HW141083   1.088   5.934   7.181  0.1316  0.8793 -0.0376
13214SOL    HW241084   1.099   5.973   7.035  0.6200 -1.6800 -0.7345
13215SOL     OW41085   6.909   5.292   6.650 -0.3303 -0.0267 -0.1902
13215SOL    HW141086   6.823   5.262   6.620 -0.1831 -1.6552  0.8674
13215SOL    HW241087   6.889   5.364   6.709 -0.9987 -0.4363  0.1037
13216SOL     OW41088   2.523   5.376   9.071  0.3703 -0.4598 -0.5724
13216SOL    HW141089   2.510   5.467   9.043  0.0761 -0.9869 -2.2585
13216SOL    HW241090   2.443   5.354   9.117  1.4673  0.9066  2.2041
13217SOL     OW41091   6.389   0.459   4.138  0.0013 -0.0076 -0.1408
13217SOL    HW141092   6.303   0.430   4.169  0.8161 -2.9440 -0.2834
13217SOL    HW241093   6.412   0.532   4.194 -1.2428 -1.1993  2.0358
13218SOL     OW41094   0.054   5.031   2.279 -0.1402 -0.2164 -0.0722
13218SOL    HW141095  -0.006   5.105   2.287 -0.7228 -0.8494  2.4316
13218SOL    HW241096   0.003   4.963   2.236 -0.3139  0.1223 -0.4111
13219SOL     OW41097   6.053   3.771   2.869 -0.5218  0.4626  0.2895
13219SOL    HW141098   6.148   3.776   2.885 -0.3955  0.2849 -0.3888
13219SOL    HW241099   6.016   3.839   2.925  0.1080  1.2842 -0.2754
13220SOL     OW41100   0.724   2.717   7.337  0.0998 -0.0016  0.2627
13220SOL    HW141101   0.653   2.771   7.303 -0.7066  0.3571  2.3242
13220SOL    HW241102   0.775   2.777   7.392  0.2630 -0.8995  1.1356
13221SOL     OW41103   1.792   0.100   8.379 -0.4776 -0.1797 -0.1772
13221SOL    HW141104   1.853   0.064   8.314  0.1110 -0.9856  0.7909
13221SOL    HW241105   1.721   0.138   8.327  0.5478  0.2498 -1.3235
13222SOL     OW41106   6.159   3.615   3.840  0.2882  0.0366 -0.0330
13222SOL    HW141107   6.214   3.602   3.917 -1.1724  0.5478  1.1497
13222SOL    HW241108   6.207   3.677   3.786  0.6026  0.9836  1.2733
13223SOL     OW41109   0.734   7.124   9.375  0.2866 -0.1791  0.0055
13223SOL    HW141110   0.752   7.068   9.451  0.1725 -0.3892 -0.1211
13223SOL    HW241111   0.685   7.198   9.411 -0.4679 -0.6713  0.0204
13224SOL     OW41112   5.099   1.785  12.313  0.5170 -0.0227 -0.3638
13224SOL    HW141113   5.070   1.694  12.315 -0.6645  0.3349  0.0883
13224SOL    HW241114   5.036   1.829  12.256  1.0941  0.5019 -0.6052
13225SOL     OW41115   7.931   0.277  12.281 -0.2724 -0.1294  0.0036
13225SOL    HW141116   7.989   0.343  12.318 -0.4124  0.8299 -1.3753
13225SOL    HW241117   7.961   0.194  12.316  0.4400  0.5948  1.1320
13226SOL     OW41118   6.201   2.977   3.628 -0.1149 -0.0720 -0.6091
13226SOL    HW141119   6.266   3.008   3.565  1.3015  1.0349  1.2790
13226SOL    HW241120   6.250   2.965   3.709 -1.7734 -1.9129  0.1879
13227SOL     OW41121   1.055   5.356   3.747  0.3894  0.3220 -0.0011
13227SOL    HW141122   0.965   5.334   3.723  0.4071  0.0285  0.1947
13227SOL    HW241123   1.075   5.297   3.820  1.4364 -1.0317 -1.3112
13228SOL     OW41124   0.526   0.268   1.630 -0.1290 -0.1591 -0.1673
13228SOL    HW141125   0.444   0.252   1.584 -1.1340  1.9196  0.7635
13228SOL    HW241126   0.550   0.183   1.667 -2.5487 -0.5694  0.6019
13229SOL     OW41127   2.033   4.099   5.273  0.0207  0.3513  0.3181
13229SOL    HW141128   1.967   4.136   5.215 -0.3017 -1.2409 -0.3978
13229SOL    HW241129   2.114   4.144   5.249 -0.4210  0.8750 -0.2242
13230SOL     OW41130   6.823   7.767   6.445 -0.4140  0.1062 -0.0427
13230SOL    HW141131   6.850   7.722   6.525 -0.1872  1.1081  0.4574
13230SOL    HW241132   6.885   7.839   6.436 -0.3497 -0.0706 -1.2099
13231SOL     OW41133   0.015   6.874   0.231  0.0577  0.5880 -0.0291
13231SOL    HW141134   0.070   6.887   0.308 -1.0095 -0.9374  1.0652
13231SOL    HW241135  -0.068   6.916   0.254 -1.0362 -1.7731  0.6779
13232SOL     OW41136   3.444   3.802   7.795  0.4658  0.3925  0.5075
13232SOL    HW141137   3.405   3.869   7.739  0.0118 -0.0814  0.2488
13232SOL    HW241138   3.373   3.742   7.814  1.1848 -0.8172 -0.4525
13233SOL     OW41139   5.920   7.388  10.972 -0.1175  0.0005 -0.1755
13233SOL    HW141140   5.841   7.393  11.025  0.2955  2.0934  0.3209
13233SOL    HW241141   5.903   7.445  10.897  0.0753 -1.3467 -1.2889
13234SOL     OW41142   6.656   2.509  11.386  0.0796  0.3522 -0.0282
13234SOL    HW141143   6.671   2.536  11.296  0.1538  0.1682 -0.0707
13234SOL    HW241144   6.576   2.456  11.382  0.0521  0.3903  0.0214
13235SOL     OW41145   3.053   1.024  10.401 -0.5263 -0.2194  0.6894
13235SOL    HW141146   2.990   0.953  10.390  1.7531 -2.4259  0.9614
13235SOL    HW241147   3.033   1.061  10.487  0.2696 -2.8375  2.1164
13236SOL     OW41148   4.228   3.723   0.507 -0.1341  0.1250  0.3437
13236SOL    HW141149   4.300   3.768   0.464 -2.1855  2.6148 -0.7212
13236SOL    HW241150   4.174   3.690   0.436 -0.3254 -1.2995  1.1114
13237SOL     OW41151   3.728   6.813   2.007  0.3410 -0.0945 -0.3324
13237SOL    HW141152   3.659   6.768   1.959  1.4417 -1.3634 -0.7747
13237SOL    HW241153   3.755   6.751   2.075  0.1861  0.8923  0.6802
13238SOL     OW41154   3.271   6.041   0.915  0.0137 -0.5871 -0.0472
13238SOL    HW141155   3.307   6.098   0.983  0.9801 -0.1312 -0.9222
13238SOL    HW241156   3.243   6.100   0.845 -0.0827 -1.1079 -0.4562
13239SOL     OW41157   0.307   0.663   3.867 -0.3641  0.2932  0.2755
13239SOL    HW141158   0.230   0.687   3.918 -0.2462  1.2094  0.0420
13239SOL    HW241159   0.335   0.580   3.904 -3.0177 -1.4650 -1.3540
13240SOL     OW41160   5.568   3.419   1.842  0.5823  0.1230  0.0664
13240SOL    HW141161   5.508   3.392   1.912 -0.8607 -2.3308 -1.9363
13240SOL    HW241162   5.529   3.499   1.807 -0.4353 -0.3254  0.1224
13241SOL     OW41163   2.922   7.145  10.152  0.0437  0.4660 -0.6440
13241SOL    HW141164   2.980   7.068  10.151 -0.4286  0.0538  0.9958
13241SOL    HW241165   2.842   7.115  10.195 -0.9835  1.3288 -1.8799
13242SOL     OW41166   7.754   3.802   0.984 -0.1730 -0.8143  0.0248
13242SOL    HW141167   7.742   3.834   0.894 -0.6422  0.2998  0.4631
13242SOL    HW241168   7.701   3.723   0.989 -0.3238 -0.7582 -0.6206
13243SOL     OW41169   1.534   2.364   1.550  0.2185 -0.1529  0.1172
13243SOL    HW141170   1.452   2.367   1.600  0.2679 -1.1725  0.2668
13243SOL    HW241171   1.584   2.439   1.584 -1.1237  1.2538 -0.8497
13244SOL     OW41172   0.986   7.479   4.412  0.6278 -0.3503  0.0942
13244SOL    HW141173   0.981   7.572   4.435  1.7432  0.1474 -1.4740
13244SOL    HW241174   1.079   7.464   4.393  1.0849 -2.5777  3.1849
13245SOL     OW41175   6.679   1.251  10.929  0.0787  0.0070  0.0463
13245SOL    HW141176   6.708   1.328  10.880 -0.5800 -1.7965 -3.4767
13245SOL    HW241177   6.749   1.188  10.919 -0.1370 -0.4928  1.4377
13246SOL     OW41178   4.021   4.933   4.715  0.1576  0.2431  0.1699
13246SOL    HW141179   3.956   4.915   4.782 -2.2438  2.5214 -1.3943
13246SOL    HW241180   4.039   4.847   4.676 -1.4825 -0.5353  1.0219
13247SOL     OW41181   7.678   6.321   1.437  0.1029  0.0981  0.3722
13247SOL    HW141182   7.748   6.302   1.499  1.0757  0.4973 -0.5807
13247SOL    HW241183   7.711   6.290   1.353 -0.5583  0.9705 -0.2236
13248SOL     OW41184   1.473   3.746   7.953 -0.3958 -0.1715 -0.5082
13248SOL    HW141185   1.511   3.833   7.944 -0.5743  0.0996  1.1224
13248SOL    HW241186   1.522   3.705   8.023 -0.4335 -1.3361 -1.1336
13249SOL     OW41187   1.612   2.314   3.550  0.1148 -0.5592 -0.0228
13249SOL    HW141188   1.529   2.336   3.593 -0.7372  0.3531 -2.0204
13249SOL    HW241189   1.586   2.265   3.472  1.5896 -1.6447  0.1249
13250SOL     OW41190   2.056   1.594  11.363  0.6895  0.3719  0.4438
13250SOL    HW141191   2.129   1.533  11.356  0.6587  0.1967  1.5039
13250SOL    HW241192   2.014   1.592  11.277  0.6847 -1.1130  0.4623
13251SOL     OW41193   7.132   2.273   3.966  0.1087 -0.9037 -0.8509
13251SOL    HW141194   7.180   2.346   4.005  1.0438 -1.7094 -0.4668
13251SOL    HW241195   7.050   2.312   3.936  0.1305  0.0960  0.3199
13252SOL     OW41196   3.781   4.012   0.893 -0.5945  0.2522 -0.0881
13252SOL    HW141197   3.694   4.050   0.905 -0.2386  0.3968  2.6532
13252SOL    HW241198   3.841   4.076   0.931  0.4987 -0.7990  0.0262
13253SOL     OW41199   6.649   7.684   0.396  0.0873  0.3847  0.1398
13253SOL    HW141200   6.720   7.739   0.429 -0.3152  1.6060 -0.9092
13253SOL    HW241201   6.569   7.732   0.420 -0.3101 -0.2214  0.0328
13254SOL     OW41202   5.346   7.317   5.278  0.0059 -0.4125  0.2796
13254SOL    HW141203   5.314   7.330   5.188 -1.4048 -0.1132  0.7925
13254SOL    HW241204   5.315   7.394   5.325  0.7310 -0.5746  1.0375
13255SOL     OW41205   7.233   6.527  11.961  0.1618  0.2449 -0.0946
13255SOL    HW141206   7.273   6.509  12.046 -0.4869 -0.2616  0.1158
13255SOL    HW241207   7.205   6.618  11.968 -0.7366 -0.0609  0.6087
13256SOL     OW41208   4.156   4.639  10.315  0.3917  0.5777  0.1604
13256SOL    HW141209   4.130   4.624  10.406 -1.7195  0.6061 -0.3984
13256SOL    HW241210   4.178   4.732  10.311 -3.4903  1.6601 -0.1558
13257SOL     OW41211   4.063   7.962  10.807  0.1637 -0.1136  0.4765
13257SOL    HW141212   4.032   7.881  10.847 -0.9001 -0.4043 -0.8917
13257SOL    HW241213   4.158   7.952  10.805  0.0298 -1.5844 -0.1601
13258SOL     OW41214   7.200   4.996   6.106  0.0869  0.0816  0.4182
13258SOL    HW141215   7.147   5.029   6.034 -1.4430  1.3282  2.0328
13258SOL    HW241216   7.268   4.943   6.063 -1.7666 -0.6840 -1.8143
13259SOL     OW41217   7.877   7.065  10.086  1.1952 -0.1516  0.0137
13259SOL    HW141218   7.827   7.088  10.008 -2.3407  1.3046  2.4342
13259SOL    HW241219   7.950   7.126  10.086  0.4928  0.7567 -1.4683
13260SOL     OW41220   3.591   4.656  12.112 -0.4179  0.1346 -0.5068
13260SOL    HW141221   3.612   4.565  12.093 -1.7448 -0.2060 -0.4234
13260SOL    HW241222   3.616   4.668  12.204  0.8007  0.1891 -0.8319
13261SOL     OW41223   2.050   5.285   0.666 -0.2179 -0.2174  0.2670
13261SOL    HW141224   1.963   5.253   0.643 -1.0101  1.6032  0.5133
13261SOL    HW241225   2.109   5.213   0.645 -1.5934 -0.8997 -1.5228
13262SOL     OW41226   1.000   7.851   8.784 -0.6306  0.1351  0.4354
13262SOL    HW141227   0.927   7.855   8.845 -0.1472  0.9711  0.9773
13262SOL    HW241228   0.983   7.922   8.722 -1.5474 -1.2047 -0.9375
13263SOL     OW41229   6.245   1.698   8.862 -0.0831  0.2425 -0.3409
13263SOL    HW141230   6.318   1.677   8.921 -0.2751  0.0134 -0.1847
13263SOL    HW241231   6.285   1.698   8.775  0.4350  1.6403 -0.1389
13264SOL     OW41232   0.814   6.375   9.427  0.1221 -0.1479  0.0533
13264SOL    HW141233   0.862   6.334   9.355 -0.0646 -0.6472  0.2102
13264SOL    HW241234   0.739   6.417   9.385  1.1342  1.3911 -0.3109
13265SOL     OW41235   6.664   5.385  12.423 -0.8541 -0.1565  0.3975
13265SOL    HW141236   6.578   5.345  12.435 -0.7226  0.0995  2.5421
13265SOL    HW241237   6.667   5.408  12.330 -2.4597 -1.5927 -0.0657
13266SOL     OW41238   6.972   6.129   3.609  0.0077 -0.1094 -0.4232
13266SOL    HW141239   7.042   6.083   3.655  0.0527 -0.0897 -0.4726
13266SOL    HW241240   6.931   6.063   3.553 -0.5701 -0.3336  0.2446
13267SOL     OW41241   5.044   5.340  11.325  0.3916 -0.5035 -0.0764
13267SOL    HW141242   5.068   5.304  11.240 -1.3975 -0.7915 -0.5179
13267SOL    HW241243   5.081   5.428  11.326  0.0011 -0.3007 -1.4000
13268SOL     OW41244   1.245   4.566   3.505 -0.3895 -0.7677 -0.2113
13268SOL    HW141245   1.319   4.508   3.487 -0.8574 -0.8251 -2.1159
13268SOL    HW241246   1.177   4.509   3.541  0.2448 -0.8190  0.9485
13269SOL     OW41247   4.912   6.225   6.001 -0.0141  0.7607  0.5891
13269SOL    HW141248   5.008   6.222   5.993  0.0455  0.0653  1.4082
13269SOL    HW241249   4.896   6.297   6.061 -0.1899  2.7119 -1.6531
13270SOL     OW41250   6.029   0.288   8.077 -0.0399  0.4226 -0.3339
13270SOL    HW141251   6.064   0.376   8.090 -1.9558  1.0175  1.2797
13270SOL    HW241252   6.012   0.282   7.983  0.5733  1.5784 -0.5337
13271SOL     OW41253   0.474   7.838  10.797  0.5502 -0.8928  0.0708
13271SOL    HW141254   0.430   7.910  10.752  1.8491 -0.3872 -0.4369
13271SOL    HW241255   0.459   7.855  10.890  1.6550  0.6036  0.0108
13272SOL     OW41256   1.410   2.408   0.458  0.2119  0.2321 -0.5003
13272SOL    HW141257   1.395   2.340   0.392 -1.7821 -0.4791  0.6012
13272SOL    HW241258   1.344   2.475   0.440 -1.5290 -0.7590  1.6761
13273SOL     OW41259   4.056   4.251  10.637  0.0731 -0.9125  0.1176
13273SOL    HW141260   4.012   4.216  10.560 -0.3415  3.6151 -1.9890
13273SOL    HW241261   3.992   4.311  10.676  2.0532  0.8277  0.8539
13274SOL     OW41262   1.852   4.594   4.516 -0.6186  0.1670  0.0033
13274SOL    HW141263   1.857   4.582   4.421  0.0375  3.5050 -0.4995
13274SOL    HW241264   1.935   4.558   4.549 -1.2847 -1.9660 -0.4627
13275SOL     OW41265   1.175   6.269  10.597  0.1186  0.6997  0.4066
13275SOL    HW141266   1.205   6.230  10.680 -1.2740  0.2392  0.7287
13275SOL    HW241267   1.252   6.266  10.540  0.7621 -0.1416  1.2779
13276SOL     OW41268   5.935   1.120   8.639  0.2080 -0.9513  0.1091
13276SOL    HW141269   5.911   1.072   8.559  0.7583 -2.6248  0.8981
13276SOL    HW241270   6.028   1.139   8.629  0.1062 -0.4797  0.0278
13277SOL     OW41271   0.436   5.812   0.888 -0.1118  0.0264  0.0700
13277SOL    HW141272   0.342   5.823   0.870 -0.0155  1.3526  0.2931
13277SOL    HW241273   0.440   5.796   0.982 -0.0409  1.2797  0.2974
13278SOL     OW41274   4.646   1.056   1.532  0.0675  0.1326  0.2213
13278SOL    HW141275   4.716   1.072   1.596  0.6018 -0.9352 -0.0584
13278SOL    HW241276   4.683   1.087   1.448 -0.6858  1.6642  0.4199
13279SOL     OW41277   3.621   6.026   9.501 -0.0129  0.1125  0.2196
13279SOL    HW141278   3.585   6.001   9.586 -0.8119  1.6362  0.3652
13279SOL    HW241279   3.715   6.013   9.510 -0.2178 -1.0163  0.8717
13280SOL     OW41280   5.657   7.121   9.505 -0.3617 -0.1245 -0.0794
13280SOL    HW141281   5.660   7.172   9.424 -0.3985 -0.2478 -0.1601
13280SOL    HW241282   5.683   7.033   9.478  1.5999  0.2591  0.4001
13281SOL     OW41283   2.484   6.443   5.571 -0.3514 -0.6498  0.1690
13281SOL    HW141284   2.518   6.476   5.654  0.2876 -0.8663  0.0037
13281SOL    HW241285   2.428   6.369   5.595  0.7196 -1.4337  0.3575
13282SOL     OW41286   7.137   2.622  10.635  0.5392  0.5152  0.3876
13282SOL    HW141287   7.171   2.708  10.657  0.2592  0.7753 -0.1702
13282SOL    HW241288   7.048   2.638  10.602  0.0245 -0.1093  1.4141
13283SOL     OW41289   2.840   1.128   5.212 -0.2554  0.5641 -0.1902
13283SOL    HW141290   2.759   1.112   5.261  0.5974 -1.0765  0.7890
13283SOL    HW241291   2.826   1.083   5.128 -0.0788 -0.4334  0.2981
13284SOL     OW41292   3.909   7.983   9.608  0.1281  0.0219  0.7708
13284SOL    HW141293   3.897   8.046   9.536 -0.6081 -0.5985  0.3302
13284SOL    HW241294   3.827   7.988   9.657 -0.4152 -1.3900  0.0686
13285SOL     OW41295   0.014   7.003  10.873  0.1656  0.3039 -0.3019
13285SOL    HW141296   0.033   6.918  10.834 -0.0523 -0.6763  1.5923
13285SOL    HW241297  -0.082   7.005  10.880  0.2374 -0.0105  1.0737
13286SOL     OW41298   0.116   2.483   5.812 -0.3408  0.1383  0.0066
13286SOL    HW141299   0.154   2.439   5.736  0.7427 -0.7990  1.0619
13286SOL    HW241300   0.073   2.413   5.861 -2.6366  1.0041 -0.6086
13287SOL     OW41301   6.643   7.183   6.109 -0.0338  0.1928 -0.3959
13287SOL    HW141302   6.641   7.273   6.142 -2.3855  0.1885 -0.4126
13287SOL    HW241303   6.588   7.134   6.170 -2.0694 -0.4102 -2.5893
13288SOL     OW41304   3.722   5.434   1.739 -0.4350  0.2045 -0.0900
13288SOL    HW141305   3.719   5.372   1.665  0.4384 -1.2841  1.0668
13288SOL    HW241306   3.804   5.482   1.726 -0.3769  0.0800 -0.1882
13289SOL     OW41307   1.966   6.032   1.321 -0.3357  0.1690 -0.1184
13289SOL    HW141308   1.977   6.127   1.323 -1.7686  0.4586 -2.4688
13289SOL    HW241309   1.871   6.020   1.321 -0.1739 -1.3311  1.0741
13290SOL     OW41310   5.103   0.227   0.739  0.9307  0.2192 -0.3156
13290SOL    HW141311   5.013   0.233   0.706  1.1834 -1.3543 -1.4322
13290SOL    HW241312   5.105   0.144   0.787  1.5455  0.7240  0.5526
13291SOL     OW41313   6.700   6.768   8.574  0.1901 -0.4113  0.9568
13291SOL    HW141314   6.607   6.742   8.575  0.6052 -2.0376  1.2919
13291SOL    HW241315   6.704   6.849   8.624 -0.7030 -1.6600  3.1609
13292SOL     OW41316   0.548   1.001   5.633  0.1727 -0.8091 -0.1762
13292SOL    HW141317   0.604   1.073   5.605 -0.1708  1.0082  3.2775
13292SOL    HW241318   0.460   1.028   5.606  0.2262 -0.6064 -0.1539
13293SOL     OW41319   3.823   4.261   1.393  0.3366 -0.2031  0.0115
13293SOL    HW141320   3.810   4.306   1.309 -0.1028 -0.7996 -0.2562
13293SOL    HW241321   3.778   4.316   1.457  0.4133  0.1030 -0.1938
13294SOL     OW41322   7.323   1.071   4.997  0.4964  0.3401 -0.7756
13294SOL    HW141323   7.343   1.129   5.070 -1.0686  1.7773 -1.4267
13294SOL    HW241324   7.375   1.105   4.924  0.7218 -0.0080 -0.7778
13295SOL     OW41325   5.225   5.231   8.551  0.2666 -0.0439 -0.1671
13295SOL    HW141326   5.196   5.188   8.631 -1.2032 -1.4748 -1.3879
13295SOL    HW241327   5.293   5.174   8.516  0.1614  0.0147 -0.4698
13296SOL     OW41328   1.003   4.025   3.187  0.0936  0.0370 -0.4405
13296SOL    HW141329   1.051   4.020   3.270  0.1732  1.4463 -0.3728
13296SOL    HW241330   1.008   4.118   3.163 -1.5036 -0.0234 -1.0853
13297SOL     OW41331   7.380   0.477   7.665 -0.3014 -0.3053 -0.4431
13297SOL    HW141332   7.426   0.400   7.700  1.5813  1.1379  0.4587
13297SOL    HW241333   7.429   0.500   7.586 -0.6349  0.1764 -0.5139
13298SOL     OW41334   7.885   3.488   7.739  0.2775  0.0070 -0.2111
13298SOL    HW141335   7.956   3.444   7.691  0.5219 -0.3863  0.4949
13298SOL    HW241336   7.808   3.435   7.720 -0.1468  1.2029 -2.0914
13299SOL     OW41337   3.150   7.770   5.563 -0.1962 -0.1570 -0.5039
13299SOL    HW141338   3.089   7.701   5.537 -1.1576  0.1965  0.7133
13299SOL    HW241339   3.233   7.725   5.577 -0.6602 -0.9735 -0.3279
13300SOL     OW41340   3.474   2.753  10.070  0.1401  0.6081  0.0587
13300SOL    HW141341   3.436   2.804   9.998 -3.2265  0.7194  1.6967
13300SOL    HW241342   3.426   2.670  10.068  1.9004 -0.4663  0.5782
13301SOL     OW41343   4.402   2.616   8.393 -0.0584 -0.1385 -0.4738
13301SOL    HW141344   4.466   2.680   8.421  0.5847 -0.7484 -0.5247
13301SOL    HW241345   4.417   2.605   8.299  0.1712 -0.7236 -0.3742
13302SOL     OW41346   7.798   4.287   4.528 -0.0993  0.5393  0.1422
13302SOL    HW141347   7.755   4.348   4.468 -1.6266 -0.7418 -0.1353
13302SOL    HW241348   7.766   4.201   4.501  0.6959 -0.2390  1.5806
13303SOL     OW41349   7.470   7.089   1.955  0.3635 -0.0017 -0.3145
13303SOL    HW141350   7.550   7.136   1.930 -0.5907  2.3426  0.7196
13303SOL    HW241351   7.472   7.088   2.050 -1.1126  0.6932 -0.2525
13304SOL     OW41352   6.286   1.986   7.635  0.1596 -0.3053  0.1675
13304SOL    HW141353   6.287   2.015   7.544  2.2372  1.0190  0.5253
13304SOL    HW241354   6.319   1.896   7.632  0.4998 -0.1694 -0.3890
13305SOL     OW41355   5.408   6.227   1.475 -0.3711 -0.4783 -0.3023
13305SOL    HW141356   5.324   6.196   1.508 -0.4106 -0.6813 -0.5850
13305SOL    HW241357   5.430   6.166   1.405  1.7939 -2.7238  2.1264
13306SOL     OW41358   1.507   2.356   0.151  0.4532  0.0834 -0.3459
13306SOL    HW141359   1.465   2.325   0.072 -0.5103  1.3361 -0.3572
13306SOL    HW241360   1.586   2.302   0.160 -0.9612 -2.0968 -0.4965
13307SOL     OW41361   5.972   4.081   4.553  0.5861  0.0160  0.4330
13307SOL    HW141362   5.927   3.996   4.556  0.1436  0.2636  1.0957
13307SOL    HW241363   6.032   4.079   4.628  1.7509 -0.3338 -0.4771
13308SOL     OW41364   6.491   6.984   9.581 -0.1408  0.5855  0.1191
13308SOL    HW141365   6.416   7.038   9.555 -0.4118 -0.7047 -2.1017
13308SOL    HW241366   6.567   7.039   9.563 -0.5004  1.5434  1.4254
13309SOL     OW41367   7.780   4.052   3.440 -0.6754 -0.3376 -0.3466
13309SOL    HW141368   7.799   3.968   3.397 -1.4694  0.5548 -2.6087
13309SOL    HW241369   7.685   4.061   3.434 -0.5190  1.1227 -0.9792
13310SOL     OW41370   7.309   2.748   0.491  0.0238 -0.2160  0.4515
13310SOL    HW141371   7.340   2.713   0.574  0.3722 -2.9395 -0.7448
13310SOL    HW241372   7.267   2.674   0.447 -0.2374  1.1545 -1.7845
13311SOL     OW41373   0.912   5.842   0.718  0.5445 -0.4672  0.2891
13311SOL    HW141374   0.840   5.780   0.729 -0.1725  0.4318  0.7872
13311SOL    HW241375   0.915   5.890   0.801  0.0108  1.2933 -0.6702
13312SOL     OW41376   6.442   0.564   6.430  0.0197 -0.2794 -0.0114
13312SOL    HW141377   6.493   0.559   6.349  1.2935 -0.1706  0.7518
13312SOL    HW241378   6.488   0.506   6.491  0.5394  1.4834  1.3614
13313SOL     OW41379   0.944   2.394   1.138 -0.1483  0.3310  0.2621
13313SOL    HW141380   1.040   2.399   1.146 -0.2046  1.3584  0.4004
13313SOL    HW241381   0.928   2.379   1.045  0.1087  2.0740 -0.0974
13314SOL     OW41382   3.867   7.820  11.504  0.6079  0.3098  0.8770
13314SOL    HW141383   3.876   7.801  11.411 -0.2443 -0.0945  0.8629
13314SOL    HW241384   3.876   7.736  11.548 -2.8634 -0.2421  0.8396
13315SOL     OW41385   0.970   1.914   2.252 -0.0302  0.2980  0.2018
13315SOL    HW141386   0.999   2.003   2.268  0.6072  0.0398  0.5167
13315SOL    HW241387   0.966   1.873   2.338 -1.8915  0.4740  0.2386
13316SOL     OW41388   5.248   7.385   0.082 -0.4958 -0.5590  0.4998
13316SOL    HW141389   5.308   7.356   0.013 -0.7161 -2.9707  1.2234
13316SOL    HW241390   5.194   7.308   0.100 -3.2564  1.2532  0.5069
13317SOL     OW41391   0.061   3.577   0.837  0.0000 -0.3881 -0.4583
13317SOL    HW141392   0.041   3.569   0.931  0.5055 -2.5012 -0.4757
13317SOL    HW241393  -0.024   3.594   0.796 -0.2260  0.5563  0.3718
13318SOL     OW41394   5.790   3.059  10.941  0.3587  0.1366 -0.3648
13318SOL    HW141395   5.826   3.147  10.948 -0.5198  0.5613 -1.0289
13318SOL    HW241396   5.866   3.001  10.953  1.0483  0.9872 -0.5507
13319SOL     OW41397   7.919   6.385   8.429  0.2595  0.4150  0.0612
13319SOL    HW141398   7.824   6.377   8.427  0.2442  0.6823 -0.5834
13319SOL    HW241399   7.950   6.295   8.443 -0.0920  0.3899  0.7345
13320SOL     OW41400   3.507   2.207  11.560 -0.0111 -0.4330  0.1745
13320SOL    HW141401   3.515   2.270  11.488  0.5852 -1.2673 -0.4991
13320SOL    HW241402   3.449   2.251  11.623 -1.2554 -0.0363 -1.1883
13321SOL     OW41403   7.372   7.041  10.163  0.0534 -0.0950  0.4431
13321SOL    HW141404   7.282   7.044  10.197 -0.6520 -0.0121 -1.2972
13321SOL    HW241405   7.403   6.953  10.185 -1.2240 -0.8719 -0.6875
13322SOL     OW41406   6.322   3.962   4.225 -0.3690  0.0345  0.1224
13322SOL    HW141407   6.325   4.023   4.298 -0.6071 -0.0802  0.2281
13322SOL    HW241408   6.380   3.891   4.251 -1.6478 -0.7675  0.8936
13323SOL     OW41409   5.568   7.474   9.982 -0.4157 -0.2452 -0.2237
13323SOL    HW141410   5.508   7.547   9.964 -0.7536 -0.1851  1.0813
13323SOL    HW241411   5.655   7.514   9.980 -0.5791  0.1392  0.1744
13324SOL     OW41412   0.390   6.150   6.223  0.3969 -0.0194 -0.0938
13324SOL    HW141413   0.465   6.145   6.282 -0.6589 -1.2319  1.2137
13324SOL    HW241414   0.316   6.175   6.279 -0.3713  0.1984 -1.1628
13325SOL     OW41415   4.118   4.971  10.852 -0.1739  0.1953  0.4269
13325SOL    HW141416   4.155   4.929  10.930  1.3619  1.1610  0.2587
13325SOL    HW241417   4.107   5.063  10.876 -1.1303  0.2236 -0.0261
13326SOL     OW41418   3.606   6.306  10.942 -0.3863 -0.1958 -0.1023
13326SOL    HW141419   3.578   6.397  10.947 -0.1211 -0.0955 -0.3862
13326SOL    HW241420   3.683   6.308  10.885  0.0498 -0.5036  0.4793
13327SOL     OW41421   0.002   0.074   2.243  0.4975 -0.2884 -0.0169
13327SOL    HW141422   0.081   0.020   2.239  0.2057 -0.7713  0.7577
13327SOL    HW241423   0.009   0.122   2.326  0.4662  0.4286 -0.4174
13328SOL     OW41424   1.508   3.270   1.540 -0.2999  0.6211 -0.4651
13328SOL    HW141425   1.559   3.305   1.467 -1.7495  2.4733 -0.6643
13328SOL    HW241426   1.462   3.194   1.503 -1.4963  1.8990 -1.7370
13329SOL     OW41427   5.988   7.335   6.696  0.3810  0.3620  0.1858
13329SOL    HW141428   5.943   7.296   6.621 -0.5750  0.3873  0.7217
13329SOL    HW241429   5.985   7.429   6.679 -1.8236  0.5635  1.2537
13330SOL     OW41430   2.134   2.776   7.181  0.7246  0.0171 -0.1098
13330SOL    HW141431   2.134   2.770   7.086  1.0173 -1.6273 -0.0289
13330SOL    HW241432   2.217   2.736   7.208  0.1047 -0.6316  0.8860
13331SOL     OW41433   2.614   6.360   8.223  0.0259  0.1180  0.4884
13331SOL    HW141434   2.627   6.277   8.176 -3.5016 -0.1954 -0.2684
13331SOL    HW241435   2.681   6.360   8.291  2.6525 -1.4496 -1.8825
13332SOL     OW41436   3.883   1.294   2.587  0.4339  0.3206 -0.3348
13332SOL    HW141437   3.816   1.235   2.555 -0.0861  0.3167  0.7352
13332SOL    HW241438   3.959   1.238   2.602  0.5388  0.2462 -1.0722
13333SOL     OW41439   1.423   4.550  10.914  0.0901  0.3557  0.3388
13333SOL    HW141440   1.478   4.614  10.869 -0.7257  2.7743  2.5164
13333SOL    HW241441   1.350   4.536  10.854 -0.2164  2.3228  0.1604
13334SOL     OW41442   4.326   0.842   7.251 -0.1667 -0.5673 -0.5335
13334SOL    HW141443   4.298   0.752   7.262 -0.0845 -0.3280  2.0807
13334SOL    HW241444   4.256   0.894   7.289 -0.4516  0.5480 -2.4525
13335SOL     OW41445   3.605   7.893   1.950  0.1009 -0.4135 -0.5639
13335SOL    HW141446   3.677   7.841   1.985 -0.3578 -0.6020  0.0962
13335SOL    HW241447   3.580   7.951   2.022 -1.2535 -1.2265 -0.3426
13336SOL     OW41448   0.566   5.214  10.591  0.5638 -0.5135 -0.1879
13336SOL    HW141449   0.592   5.138  10.644  1.6999 -0.6927 -0.9789
13336SOL    HW241450   0.482   5.188  10.553  1.6944 -2.0843 -1.7645
13337SOL     OW41451   3.688   0.889   4.211 -0.3421 -0.2360  0.3176
13337SOL    HW141452   3.713   0.973   4.248 -0.4125  1.0304 -2.2520
13337SOL    HW241453   3.769   0.853   4.176 -0.7830  0.3924 -1.4958
13338SOL     OW41454   3.234   7.455   4.478  0.0036 -0.6282 -0.3918
13338SOL    HW141455   3.213   7.366   4.506  1.4101 -0.8351  0.0899
13338SOL    HW241456   3.151   7.492   4.448 -0.8360 -1.6716  0.5960
13339SOL     OW41457   7.942   2.466   4.756  0.2000  0.4035  0.0210
13339SOL    HW141458   7.923   2.464   4.662  0.7997  0.3559 -0.1057
13339SOL    HW241459   7.988   2.549   4.770  2.2974 -0.6517 -0.1924
13340SOL     OW41460   3.548   2.051   7.891 -0.4831 -0.6523 -0.0365
13340SOL    HW141461   3.574   1.979   7.833 -2.3863 -0.7288 -0.8576
13340SOL    HW241462   3.532   2.010   7.976 -1.0987 -1.1239 -0.3774
13341SOL     OW41463   2.260   1.366   4.254  0.4932  0.0665 -0.3600
13341SOL    HW141464   2.279   1.405   4.169  1.3175  0.0851 -0.1704
13341SOL    HW241465   2.334   1.308   4.271  1.3308  1.5236  1.2214
13342SOL     OW41466   1.212   2.539  11.294  0.0387 -0.1226 -0.1553
13342SOL    HW141467   1.263   2.464  11.325  2.5099  1.6465  0.3743
13342SOL    HW241468   1.197   2.592  11.372  0.4559  1.1057 -0.8789
13343SOL     OW41469   0.534   3.697   7.754 -0.1157  0.1154 -0.5255
13343SOL    HW141470   0.488   3.773   7.717  0.8537  0.5081 -0.9690
13343SOL    HW241471   0.488   3.678   7.835  0.6723  2.2979  0.5033
13344SOL     OW41472   7.171   5.604   4.386  1.1147  0.0657 -0.4870
13344SOL    HW141473   7.179   5.533   4.450  1.4457  0.3039 -0.2578
13344SOL    HW241474   7.078   5.610   4.367  0.9540  0.3400  0.3694
13345SOL     OW41475   4.502   6.533   7.250  0.2906  0.1626  0.1921
13345SOL    HW141476   4.590   6.495   7.249  0.4467  0.4992  0.7889
13345SOL    HW241477   4.516   6.627   7.241 -0.1038  0.1005 -1.4694
13346SOL     OW41478   5.259   3.448   7.237 -0.0891 -0.2463  0.3938
13346SOL    HW141479   5.298   3.517   7.291  0.0076 -0.5679  0.7367
13346SOL    HW241480   5.291   3.366   7.275 -0.9426 -0.5126  0.5593
13347SOL     OW41481   1.779   4.207  12.233 -0.3780 -0.0932 -0.1946
13347SOL    HW141482   1.757   4.127  12.280 -1.2657  0.6495  0.6897
13347SOL    HW241483   1.851   4.246  12.283 -1.9569  1.1945  1.2029
13348SOL     OW41484   5.294   1.983   7.090 -1.0425 -0.0343  0.4954
13348SOL    HW141485   5.199   1.973   7.082 -1.2210  0.8008  1.4757
13348SOL    HW241486   5.328   1.952   7.006 -2.1835 -0.2789  0.1059
13349SOL     OW41487   3.417   1.044   3.919  0.0894 -0.3413 -0.1632
13349SOL    HW141488   3.415   1.130   3.877 -0.7260  0.5264  1.5612
13349SOL    HW241489   3.510   1.020   3.922  0.5984  1.5494  1.3512
13350SOL     OW41490   4.087   3.200  11.048 -0.2243 -0.4141 -0.7898
13350SOL    HW141491   4.095   3.226  10.956 -0.3587 -1.5195 -1.1338
13350SOL    HW241492   4.165   3.147  11.064 -0.4967 -0.7164 -0.4508
13351SOL     OW41493   7.818   7.649   3.016 -0.0676 -0.0576  0.1389
13351SOL    HW141494   7.860   7.734   3.001 -0.4718  0.5287  2.0311
13351SOL    HW241495   7.796   7.618   2.929  0.1564  1.7591 -0.6194
13352SOL     OW41496   5.569   5.694   7.814  0.5339  0.0448 -0.0765
13352SOL    HW141497   5.522   5.680   7.731  0.0045  0.5329  0.1352
13352SOL    HW241498   5.545   5.783   7.841  2.3360  0.6941 -0.4394
13353SOL     OW41499   3.253   5.368  10.872  0.0282 -0.1805 -0.2234
13353SOL    HW141500   3.304   5.339  10.797 -0.7302  2.1492 -1.7506
13353SOL    HW241501   3.164   5.378  10.839 -0.2780  1.1738  0.8929
13354SOL     OW41502   5.679   4.841   8.405  0.0272 -0.3067  0.4372
13354SOL    HW141503   5.633   4.769   8.449  0.8531 -0.9193  0.3166
13354SOL    HW241504   5.717   4.801   8.327 -0.7594  0.5976 -0.4404
13355SOL     OW41505   5.431   6.145   6.767  1.0279  0.1473 -0.2553
13355SOL    HW141506   5.490   6.214   6.738  0.0043  1.0661 -0.2060
13355SOL    HW241507   5.393   6.178   6.848  0.4249 -0.4179 -0.2977
13356SOL     OW41508   4.993   5.109   7.735  0.1102 -0.0463 -0.0466
13356SOL    HW141509   4.998   5.043   7.804  1.6449 -0.8113 -0.8420
13356SOL    HW241510   5.063   5.086   7.675 -2.9170 -1.2686 -3.5037
13357SOL     OW41511   4.868   0.988   4.613 -0.0355  0.1983  1.1245
13357SOL    HW141512   4.846   1.006   4.705 -3.6485  0.8377  0.2638
13357SOL    HW241513   4.817   0.911   4.591  1.3730 -0.3987 -0.2108
13358SOL     OW41514   3.212   6.179   1.897 -0.6679 -0.3994 -0.3879
13358SOL    HW141515   3.238   6.089   1.880  0.4163  0.0280 -1.1598
13358SOL    HW241516   3.242   6.227   1.819 -0.8928  0.6794  0.1748
13359SOL     OW41517   1.738   4.044  11.507 -0.3686  0.0979  0.5251
13359SOL    HW141518   1.800   3.979  11.540  0.2495  0.6869  0.5495
13359SOL    HW241519   1.654   3.999  11.507 -0.3453 -0.0116  2.6398
13360SOL     OW41520   0.835   2.898  12.321  0.6386 -0.1516 -0.1338
13360SOL    HW141521   0.857   2.819  12.371 -0.1512 -0.3859 -0.1551
13360SOL    HW241522   0.910   2.956  12.335  0.5839 -0.3456  1.0474
13361SOL     OW41523   1.423   1.475   2.016  0.3687  0.1313  0.0046
13361SOL    HW141524   1.476   1.506   1.943 -0.3083  1.5384  0.0635
13361SOL    HW241525   1.353   1.540   2.024 -1.3283 -1.6062 -0.0032
13362SOL     OW41526   6.978   5.609   3.250 -0.2813  0.5040  0.0432
13362SOL    HW141527   6.902   5.668   3.253  1.5429  3.0217  0.6408
13362SOL    HW241528   6.997   5.598   3.157 -0.9250  0.5001 -0.0900
13363SOL     OW41529   2.243   1.045  10.833 -0.0333  0.0058 -0.1986
13363SOL    HW141530   2.302   0.978  10.799  2.1080  0.3832  2.4030
13363SOL    HW241531   2.218   1.013  10.920 -1.8583  0.9657 -0.3161
13364SOL     OW41532   4.716   0.819  11.330  0.2514  0.0206  0.2437
13364SOL    HW141533   4.696   0.730  11.299 -0.0011  0.4836 -1.0011
13364SOL    HW241534   4.804   0.812  11.366  1.6746 -0.1196 -2.8606
13365SOL     OW41535   0.766   0.626   8.464  0.1183  0.5656  0.0454
13365SOL    HW141536   0.731   0.540   8.487  1.3452  0.1754  0.5354
13365SOL    HW241537   0.752   0.680   8.541 -1.0278  0.9483 -0.4078
13366SOL     OW41538   2.405   1.353   2.587  0.0437 -0.5270 -0.2540
13366SOL    HW141539   2.452   1.283   2.632 -0.1364 -0.0275  0.7453
13366SOL    HW241540   2.398   1.423   2.652  1.5821  1.0510 -1.6807
13367SOL     OW41541   0.088   3.525   6.567 -0.1953  0.0677  0.3456
13367SOL    HW141542   0.061   3.538   6.658 -0.5869 -0.6305  0.3319
13367SOL    HW241543   0.153   3.594   6.552  0.1171 -0.0061  1.2560
13368SOL     OW41544   4.343   1.183   2.480  0.4964 -0.0674  0.2663
13368SOL    HW141545   4.262   1.140   2.453 -0.0992  1.3268 -0.2686
13368SOL    HW241546   4.350   1.164   2.574 -0.7885  0.2972  0.4613
13369SOL     OW41547   4.689   2.447   3.725 -0.3796 -0.4797 -0.9371
13369SOL    HW141548   4.730   2.520   3.679 -1.1675 -0.4213 -1.5598
13369SOL    HW241549   4.710   2.462   3.817 -0.4335  0.4597 -1.0679
13370SOL     OW41550   4.323   5.556   6.756  0.1735 -0.0104 -1.1230
13370SOL    HW141551   4.379   5.612   6.703  1.7123 -0.2698  0.1753
13370SOL    HW241552   4.349   5.467   6.733  1.8848 -0.1333  1.0268
13371SOL     OW41553   2.615   6.801   1.703  0.7750  1.0046  0.2894
13371SOL    HW141554   2.608   6.775   1.611 -0.9193 -2.1028  1.1389
13371SOL    HW241555   2.539   6.858   1.718 -0.8155 -1.0186  0.3871
13372SOL     OW41556   2.399   3.010   1.036  0.0198 -0.4630 -0.3098
13372SOL    HW141557   2.382   3.018   1.130 -1.0413  0.6715 -0.5667
13372SOL    HW241558   2.315   3.033   0.995  0.4568 -0.9952 -1.5351
13373SOL     OW41559   6.045   6.643   9.205 -0.2691 -0.1071  0.0367
13373SOL    HW141560   5.968   6.700   9.199 -0.4553 -0.3470  0.1151
13373SOL    HW241561   6.100   6.683   9.273 -1.9005 -1.7751  2.4840
13374SOL     OW41562   5.573   3.187  10.580  0.2251 -0.3733 -0.0673
13374SOL    HW141563   5.594   3.093  10.582 -1.3734 -0.7626  0.3503
13374SOL    HW241564   5.530   3.202  10.664 -1.2965  0.2861 -0.9401
13375SOL     OW41565   1.597   4.801   9.615 -0.5306  0.3602 -0.4475
13375SOL    HW141566   1.571   4.838   9.531  0.9614  0.0968 -1.0559
13375SOL    HW241567   1.559   4.860   9.680 -1.7889  0.5091 -1.2887
13376SOL     OW41568   5.877   4.654   0.334  0.1391  0.4349 -0.5080
13376SOL    HW141569   5.807   4.718   0.347  0.5851  0.7674  0.3456
13376SOL    HW241570   5.833   4.577   0.298 -0.6775  0.6338  0.0381
13377SOL     OW41571   6.700   0.249   6.533 -0.0644 -0.6559 -0.0213
13377SOL    HW141572   6.621   0.200   6.512 -0.3222 -1.0338  1.6497
13377SOL    HW241573   6.685   0.280   6.623  0.7542  1.1544 -0.4609
13378SOL     OW41574   2.997   4.325   9.861 -0.5404  0.3211  0.2088
13378SOL    HW141575   3.069   4.264   9.873 -1.0467 -0.2351  0.4848
13378SOL    HW241576   3.007   4.358   9.771 -0.4725 -0.4420 -0.0635
13379SOL     OW41577   6.003   4.579  12.097  0.4579 -0.0252 -0.1522
13379SOL    HW141578   6.033   4.511  12.036  1.2359 -1.1874  1.4600
13379SOL    HW241579   5.990   4.533  12.180 -4.7821  0.5513 -0.3194
13380SOL     OW41580   5.088   7.851   5.572  0.4915 -0.0501 -0.6791
13380SOL    HW141581   5.098   7.946   5.568 -0.7736  0.0366 -3.1972
13380SOL    HW241582   5.048   7.835   5.657  0.7931  1.6485 -0.1763
13381SOL     OW41583   7.492   6.061   2.963  0.2693 -0.0125 -0.1938
13381SOL    HW141584   7.399   6.078   2.945  0.6218 -0.2801 -2.7413
13381SOL    HW241585   7.527   6.030   2.879  3.6790  4.5286 -0.8283
13382SOL     OW41586   4.991   6.573   5.518  0.0619  0.0027 -0.6167
13382SOL    HW141587   5.075   6.529   5.537 -0.8684 -0.7606  2.1572
13382SOL    HW241588   4.946   6.512   5.459  0.6089 -0.6268 -0.4045
13383SOL     OW41589   7.680   4.533   8.289  0.1547  0.1672  0.1264
13383SOL    HW141590   7.620   4.472   8.332 -0.4328  0.4905 -0.2196
13383SOL    HW241591   7.623   4.599   8.250  0.7785  0.8725  0.3857
13384SOL     OW41592   2.653   5.803  11.876 -0.0371  0.0058  0.1480
13384SOL    HW141593   2.609   5.724  11.846  0.3394  0.1500 -0.8326
13384SOL    HW241594   2.602   5.832  11.952 -0.4822 -0.8801  0.1997
13385SOL     OW41595   1.292   3.604   8.299 -0.2627 -0.3487 -0.2840
13385SOL    HW141596   1.315   3.570   8.212  0.3515  0.4898 -0.4557
13385SOL    HW241597   1.255   3.690   8.282  0.3092  0.0276  0.3178
13386SOL     OW41598   0.372   5.956   2.652 -0.2799 -0.0219  0.8965
13386SOL    HW141599   0.347   5.865   2.665 -0.4293 -0.1404 -0.1247
13386SOL    HW241600   0.464   5.952   2.625 -1.3991 -0.3172 -3.6403
13387SOL     OW41601   0.258   3.039   8.214  0.2239  0.5635  0.0645
13387SOL    HW141602   0.173   3.069   8.183 -1.3597 -0.9832  2.5139
13387SOL    HW241603   0.289   2.979   8.146 -0.9335  0.6812 -0.5831
13388SOL     OW41604   2.696   7.328   1.108 -0.1805  0.2668  0.2352
13388SOL    HW141605   2.738   7.341   1.193 -0.3312  0.4300  0.2850
13388SOL    HW241606   2.719   7.238   1.083 -1.7929 -0.5163  1.3879
13389SOL     OW41607   5.127   7.644  10.395 -0.4490 -0.5223 -0.1743
13389SOL    HW141608   5.194   7.635  10.327  1.1120 -0.1485  1.2539
13389SOL    HW241609   5.074   7.718  10.367 -0.6535 -1.1899 -1.6286
13390SOL     OW41610   6.216   3.854   1.224  0.3218 -0.8246  1.0813
13390SOL    HW141611   6.306   3.886   1.215  0.0503 -0.6086 -5.1945
13390SOL    HW241612   6.224   3.759   1.230  0.8542 -0.6977  3.2007
13391SOL     OW41613   0.353   2.586   1.480 -0.0818  0.0272  0.0317
13391SOL    HW141614   0.442   2.566   1.451  0.1277  0.0124  0.6602
13391SOL    HW241615   0.311   2.625   1.403  0.8390  1.1435  0.0533
13392SOL     OW41616   3.090   6.269   6.176 -0.3479 -0.0350 -0.4293
13392SOL    HW141617   3.067   6.303   6.090 -1.1504  1.1495  0.2145
13392SOL    HW241618   3.175   6.308   6.196 -0.9177  1.0429 -0.0146
13393SOL     OW41619   2.969   2.308   8.869 -0.3818  0.4529  0.4827
13393SOL    HW141620   3.020   2.385   8.894 -0.3464  0.7572 -0.4799
13393SOL    HW241621   2.937   2.328   8.781 -0.9802 -0.3307  0.5113
13394SOL     OW41622   5.403   2.233   2.851 -0.5893 -0.2857 -0.3889
13394SOL    HW141623   5.439   2.184   2.777 -0.6847 -1.7365  0.4902
13394SOL    HW241624   5.317   2.263   2.821 -0.6345 -0.8749 -0.8585
13395SOL     OW41625   2.922   2.005  11.393 -0.1669 -0.6504  0.2262
13395SOL    HW141626   2.888   2.023  11.305 -1.4018  1.4638  1.0546
13395SOL    HW241627   2.873   1.928  11.422 -1.1414 -0.2311 -0.2459
13396SOL     OW41628   3.415   1.305   2.628 -0.2075 -0.3625  0.2768
13396SOL    HW141629   3.327   1.341   2.635 -0.7638 -1.5939 -0.1344
13396SOL    HW241630   3.451   1.343   2.548 -0.8091 -0.7418 -0.1823
13397SOL     OW41631   2.324   7.880   5.496  0.1362 -0.3314  0.3948
13397SOL    HW141632   2.283   7.937   5.560  0.8803  1.5494 -0.7246
13397SOL    HW241633   2.339   7.935   5.420  1.8764 -1.7343 -0.3786
13398SOL     OW41634   0.856   4.500   5.599 -0.0948 -0.2637  0.1894
13398SOL    HW141635   0.950   4.505   5.582  0.4606 -3.3244  1.6913
13398SOL    HW241636   0.842   4.556   5.675  1.0599 -1.7334  1.5517
13399SOL     OW41637   6.900   7.011   8.171 -0.2873  0.6277 -0.3630
13399SOL    HW141638   6.832   6.952   8.205  1.0127 -0.8013 -0.1502
13399SOL    HW241639   6.912   6.985   8.080  1.8881 -1.0839  0.3220
13400SOL     OW41640   6.325   2.422  10.437  0.3582 -0.0036  0.3035
13400SOL    HW141641   6.393   2.488  10.449 -0.3731  0.3532  3.5295
13400SOL    HW241642   6.246   2.472  10.415  0.6421 -0.2285 -1.3249
13401SOL     OW41643   1.245   5.239   0.334  0.4166 -0.0400  0.3512
13401SOL    HW141644   1.238   5.329   0.301  0.1230  0.3650  1.4538
13401SOL    HW241645   1.305   5.195   0.274 -0.7104  0.4234 -1.1640
13402SOL     OW41646   3.364   2.909   6.174 -0.0764  0.1479 -0.0565
13402SOL    HW141647   3.424   2.978   6.145 -1.4454  0.2621 -2.9829
13402SOL    HW241648   3.420   2.832   6.184  1.2465  1.2759  1.9347
13403SOL     OW41649   4.536   0.109   9.220 -0.4560  0.1343 -0.4407
13403SOL    HW141650   4.512   0.097   9.312 -1.0225  0.0604 -0.5971
13403SOL    HW241651   4.560   0.022   9.190 -2.0518 -0.1795 -0.8620
13404SOL     OW41652   1.778   2.185  11.612  0.2762 -0.4072 -0.4482
13404SOL    HW141653   1.850   2.195  11.674  1.5408  0.5909 -2.0031
13404SOL    HW241654   1.821   2.178  11.527 -1.4767  1.1654 -1.5350
13405SOL     OW41655   3.212   0.321  11.673 -0.1934  0.0559 -0.2858
13405SOL    HW141656   3.157   0.329  11.751 -0.4059 -0.5480 -0.3716
13405SOL    HW241657   3.223   0.411  11.643  0.3107  0.3502  0.7200
13406SOL     OW41658   4.787   0.268   9.213  0.4553  0.4893 -0.3831
13406SOL    HW141659   4.698   0.256   9.247  0.0321  1.1552 -1.1823
13406SOL    HW241660   4.784   0.228   9.125  0.9555  0.4853 -0.4005
13407SOL     OW41661   4.142   6.660   4.708  0.1832 -0.2052  0.8138
13407SOL    HW141662   4.151   6.711   4.627  0.2556  1.6814  1.9598
13407SOL    HW241663   4.072   6.704   4.756  2.4154  0.8782  3.2917
13408SOL     OW41664   7.217   1.417   1.806 -0.5022  0.3757  0.3502
13408SOL    HW141665   7.268   1.458   1.876  1.0282  0.1338 -0.5596
13408SOL    HW241666   7.151   1.483   1.783 -0.1069  1.0384  1.0463
13409SOL     OW41667   3.195   2.880   1.728  0.4466  0.4875 -0.6639
13409SOL    HW141668   3.119   2.909   1.777  0.6595 -0.2810  0.1460
13409SOL    HW241669   3.252   2.839   1.793  0.6224 -0.7811 -1.5665
13410SOL     OW41670   0.103   1.786   9.792 -0.0640  0.4420 -0.0824
13410SOL    HW141671   0.011   1.801   9.767  0.2740  1.0971 -0.9687
13410SOL    HW241672   0.149   1.864   9.761  0.4391  1.2291  2.4103
13411SOL     OW41673   0.121   1.942   7.805  0.2713 -0.0698  0.1323
13411SOL    HW141674   0.188   2.007   7.785 -1.1569  1.9690  1.6123
13411SOL    HW241675   0.148   1.904   7.889  0.3654 -0.4015 -0.0440
13412SOL     OW41676   4.304   0.578   9.654  0.4310 -0.3460 -0.5060
13412SOL    HW141677   4.231   0.517   9.662  1.7109 -2.0215 -0.7536
13412SOL    HW241678   4.301   0.631   9.733 -0.9446 -0.4904 -0.4398
13413SOL     OW41679   7.452   2.701   0.721  0.2653  0.3261  0.1161
13413SOL    HW141680   7.453   2.689   0.816  0.0501 -0.3161  0.0421
13413SOL    HW241681   7.533   2.659   0.691 -0.4690 -0.9644 -0.1416
13414SOL     OW41682   6.496   3.509   9.521  0.2330  0.5220 -0.2912
13414SOL    HW141683   6.586   3.519   9.554  1.0869 -1.1389 -1.9206
13414SOL    HW241684   6.441   3.527   9.596  1.9880  0.1583  1.1556
13415SOL     OW41685   2.292   5.769   2.712  0.3135 -0.2133 -0.2805
13415SOL    HW141686   2.238   5.810   2.780  2.6525 -0.1971  1.7094
13415SOL    HW241687   2.260   5.679   2.707  0.4695 -0.3854  1.3179
13416SOL     OW41688   2.277   6.122   9.977  0.2419 -0.2348  0.1837
13416SOL    HW141689   2.274   6.066   9.899  2.0325  1.0077 -0.8549
13416SOL    HW241690   2.318   6.068  10.044 -0.7026 -1.0985  0.0939
13417SOL     OW41691   7.342   3.133   0.989 -0.1786  0.0094  0.2893
13417SOL    HW141692   7.388   3.080   0.923  0.6450 -0.4931  1.2279
13417SOL    HW241693   7.287   3.192   0.938  1.8498  0.9657 -0.9360
13418SOL     OW41694   3.282   6.625  12.338  0.7114  0.3787 -0.1411
13418SOL    HW141695   3.239   6.657  12.259 -1.3781  0.8664  1.1318
13418SOL    HW241696   3.333   6.699  12.369  0.1518  0.7445 -0.0925
13419SOL     OW41697   4.583   7.782   4.960 -1.1349  0.1884  0.2926
13419SOL    HW141698   4.599   7.861   4.909 -0.3150  0.0786  0.3637
13419SOL    HW241699   4.514   7.806   5.021 -0.9465  0.8310  0.2598
13420SOL     OW41700   1.614   4.263   8.580  0.1563 -0.0654 -0.9400
13420SOL    HW141701   1.562   4.274   8.660  0.8869 -0.2483 -0.4290
13420SOL    HW241702   1.583   4.180   8.543  0.9012 -0.7818 -0.0005
13421SOL     OW41703   6.951   2.523   5.653 -0.7802  0.0488 -0.5723
13421SOL    HW141704   6.918   2.442   5.694 -1.6173  1.3990  1.6134
13421SOL    HW241705   7.003   2.493   5.579 -1.1185 -2.4948  0.1217
13422SOL     OW41706   6.454   0.125   6.451 -0.0089 -0.3237 -0.4613
13422SOL    HW141707   6.387   0.165   6.396 -2.9915 -0.9782  2.3671
13422SOL    HW241708   6.502   0.066   6.392 -2.3337 -0.2706 -2.5476
13423SOL     OW41709   2.945   7.414   0.985  0.1402  0.3522 -0.0729
13423SOL    HW141710   2.949   7.481   0.917 -0.3592 -0.3678 -0.8308
13423SOL    HW241711   2.856   7.381   0.981  0.0550  0.4098  1.0535
13424SOL     OW41712   7.376   1.241  11.350  0.2025  0.1172 -0.1243
13424SOL    HW141713   7.430   1.317  11.373 -1.5003  1.1470  0.5799
13424SOL    HW241714   7.381   1.184  11.426  0.9704 -0.1991 -0.4021
13425SOL     OW41715   2.450   0.425   6.007 -0.1068  0.0170 -0.3588
13425SOL    HW141716   2.402   0.498   5.968 -1.5733 -0.1398  1.0616
13425SOL    HW241717   2.512   0.467   6.067 -0.7499  0.1423  0.2394
13426SOL     OW41718   4.135   7.602   0.755 -0.3026 -0.2823 -0.1233
13426SOL    HW141719   4.062   7.563   0.706 -0.8895 -0.0269  0.5208
13426SOL    HW241720   4.122   7.697   0.746  0.8046 -0.2109 -1.2268
13427SOL     OW41721   5.158   7.135   9.123 -0.0664 -0.2169  0.6038
13427SOL    HW141722   5.136   7.223   9.152  2.1603  0.0072  1.8767
13427SOL    HW241723   5.097   7.078   9.172 -0.7719  0.5371  0.6210
13428SOL     OW41724   2.339   7.413   0.550 -0.5137 -0.0338 -0.2457
13428SOL    HW141725   2.260   7.455   0.514 -2.2551 -2.1143  0.8912
13428SOL    HW241726   2.330   7.321   0.526  0.8964 -0.5500  1.0518
13429SOL     OW41727   6.403   0.389   0.245  0.4118 -0.3597 -0.1825
13429SOL    HW141728   6.414   0.354   0.157  0.3418 -3.8072  1.0202
13429SOL    HW241729   6.490   0.418   0.271  0.5390  0.1555 -1.1522
13430SOL     OW41730   0.119   0.323   0.653  0.5498  0.3254 -0.6456
13430SOL    HW141731   0.027   0.349   0.653 -0.5191 -2.9860 -1.6848
13430SOL    HW241732   0.117   0.227   0.657  3.9787  0.1251 -0.7707
13431SOL     OW41733   4.298   6.190  11.994 -0.5574  0.5148  0.1102
13431SOL    HW141734   4.315   6.206  11.901 -0.1674  2.3272  0.4517
13431SOL    HW241735   4.323   6.099  12.008  1.7896  0.9135 -1.0360
13432SOL     OW41736   3.504   5.977  12.212  0.7354 -0.2350  0.0610
13432SOL    HW141737   3.433   6.024  12.168  0.8614 -0.0073  0.0998
13432SOL    HW241738   3.566   6.045  12.237  1.7065 -0.5976 -1.3134
13433SOL     OW41739   7.831   7.729   4.886  0.4995 -0.0176  0.0382
13433SOL    HW141740   7.817   7.710   4.793 -0.7384 -1.7584  0.5337
13433SOL    HW241741   7.856   7.645   4.924  1.0053  0.6706  1.2914
13434SOL     OW41742   4.646   3.506  10.969 -0.5430  0.4284 -0.6600
13434SOL    HW141743   4.605   3.572  11.025  0.2258  0.3683  0.0021
13434SOL    HW241744   4.690   3.447  11.031  0.2115  0.2793 -1.3234
13435SOL     OW41745   3.744   7.261  11.582 -0.1310 -0.0844  0.1094
13435SOL    HW141746   3.712   7.170  11.580 -0.3387 -0.0111 -0.0056
13435SOL    HW241747   3.836   7.255  11.558 -0.2227 -0.2342 -0.2125
13436SOL     OW41748   4.260   2.644   6.456 -0.9267  0.3608 -0.5113
13436SOL    HW141749   4.190   2.615   6.515 -0.5434  1.6051  0.6042
13436SOL    HW241750   4.331   2.671   6.515  1.5475 -3.1121 -1.5933
13437SOL     OW41751   3.074   1.736   3.505 -0.4548 -0.0175  0.3476
13437SOL    HW141752   3.081   1.786   3.586 -0.5211  0.2887  0.1630
13437SOL    HW241753   3.076   1.644   3.534  1.5168  0.0427  0.5585
13438SOL     OW41754   0.575   1.919   1.234 -0.7109 -0.1408  0.5041
13438SOL    HW141755   0.557   1.838   1.282 -3.0705 -0.1842 -0.3241
13438SOL    HW241756   0.669   1.934   1.248 -0.5496 -2.0716  2.0873
13439SOL     OW41757   7.679   2.949  11.466  0.7003 -0.0484  0.5858
13439SOL    HW141758   7.719   2.877  11.418  0.4035  0.3193 -0.2238
13439SOL    HW241759   7.594   2.962  11.424  0.1467 -0.1353  1.6230
13440SOL     OW41760   6.862   2.496   7.141 -0.2018 -0.1788  0.0815
13440SOL    HW141761   6.878   2.419   7.087 -0.8074  0.2609 -0.7462
13440SOL    HW241762   6.857   2.568   7.079 -0.6411  0.3837  0.7524
13441SOL     OW41763   1.238   1.419   6.100  0.6725 -0.0203  0.1084
13441SOL    HW141764   1.280   1.503   6.117  0.1982 -0.2249  2.6033
13441SOL    HW241765   1.187   1.400   6.179 -2.8653 -0.5654 -2.0708
13442SOL     OW41766   7.781   3.333   3.387 -0.4841  0.2466 -0.0480
13442SOL    HW141767   7.870   3.353   3.416 -0.2075 -0.9602 -0.0316
13442SOL    HW241768   7.748   3.416   3.353  1.4232  0.2356 -2.1573
13443SOL     OW41769   3.787   0.670   5.556  0.2745  0.2942 -0.1176
13443SOL    HW141770   3.791   0.762   5.581 -0.0087  0.6590 -1.3144
13443SOL    HW241771   3.765   0.624   5.637  0.3220  1.2838  0.4796
13444SOL     OW41772   5.044   2.939   8.806 -0.6340  0.6218  0.4167
13444SOL    HW141773   4.995   2.941   8.724  0.5318  0.3347 -0.3012
13444SOL    HW241774   4.985   2.982   8.869 -1.2994  1.4189 -0.6927
13445SOL     OW41775   1.783   5.924   9.299  0.0544 -0.5746 -0.0950
13445SOL    HW141776   1.823   5.993   9.247  0.9998 -2.3600 -1.8617
13445SOL    HW241777   1.847   5.906   9.368 -0.3137  0.4478  0.5329
13446SOL     OW41778   0.896   1.215   6.696 -0.3985 -0.5298 -0.0942
13446SOL    HW141779   0.821   1.232   6.754 -0.7161  1.0693 -0.9383
13446SOL    HW241780   0.968   1.194   6.756 -0.0859  3.2897  1.1481
13447SOL     OW41781   6.509   1.140   1.361 -0.0694 -0.1556 -0.0676
13447SOL    HW141782   6.459   1.129   1.442 -1.2780  0.1042 -0.7450
13447SOL    HW241783   6.545   1.054   1.343  2.4009  0.3036  2.0612
13448SOL     OW41784   3.677   7.376   8.282 -0.4131  0.6804 -0.2946
13448SOL    HW141785   3.623   7.338   8.351  1.1860 -0.3102  0.4921
13448SOL    HW241786   3.706   7.460   8.317  0.4055  0.1730  0.2841
13449SOL     OW41787   5.646   4.333   7.304  0.2968  0.4601  0.0076
13449SOL    HW141788   5.561   4.354   7.264 -0.4176  0.5391  1.5077
13449SOL    HW241789   5.691   4.281   7.238 -0.3681  1.5405 -1.3482
13450SOL     OW41790   6.571   7.250   8.807 -0.4656  0.0457  0.6825
13450SOL    HW141791   6.503   7.207   8.755  0.3381 -0.5496  0.0967
13450SOL    HW241792   6.558   7.216   8.895 -1.5752  0.7372  0.8083
13451SOL     OW41793   1.187   5.164   4.504 -0.5804  0.5301  0.2487
13451SOL    HW141794   1.093   5.175   4.521 -0.7115 -1.5060  1.1713
13451SOL    HW241795   1.204   5.073   4.525  1.7074  0.9558  0.4759
13452SOL     OW41796   3.282   5.994  11.156 -0.1725 -0.1695 -0.5862
13452SOL    HW141797   3.359   6.050  11.167  0.1487 -0.9490  1.6659
13452SOL    HW241798   3.211   6.055  11.136  0.6331  0.7937 -0.5973
13453SOL     OW41799   3.112   2.521   8.921  0.1618 -0.1459 -0.0482
13453SOL    HW141800   3.063   2.559   8.993  0.5732  2.4965 -1.0588
13453SOL    HW241801   3.204   2.537   8.943  0.2900  0.9722 -1.2107
13454SOL     OW41802   1.396   6.624   7.164 -0.3432  0.2702 -0.0084
13454SOL    HW141803   1.479   6.626   7.213  0.1285  0.2544 -0.7905
13454SOL    HW241804   1.329   6.627   7.232  0.2767  2.4211  0.5997
13455SOL     OW41805   7.863   4.143   5.102  0.2561 -0.0364 -0.2321
13455SOL    HW141806   7.833   4.177   5.017  0.0212  0.8775  0.2004
13455SOL    HW241807   7.782   4.128   5.151  0.4062 -0.2486 -0.0452
13456SOL     OW41808   5.762   5.822  11.436 -0.1607 -0.1741 -0.4649
13456SOL    HW141809   5.730   5.814  11.526  0.4895 -0.2168 -0.2293
13456SOL    HW241810   5.854   5.845  11.446  0.2591 -1.4966 -1.1058
13457SOL     OW41811   5.059   2.441   9.368  0.1089  0.0493 -0.4664
13457SOL    HW141812   4.983   2.492   9.396 -0.3033 -0.3883 -0.7697
13457SOL    HW241813   5.037   2.351   9.392  0.8370  0.0116  0.0855
13458SOL     OW41814   2.291   1.188   9.285  0.1024  0.7014 -0.1613
13458SOL    HW141815   2.246   1.192   9.369 -1.3874  0.1258 -0.8905
13458SOL    HW241816   2.225   1.155   9.224  1.2317  0.8155 -1.5013
13459SOL     OW41817   0.257   0.516   9.133  0.5381  0.7615  0.0468
13459SOL    HW141818   0.346   0.536   9.102  1.1771 -1.0515  0.5883
13459SOL    HW241819   0.246   0.573   9.209  1.2722  0.9614  0.0157
13460SOL     OW41820   7.598   7.811   4.486 -0.3258  0.0443  0.3059
13460SOL    HW141821   7.541   7.760   4.428  1.2015 -0.3762 -0.9262
13460SOL    HW241822   7.641   7.873   4.427  1.1223 -0.2590  0.9933
13461SOL     OW41823   3.168   7.823  11.796 -0.1942 -0.3524  0.0366
13461SOL    HW141824   3.261   7.830  11.771 -0.3032 -0.4235 -0.3870
13461SOL    HW241825   3.122   7.883  11.737 -0.7584 -2.3377 -1.6337
13462SOL     OW41826   6.151   1.490   3.980  0.0318 -0.2600 -0.2323
13462SOL    HW141827   6.144   1.533   4.065 -0.2930 -0.2640 -0.2556
13462SOL    HW241828   6.224   1.534   3.937 -1.2577  1.3613 -0.8808
13463SOL     OW41829   5.365   2.609   0.639 -0.0222  0.0369  1.0107
13463SOL    HW141830   5.302   2.541   0.662  0.6305 -0.2124  2.1138
13463SOL    HW241831   5.317   2.667   0.580 -1.7355  0.6139  2.8764
13464SOL     OW41832   5.015   2.984  10.339  0.0472 -0.8441 -0.3984
13464SOL    HW141833   5.073   3.024  10.274  0.5378 -0.8203  0.0524
13464SOL    HW241834   4.958   3.056  10.367  0.6225 -0.5696  0.0719
13465SOL     OW41835   1.950   1.696   9.100 -0.2109  0.0750  0.1298
13465SOL    HW141836   1.926   1.712   9.192 -1.7405  0.6401 -0.3233
13465SOL    HW241837   2.043   1.677   9.102  0.1020  1.5230  1.6490
13466SOL     OW41838   4.762   7.892   0.515  0.0710 -0.2401  0.4623
13466SOL    HW141839   4.679   7.889   0.562 -0.1666 -0.9086  0.0219
13466SOL    HW241840   4.771   7.983   0.487 -0.6417 -0.2133  0.2954
13467SOL     OW41841   2.504   3.168  11.556 -0.1071  0.5648  0.0888
13467SOL    HW141842   2.513   3.133  11.645  1.7334  1.2349  0.1921
13467SOL    HW241843   2.506   3.091  11.500  0.3099  0.2549  0.5232
13468SOL     OW41844   5.562   1.594   3.659  0.4223 -0.0141  0.1421
13468SOL    HW141845   5.495   1.557   3.717  0.1764  1.3644  0.7646
13468SOL    HW241846   5.612   1.653   3.715  0.9724  0.3969 -0.7696
13469SOL     OW41847   2.524   5.918   4.789 -0.2913 -0.3123 -0.2873
13469SOL    HW141848   2.569   5.909   4.705 -1.7599  0.5613 -1.2024
13469SOL    HW241849   2.532   5.832   4.829  0.2542 -0.8157 -1.4239
13470SOL     OW41850   1.430   0.827   1.289  0.2393 -0.4631 -0.5875
13470SOL    HW141851   1.445   0.740   1.327  0.0715  0.1892  1.0585
13470SOL    HW241852   1.512   0.873   1.304 -0.4986  0.4541  0.9036
13471SOL     OW41853   0.218   6.630   2.022 -0.3911 -0.1335  0.6240
13471SOL    HW141854   0.148   6.577   2.062 -1.3347  0.0872 -0.6568
13471SOL    HW241855   0.289   6.628   2.086 -0.9660 -1.7046  1.2671
13472SOL     OW41856   2.903   2.279   1.031 -0.3368  0.4524 -0.2712
13472SOL    HW141857   2.888   2.293   0.937 -0.7204  0.2501 -0.2411
13472SOL    HW241858   2.952   2.197   1.035 -1.5230 -0.2931 -0.2291
13473SOL     OW41859   2.712   3.504   5.148 -0.0338  0.1463 -0.4339
13473SOL    HW141860   2.627   3.461   5.141 -0.8133  1.8554 -3.1942
13473SOL    HW241861   2.727   3.541   5.061  3.0216  0.9069  0.2984
13474SOL     OW41862   7.042   3.800   7.463  0.4105  0.0106 -0.0988
13474SOL    HW141863   7.014   3.889   7.439 -1.0829 -0.4449 -0.1582
13474SOL    HW241864   7.036   3.750   7.381 -0.6571 -0.5789  0.3168
13475SOL     OW41865   6.990   7.495   0.935  0.3359 -0.2017 -0.8086
13475SOL    HW141866   7.014   7.439   0.860  0.9585 -1.6031  0.3873
13475SOL    HW241867   6.944   7.437   0.995  3.0210 -0.1159  1.5376
13476SOL     OW41868   5.880   4.878   9.765  0.6788 -0.3247  0.0192
13476SOL    HW141869   5.894   4.783   9.762 -0.4447 -0.4994 -3.2847
13476SOL    HW241870   5.802   4.889   9.820 -1.1822 -1.7009 -2.1995
13477SOL     OW41871   5.285   6.953   0.762  0.3822  0.3735  0.5456
13477SOL    HW141872   5.317   6.936   0.673 -0.1803 -1.0103  0.5787
13477SOL    HW241873   5.360   6.938   0.818  1.1540  2.6758  0.2543
13478SOL     OW41874   4.832   2.416  11.633  0.4611  0.0525 -0.0432
13478SOL    HW141875   4.909   2.360  11.642 -0.3030 -1.2188 -0.9438
13478SOL    HW241876   4.867   2.505  11.630  1.8251 -0.4437  0.2445
13479SOL     OW41877   4.414   6.839  10.311 -0.3831  0.3932 -0.3845
13479SOL    HW141878   4.510   6.834  10.316 -0.2253 -0.0638 -2.6839
13479SOL    HW241879   4.383   6.757  10.347  0.1850 -0.0022 -0.7738
13480SOL     OW41880   5.557   6.041   9.951  0.1167 -0.5195 -0.3889
13480SOL    HW141881   5.568   6.133   9.929  0.0908 -0.5970 -0.7196
13480SOL    HW241882   5.635   6.019  10.002  0.5446 -0.5462 -1.0528
13481SOL     OW41883   5.108   7.463   2.998  0.4337  0.4237  0.1303
13481SOL    HW141884   5.024   7.505   3.015 -0.8206 -1.7342 -0.3609
13481SOL    HW241885   5.133   7.424   3.082  0.2323 -0.0996 -0.0463
13482SOL     OW41886   7.165   7.245   0.039  0.4368  0.4062 -0.1488
13482SOL    HW141887   7.085   7.223  -0.010 -0.9173  2.1574  1.1307
13482SOL    HW241888   7.235   7.202  -0.009 -1.4097 -2.5176 -0.5000
13483SOL     OW41889   4.308   6.232   9.989  0.0103 -0.0335 -0.2158
13483SOL    HW141890   4.325   6.161  10.051 -0.0490 -2.0713 -2.4309
13483SOL    HW241891   4.215   6.252  10.001  0.1519  0.1140  0.7971
13484SOL     OW41892   5.140   3.900   0.297  0.5612 -0.1935 -0.2287
13484SOL    HW141893   5.209   3.890   0.362  0.6603  2.5457  0.1860
13484SOL    HW241894   5.062   3.865   0.339  1.0207 -0.2993  0.5518
13485SOL     OW41895   2.593   2.948   6.851 -0.8161  0.2103  0.0555
13485SOL    HW141896   2.562   2.867   6.890 -2.7559  1.0861  0.4583
13485SOL    HW241897   2.688   2.946   6.862 -0.8902 -1.6962  0.6038
13486SOL     OW41898   3.304   5.805   4.968  0.3564  0.3167 -0.1273
13486SOL    HW141899   3.273   5.885   4.926  0.7054  0.4524 -0.1351
13486SOL    HW241900   3.225   5.761   5.000 -0.0582 -0.4234 -2.0272
13487SOL     OW41901   7.824   3.663  11.206  0.0048 -0.1326  0.5170
13487SOL    HW141902   7.864   3.745  11.236  0.5226 -0.1349 -0.1383
13487SOL    HW241903   7.880   3.595  11.243 -0.6032 -0.2129  1.3182
13488SOL     OW41904   6.706   6.697   3.870  0.0090 -0.5300 -0.6043
13488SOL    HW141905   6.801   6.686   3.876  0.1783  1.0239  0.2275
13488SOL    HW241906   6.674   6.682   3.959 -0.3059  0.5417 -0.5158
13489SOL     OW41907   2.058   4.429   2.559  0.1951  0.1979 -0.0287
13489SOL    HW141908   1.990   4.424   2.492 -0.1962  1.7183  0.2197
13489SOL    HW241909   2.044   4.514   2.602  0.8456 -0.4414  1.5396
13490SOL     OW41910   6.760   6.018   1.999  0.1754  0.3172  0.4382
13490SOL    HW141911   6.693   5.953   2.016  0.7371 -0.7400 -1.1278
13490SOL    HW241912   6.723   6.074   1.930  0.9632 -0.4792 -0.6834
13491SOL     OW41913   0.177   4.647   5.049 -0.4147  0.2371 -0.4842
13491SOL    HW141914   0.272   4.646   5.063 -0.5637 -2.2902  0.7693
13491SOL    HW241915   0.154   4.556   5.031 -2.9961  0.2050  2.2744
13492SOL     OW41916   4.985   6.755   6.636 -0.2409 -0.1984  0.1258
13492SOL    HW141917   5.025   6.813   6.701  2.8737 -2.1804  0.1928
13492SOL    HW241918   4.896   6.742   6.666  0.5482  0.3934  2.9802
13493SOL     OW41919   7.784   6.508   6.576  0.2374  0.8170 -0.2895
13493SOL    HW141920   7.837   6.454   6.635 -0.3814  0.2179 -0.2660
13493SOL    HW241921   7.730   6.562   6.634  0.0186  0.6184 -0.3073
13494SOL     OW41922   0.545   0.913   0.898  0.0017 -0.4075 -0.1144
13494SOL    HW141923   0.622   0.970   0.895 -0.1758 -0.1883 -1.3518
13494SOL    HW241924   0.581   0.824   0.903  0.4216 -0.4016 -2.0566
13495SOL     OW41925   3.526   5.619   2.313 -0.1766  0.1227 -0.2180
13495SOL    HW141926   3.573   5.675   2.251  2.1609 -2.9990 -1.5423
13495SOL    HW241927   3.532   5.531   2.275 -2.5970 -1.2802  2.2870
13496SOL     OW41928   1.674   0.870   5.190  0.2989 -0.5511 -0.2117
13496SOL    HW141929   1.685   0.935   5.259  1.5730  0.6128 -1.4543
13496SOL    HW241930   1.595   0.897   5.143  1.6366  1.0854 -1.6617
13497SOL     OW41931   0.137   0.530   7.633  0.0679 -0.0470 -0.5204
13497SOL    HW141932   0.231   0.537   7.620 -0.0429  0.7109 -1.0078
13497SOL    HW241933   0.116   0.601   7.693  0.0882 -1.4983  1.2900
13498SOL     OW41934   5.742   7.550  10.453 -0.0316 -0.2160 -0.0235
13498SOL    HW141935   5.671   7.491  10.479 -0.3037 -0.7714 -1.8702
13498SOL    HW241936   5.818   7.492  10.441 -0.7387 -0.6557 -3.6563
13499SOL     OW41937   1.904   6.186   3.610  0.0990  0.4454  0.1531
13499SOL    HW141938   1.945   6.272   3.603 -2.1172  1.5304 -0.2733
13499SOL    HW241939   1.899   6.154   3.520 -2.0193  1.3645 -0.0942
13500SOL     OW41940   1.132   3.139   8.863  0.2847  0.1117  0.5732
13500SOL    HW141941   1.172   3.193   8.795  1.6546 -0.2263  1.0786
13500SOL    HW241942   1.172   3.053   8.853 -0.1375 -0.1771  1.2579
13501SOL     OW41943   1.606   2.570   6.782 -0.2268  0.0980 -0.0542
13501SOL    HW141944   1.519   2.606   6.766 -0.2828 -0.9494 -2.4242
13501SOL    HW241945   1.596   2.475   6.776  1.1401 -0.0320 -0.8564
13502SOL     OW41946   6.540   2.436   3.245 -0.0091  0.0107  0.1168
13502SOL    HW141947   6.462   2.397   3.284 -1.5693  2.5850 -0.1850
13502SOL    HW241948   6.524   2.431   3.150  1.0351 -0.9712 -0.0262
13503SOL     OW41949   3.155   1.686   5.290 -0.0460  0.3270 -0.2942
13503SOL    HW141950   3.065   1.698   5.320  0.8116  1.4957  2.1289
13503SOL    HW241951   3.202   1.764   5.321  1.7127  0.0167 -1.9495
13504SOL     OW41952   1.904   5.251   8.775 -0.0475  0.4246  0.0966
13504SOL    HW141953   1.880   5.324   8.831 -0.6774  1.4362 -1.4080
13504SOL    HW241954   1.882   5.281   8.686  1.6593 -0.7530 -0.7992
13505SOL     OW41955   4.493   7.512  11.619 -0.0980  0.1950 -0.6060
13505SOL    HW141956   4.463   7.551  11.537  0.5824 -0.6249 -1.2751
13505SOL    HW241957   4.504   7.586  11.679 -1.7626  0.6790 -0.8613
13506SOL     OW41958   2.623   1.563   6.472  0.1237 -0.2517  0.6032
13506SOL    HW141959   2.643   1.469   6.474  1.0498 -0.0908 -0.2942
13506SOL    HW241960   2.568   1.578   6.549 -0.5716 -1.6467  0.4025
13507SOL     OW41961   7.374   5.084  12.329  0.0731  0.1219  0.1167
13507SOL    HW141962   7.381   5.175  12.300 -0.9795  0.2291  0.1614
13507SOL    HW241963   7.363   5.035  12.248 -0.1880  0.1219  0.1536
13508SOL     OW41964   0.046   3.690   7.814 -0.4097 -0.1573  0.0287
13508SOL    HW141965   0.031   3.695   7.908  0.0432 -1.3706  0.1783
13508SOL    HW241966  -0.008   3.616   7.785  0.0205 -0.2534 -0.5366
13509SOL     OW41967   7.336   5.979  10.823  0.0360 -0.1656 -0.0778
13509SOL    HW141968   7.304   5.943  10.906 -0.7772  0.2990 -0.1731
13509SOL    HW241969   7.259   6.020  10.785  0.6085  0.3715 -0.6636
13510SOL     OW41970   5.336   6.238   3.010  0.3238  0.2251  0.2434
13510SOL    HW141971   5.401   6.306   2.997  0.9293 -0.0658  1.5747
13510SOL    HW241972   5.253   6.279   2.989  0.9521  0.3436 -2.4253
13511SOL     OW41973   5.100   2.641   2.193  0.0281  0.0285 -0.1183
13511SOL    HW141974   5.029   2.705   2.190 -0.9088 -0.9534  0.1454
13511SOL    HW241975   5.076   2.583   2.265  1.3395 -0.0811  0.2617
13512SOL     OW41976   6.602   0.483   6.016 -0.6942 -0.0520 -0.0038
13512SOL    HW141977   6.650   0.524   6.089 -0.1299  0.4425 -0.6350
13512SOL    HW241978   6.630   0.392   6.018 -1.6379 -0.3369  1.1602
13513SOL     OW41979   0.235   2.203   3.916  0.1947 -0.1399 -0.1078
13513SOL    HW141980   0.288   2.278   3.893 -2.0521  1.2350 -1.1819
13513SOL    HW241981   0.196   2.175   3.833 -1.4637 -0.4583  0.7386
13514SOL     OW41982   4.455   2.202   0.055 -0.4850  0.2055 -0.5561
13514SOL    HW141983   4.444   2.242   0.141 -0.0771 -0.1004 -0.3579
13514SOL    HW241984   4.398   2.253  -0.003  0.3833  1.3923 -0.4062
13515SOL     OW41985   3.939   3.233  11.281 -0.0113 -0.0914  0.5252
13515SOL    HW141986   3.967   3.186  11.360 -1.3543  0.5989  1.4445
13515SOL    HW241987   3.968   3.178  11.208  1.6372 -0.5326  1.4713
13516SOL     OW41988   6.404   3.859   2.527  0.0917 -0.2028 -0.1012
13516SOL    HW141989   6.389   3.775   2.569  0.0869  0.2840  0.9117
13516SOL    HW241990   6.338   3.917   2.566  1.1774  0.6761  0.4989
13517SOL     OW41991   0.048   1.290   5.590 -0.5401 -0.4993  0.2388
13517SOL    HW141992   0.007   1.262   5.509 -3.3315 -0.2341  1.4466
13517SOL    HW241993   0.116   1.352   5.564 -0.3522 -1.5445 -1.9222
13518SOL     OW41994   0.283   0.106  12.011 -0.6339  0.1469 -0.8837
13518SOL    HW141995   0.315   0.188  12.049 -0.2354 -0.1139 -0.6454
13518SOL    HW241996   0.353   0.043  12.029 -0.7478 -0.1458 -1.4373
13519SOL     OW41997   3.374   0.465   5.031  0.1375 -0.3031  0.2534
13519SOL    HW141998   3.415   0.413   5.099 -0.0158 -0.2796  0.3655
13519SOL    HW241999   3.346   0.545   5.075  0.9055  0.1317 -0.0488
13520SOL     OW42000   6.192   4.663   9.901 -0.3506  0.0984 -0.1969
13520SOL    HW142001   6.103   4.636   9.926 -0.7115 -0.0460 -1.5511
13520SOL    HW242002   6.241   4.581   9.897  0.3251  0.3224  2.1973
13521SOL     OW42003   4.343   3.104   6.483 -0.1201 -0.3625  0.0363
13521SOL    HW142004   4.312   3.079   6.396 -1.6428  2.2959 -0.2919
13521SOL    HW242005   4.423   3.154   6.467 -1.2641  1.5573 -0.1019
13522SOL     OW42006   5.505   7.774   4.871 -0.2795  0.1855  0.6331
13522SOL    HW142007   5.429   7.717   4.887 -1.0023  0.8904 -0.2137
13522SOL    HW242008   5.535   7.798   4.959 -1.1498  0.0565  0.9822
13523SOL     OW42009   4.941   4.981   5.295 -0.2185  0.3255  0.0093
13523SOL    HW142010   4.963   5.042   5.365  0.5761 -0.2880  0.3094
13523SOL    HW242011   4.874   4.923   5.333  0.0687  0.1172  0.2011
13524SOL     OW42012   3.928   4.259   1.673 -0.4681 -0.2201 -0.0954
13524SOL    HW142013   4.000   4.321   1.666 -0.4616  0.1850  2.6338
13524SOL    HW242014   3.849   4.311   1.656 -0.2644 -0.2335 -1.1268
13525SOL     OW42015   6.821   5.727   0.214 -0.0328  0.0399  0.3719
13525SOL    HW142016   6.862   5.663   0.156  1.4809 -1.5217  2.9882
13525SOL    HW242017   6.888   5.794   0.227 -0.9809  1.3195 -0.9259
13526SOL     OW42018   4.190   5.134   4.600  0.4913 -0.5497 -0.5819
13526SOL    HW142019   4.278   5.101   4.582  1.3672  1.0061  0.5732
13526SOL    HW242020   4.137   5.055   4.613  1.5603 -1.5230 -1.9149
13527SOL     OW42021   1.762   4.505  10.426 -0.0497  0.3571  0.4223
13527SOL    HW142022   1.719   4.427  10.459 -1.8897  1.8852  1.8704
13527SOL    HW242023   1.854   4.495  10.453 -0.4758 -0.7920  1.5398
13528SOL     OW42024   1.019   3.038   7.073  0.4882  0.0407  0.3686
13528SOL    HW142025   0.992   2.946   7.068  0.1645  0.0873  1.0812
13528SOL    HW242026   0.956   3.085   7.019  0.8865 -0.2015 -0.3133
13529SOL     OW42027   2.191   0.094   9.024 -0.1440 -0.2677  0.2826
13529SOL    HW142028   2.278   0.124   9.050 -0.1052 -0.5525  0.4923
13529SOL    HW242029   2.200  -0.001   9.014 -0.6447 -0.4264  1.1903
13530SOL     OW42030   4.554   6.872   3.172 -0.6321  0.3664 -0.3509
13530SOL    HW142031   4.493   6.872   3.098 -1.6445  0.2348  0.4568
13530SOL    HW242032   4.553   6.962   3.204 -0.5447  0.3199 -0.2162
13531SOL     OW42033   2.647   6.908  10.022 -0.1288  0.1939  0.4147
13531SOL    HW142034   2.655   6.960  10.102  0.2318  0.0347  0.4832
13531SOL    HW242035   2.727   6.926   9.973 -0.7473  0.9881 -0.3295
13532SOL     OW42036   4.360   3.546  11.651  0.5518  0.3513  0.1647
13532SOL    HW142037   4.450   3.533  11.620 -0.1791 -0.8857 -1.6025
13532SOL    HW242038   4.313   3.579  11.575 -1.0605 -1.6068  0.2269
13533SOL     OW42039   7.596   1.772   6.695 -0.5697 -0.3443  0.0098
13533SOL    HW142040   7.591   1.686   6.654  3.0079 -0.8424  0.2738
13533SOL    HW242041   7.646   1.825   6.632  0.7585  0.3026  1.5246
13534SOL     OW42042   7.683   2.850   4.839  0.0113  0.3439  0.1047
13534SOL    HW142043   7.685   2.908   4.764  1.2995  1.8153  1.2073
13534SOL    HW242044   7.776   2.838   4.863 -0.3096 -0.9317  0.8338
13535SOL     OW42045   4.621   1.721   2.677  0.8857  0.5791  0.3899
13535SOL    HW142046   4.620   1.636   2.633  1.3653  1.6159 -1.7921
13535SOL    HW242047   4.620   1.700   2.770  0.3792 -1.7864 -0.0721
13536SOL     OW42048   4.381   7.567   9.312 -0.0126  0.4826  0.0999
13536SOL    HW142049   4.332   7.559   9.393 -0.4778  0.2438 -0.2007
13536SOL    HW242050   4.422   7.654   9.317  0.7917  0.0658  1.0324
13537SOL     OW42051   2.710   2.935   8.179  0.2342  0.1364 -0.5271
13537SOL    HW142052   2.729   2.993   8.253  0.9166  0.7929 -1.1911
13537SOL    HW242053   2.716   2.847   8.215  2.7522  0.3632 -0.2422
13538SOL     OW42054   4.790   5.755   4.961 -0.2146 -0.0356 -0.6352
13538SOL    HW142055   4.846   5.685   4.995  0.1279  0.8647  0.7197
13538SOL    HW242056   4.799   5.826   5.024 -1.8277  0.6471 -1.1223
13539SOL     OW42057   1.869   3.209   7.678  0.2774  0.0329 -0.3072
13539SOL    HW142058   1.930   3.136   7.687 -0.6497 -0.7043  0.2016
13539SOL    HW242059   1.816   3.186   7.602  0.7295  0.7480 -0.8469
13540SOL     OW42060   7.416   5.035   1.112  0.2459 -0.2314  0.4182
13540SOL    HW142061   7.489   5.049   1.051  1.2595  0.0085  1.6295
13540SOL    HW242062   7.457   4.992   1.188 -0.8725 -0.0680  1.1359
13541SOL     OW42063   3.535   7.866   8.229 -0.0441 -0.1594  0.1696
13541SOL    HW142064   3.581   7.949   8.221  1.3365 -0.7628  1.2794
13541SOL    HW242065   3.521   7.837   8.139  0.6360  0.6525 -0.2062
13542SOL     OW42066   1.554   7.588   9.087  1.0308  0.3063 -0.4039
13542SOL    HW142067   1.623   7.527   9.061  0.6092 -0.3193 -0.0747
13542SOL    HW242068   1.540   7.570   9.180  0.8876  0.8943 -0.3077
13543SOL     OW42069   3.214   7.566   0.719  0.0483 -0.7147  0.1880
13543SOL    HW142070   3.223   7.475   0.689 -1.1855 -0.6456 -0.4875
13543SOL    HW242071   3.303   7.599   0.725  0.4311 -1.2808 -1.7718
13544SOL     OW42072   3.343   1.018  11.285  0.2558  0.4254 -0.2724
13544SOL    HW142073   3.364   1.111  11.276  0.1712  0.4723  0.0174
13544SOL    HW242074   3.250   1.016  11.309  0.8409  0.3793  2.2581
13545SOL     OW42075   1.016   2.603   2.556  0.3424 -0.5781  0.3346
13545SOL    HW142076   1.000   2.667   2.626 -0.1585 -0.2794 -0.0465
13545SOL    HW242077   0.943   2.541   2.564 -0.1072 -0.1441 -0.3692
13546SOL     OW42078   5.950   5.891   2.905  0.2710  0.5195  0.0594
13546SOL    HW142079   5.990   5.965   2.860 -0.6446 -0.1043 -1.8591
13546SOL    HW242080   5.985   5.814   2.861 -1.3862 -0.0811 -0.2767
13547SOL     OW42081   7.196   6.701   7.845  0.6081  0.2657  0.3733
13547SOL    HW142082   7.288   6.705   7.820  0.3423 -0.1330 -0.7177
13547SOL    HW242083   7.156   6.777   7.801  0.2974  0.0706  0.3184
13548SOL     OW42084   6.121   5.357  12.058 -0.4918  0.0784 -0.3365
13548SOL    HW142085   6.086   5.415  11.990 -1.9007  1.9385  1.8206
13548SOL    HW242086   6.044   5.312  12.093  0.2477 -1.1016 -0.1649
13549SOL     OW42087   1.434   0.739   9.725 -0.4898 -0.3732 -0.6552
13549SOL    HW142088   1.447   0.691   9.806  1.3938 -0.7566 -1.1337
13549SOL    HW242089   1.482   0.689   9.659  0.2811  1.3366 -1.4556
13550SOL     OW42090   6.712   2.182   5.407  0.1955 -0.2853 -0.0922
13550SOL    HW142091   6.699   2.254   5.469  0.8151 -0.0048 -0.2858
13550SOL    HW242092   6.738   2.108   5.462 -0.9002 -0.5044  0.1615
13551SOL     OW42093   3.598   1.809  11.262 -0.1345 -0.4225  0.0162
13551SOL    HW142094   3.693   1.803  11.249 -0.0142  1.6878 -0.4668
13551SOL    HW242095   3.589   1.870  11.335 -1.1297  0.5480 -0.8898
13552SOL     OW42096   2.314   4.585   2.998 -0.3147  0.1641  0.3810
13552SOL    HW142097   2.251   4.530   2.951  0.0976  0.6833 -0.8161
13552SOL    HW242098   2.261   4.655   3.035 -0.5347  0.2487 -0.0850
13553SOL     OW42099   1.542   1.355   3.648  0.3270 -0.2524 -0.2302
13553SOL    HW142100   1.471   1.342   3.585 -1.3398  0.8046  1.3514
13553SOL    HW242101   1.570   1.267   3.672 -1.4437 -0.7277  0.1806
13554SOL     OW42102   1.156   0.398  12.028 -0.0042  0.1528 -0.0349
13554SOL    HW142103   1.248   0.371  12.019 -0.1151 -0.0115 -0.7267
13554SOL    HW242104   1.139   0.450  11.950 -0.3603  0.6034  0.3403
13555SOL     OW42105   6.324   6.046   9.621 -0.7220 -0.4290  0.0227
13555SOL    HW142106   6.406   6.082   9.588 -2.2440  1.1043 -2.3469
13555SOL    HW242107   6.315   5.962   9.577  0.1876 -1.2680  1.3622
13556SOL     OW42108   5.711   1.627   8.026  0.4458 -0.0366  0.2998
13556SOL    HW142109   5.659   1.636   8.106  1.3809  1.5251  0.7703
13556SOL    HW242110   5.687   1.703   7.974  1.7704  0.3762  0.2535
13557SOL     OW42111   6.250   5.712  11.991 -0.3814  0.3509 -0.4638
13557SOL    HW142112   6.269   5.786  11.934  1.3533  0.9389  0.7713
13557SOL    HW242113   6.336   5.685  12.024 -1.1999 -0.7807  0.8432
13558SOL     OW42114   0.720   7.548  10.027 -0.5306  0.0624  0.5064
13558SOL    HW142115   0.717   7.557  10.122 -1.5344  2.5748  0.3036
13558SOL    HW242116   0.701   7.635   9.993 -0.2857 -0.7670 -2.0256
13559SOL     OW42117   2.706   0.541   4.366 -0.9561 -0.2500  0.3250
13559SOL    HW142118   2.705   0.553   4.271 -1.2463  1.0301  0.4709
13559SOL    HW242119   2.756   0.460   4.379  0.8781  0.6202 -0.8307
13560SOL     OW42120   1.423   7.933   7.258  0.2953 -0.4419 -0.5550
13560SOL    HW142121   1.500   7.897   7.213  0.0367  0.2678 -1.5887
13560SOL    HW242122   1.427   8.027   7.241 -1.4049 -0.5146 -1.6043
13561SOL     OW42123   3.670   5.149   6.520 -0.1414  0.4042  0.1453
13561SOL    HW142124   3.600   5.084   6.514 -0.3704  0.7576 -1.7877
13561SOL    HW242125   3.663   5.199   6.438  1.7627  1.0801  0.3444
13562SOL     OW42126   7.564   3.469   8.167  0.2839 -0.6095  0.1823
13562SOL    HW142127   7.535   3.419   8.091  0.3967  1.2004 -1.1208
13562SOL    HW242128   7.532   3.558   8.151 -0.5070 -0.3411  2.7335
13563SOL     OW42129   0.500   7.712  11.400  0.2990 -0.3192 -0.4845
13563SOL    HW142130   0.473   7.804  11.393  0.4740 -0.2200  0.1274
13563SOL    HW242131   0.497   7.679  11.310 -1.6323 -0.2365 -0.5004
13564SOL     OW42132   7.715   2.809   9.481  0.7234  0.6560 -0.1523
13564SOL    HW142133   7.802   2.835   9.449  0.5854  0.6375 -0.5488
13564SOL    HW242134   7.699   2.866   9.556  1.4307  0.1004  0.4405
13565SOL     OW42135   7.821   0.109  10.717 -0.3381  0.1737  0.2775
13565SOL    HW142136   7.876   0.047  10.766 -2.4161 -0.7601  1.5606
13565SOL    HW242137   7.848   0.195  10.749 -0.2712 -0.3133  1.5831
13566SOL     OW42138   2.371   6.088   8.428 -0.1094 -0.0450 -0.4374
13566SOL    HW142139   2.365   6.184   8.418 -0.2441 -0.0051  0.0190
13566SOL    HW242140   2.289   6.064   8.470  0.2919 -0.2563  0.2442
13567SOL     OW42141   3.787   2.913   2.130 -0.2393 -0.3489  0.1579
13567SOL    HW142142   3.870   2.901   2.085 -0.9821  0.1655 -1.4211
13567SOL    HW242143   3.781   2.839   2.190  1.4716 -0.2411  0.5191
13568SOL     OW42144   7.697   0.563   5.207  0.5378  0.2377 -0.5207
13568SOL    HW142145   7.761   0.548   5.276  0.0005  0.0568 -0.0553
13568SOL    HW242146   7.637   0.488   5.213  0.2656  0.4194 -0.9293
13569SOL     OW42147   6.312   3.867   3.723  0.0224  0.7269  0.3730
13569SOL    HW142148   6.387   3.923   3.701 -1.0159  1.4027 -1.7115
13569SOL    HW242149   6.253   3.924   3.771  0.1232  0.6756  0.5559
13570SOL     OW42150   2.135   3.549  10.076  0.0656 -0.1550 -0.2563
13570SOL    HW142151   2.102   3.498  10.150  0.4865 -0.4899 -0.2947
13570SOL    HW242152   2.229   3.553  10.090  0.1480 -0.2161 -0.7714
13571SOL     OW42153   0.916   6.845  10.984  0.5849 -0.2868  0.3641
13571SOL    HW142154   0.896   6.757  11.014 -0.2357 -0.6066 -1.0358
13571SOL    HW242155   0.831   6.885  10.967  0.9813 -0.2313 -1.7055
13572SOL     OW42156   3.132   7.193   1.853 -0.1876 -0.0157  0.0191
13572SOL    HW142157   3.086   7.114   1.880 -0.5811 -0.7269 -2.5132
13572SOL    HW242158   3.066   7.262   1.860  0.0502  0.0884  1.8695
13573SOL     OW42159   5.943   5.522  10.412 -0.1590 -0.2698  0.5281
13573SOL    HW142160   5.949   5.544  10.505  0.7497 -1.1926  0.7052
13573SOL    HW242161   6.015   5.570  10.372 -1.4372  1.3340  0.0156
13574SOL     OW42162   5.903   1.639   4.912 -0.7361 -0.0830 -0.0560
13574SOL    HW142163   5.836   1.705   4.927  0.3542  0.4910  3.1411
13574SOL    HW242164   5.960   1.676   4.844 -2.0920  0.6216 -0.8362
13575SOL     OW42165   7.628   1.620   0.016 -0.2114 -0.1498  0.2339
13575SOL    HW142166   7.635   1.580   0.103 -1.4999 -1.3002 -0.1503
13575SOL    HW242167   7.664   1.708   0.027  0.2279 -0.4874  1.7748
13576SOL     OW42168   1.932   3.327   6.550  0.0390  0.4316  0.0089
13576SOL    HW142169   1.858   3.311   6.609 -1.5205  0.5867 -1.8241
13576SOL    HW242170   1.892   3.351   6.467  2.1844  1.3465 -0.8353
13577SOL     OW42171   6.667   0.582   4.378 -0.0688  0.0473 -0.7733
13577SOL    HW142172   6.708   0.496   4.364 -0.5616 -0.3631  0.2037
13577SOL    HW242173   6.573   0.564   4.374 -0.3701 -0.2926  3.3621
13578SOL     OW42174   1.646   1.441   0.510 -0.5160 -0.2236 -0.0619
13578SOL    HW142175   1.584   1.501   0.551  0.4572  0.0757  1.0034
13578SOL    HW242176   1.715   1.429   0.575 -1.0043 -3.0673  0.0861
13579SOL     OW42177   0.214   5.488   0.978 -0.0302  0.0390 -0.1561
13579SOL    HW142178   0.279   5.494   0.908 -0.3836 -1.0246 -0.5814
13579SOL    HW242179   0.162   5.568   0.968 -0.9562 -0.7455 -1.9920
13580SOL     OW42180   4.097   4.854   0.467 -0.0628  0.0511  0.5705
13580SOL    HW142181   4.117   4.937   0.424  1.7111 -0.5326  0.1964
13580SOL    HW242182   4.160   4.848   0.539 -0.7276 -0.5845  1.1113
13581SOL     OW42183   0.000   2.045   8.754  0.3074  0.6530  0.4053
13581SOL    HW142184  -0.081   2.023   8.799  0.1328  0.3299 -0.0692
13581SOL    HW242185   0.057   1.970   8.769  0.1139  0.3735 -0.2372
13582SOL     OW42186   7.567   2.673   2.495 -0.4588 -0.2881 -0.0161
13582SOL    HW142187   7.620   2.737   2.447  0.0893 -0.3575  0.4806
13582SOL    HW242188   7.484   2.669   2.447  0.1898 -0.6010 -1.1394
13583SOL     OW42189   4.386   2.105   2.993 -0.2148  0.2021  0.2619
13583SOL    HW142190   4.416   2.135   2.907 -1.1086 -0.5902 -0.3523
13583SOL    HW242191   4.362   2.185   3.040 -1.4214  0.5535 -0.8999
13584SOL     OW42192   3.578   1.131   5.585  0.0664 -0.0066  0.4194
13584SOL    HW142193   3.597   1.149   5.493  1.3164  1.3127  0.8986
13584SOL    HW242194   3.502   1.185   5.605  0.8661  1.0710  0.5990
13585SOL     OW42195   6.743   0.044   8.743 -0.3637  0.6354 -0.4734
13585SOL    HW142196   6.800   0.025   8.818 -3.1422 -0.9623  1.4672
13585SOL    HW242197   6.767  -0.022   8.678  1.7179  1.6800 -0.8445
13586SOL     OW42198   2.082   2.446   0.169  0.0553 -0.2633 -0.4996
13586SOL    HW142199   2.117   2.495   0.243  3.0397 -0.4232 -1.7034
13586SOL    HW242200   2.060   2.360   0.205  1.2473 -0.2559  0.2871
13587SOL     OW42201   1.625   0.780   4.687 -0.0241 -0.3006 -0.1562
13587SOL    HW142202   1.531   0.794   4.685 -0.0823 -0.6536  0.0338
13587SOL    HW242203   1.637   0.700   4.738  0.3029 -0.8926 -1.1349
13588SOL     OW42204   4.481   3.643   8.442  0.4881 -0.1285  0.0052
13588SOL    HW142205   4.537   3.702   8.391  0.3850 -1.8531 -2.2223
13588SOL    HW242206   4.421   3.605   8.379 -0.1091 -1.8904  1.5316
13589SOL     OW42207   5.249   3.488   3.034  0.7326  0.1058  0.0387
13589SOL    HW142208   5.312   3.556   3.011  1.4058 -0.0905  1.2071
13589SOL    HW242209   5.163   3.529   3.021  1.1231  1.2914  0.9567
13590SOL     OW42210   5.234   3.773   2.074  0.4147 -0.7080  0.0076
13590SOL    HW142211   5.200   3.701   2.128 -0.9973  0.6248  0.9969
13590SOL    HW242212   5.326   3.779   2.098  0.1883 -1.1945  1.0948
13591SOL     OW42213   5.146   0.528   4.943  0.0703  0.2918  0.7008
13591SOL    HW142214   5.177   0.441   4.966  2.9851  1.0482  0.0368
13591SOL    HW242215   5.218   0.587   4.966 -0.9780  2.2803 -0.7310
13592SOL     OW42216   7.626   6.939   1.058 -0.0520  0.4414  0.1839
13592SOL    HW142217   7.680   6.949   1.137 -0.3586 -0.7089  0.5629
13592SOL    HW242218   7.671   6.872   1.007  0.2449  1.3214 -0.7220
13593SOL     OW42219   4.525   1.606   4.219 -0.0434 -0.4404 -0.0026
13593SOL    HW142220   4.606   1.555   4.226 -0.9653 -1.9889 -0.2325
13593SOL    HW242221   4.467   1.553   4.165 -1.0327  0.9046 -0.3170
13594SOL     OW42222   2.793   4.771   6.860  0.0193  0.4780 -0.4096
13594SOL    HW142223   2.760   4.725   6.783 -0.0535  0.3131 -0.2803
13594SOL    HW242224   2.764   4.861   6.848 -0.1055  0.4252 -0.5104
13595SOL     OW42225   2.074   2.959   0.394 -0.4012  0.2953 -0.0142
13595SOL    HW142226   1.980   2.941   0.397 -0.3074 -0.3636 -0.7208
13595SOL    HW242227   2.082   3.048   0.426 -1.2211  0.1939  0.5043
13596SOL     OW42228   5.777   0.778   2.458  0.9658  0.3791  0.0314
13596SOL    HW142229   5.694   0.776   2.506 -0.3279  2.0563 -1.9634
13596SOL    HW242230   5.835   0.832   2.513  0.3408  0.2491  0.8326
13597SOL     OW42231   5.316   1.576   3.065 -0.1932 -0.1523  0.1809
13597SOL    HW142232   5.340   1.663   3.033  1.1108  0.0234  1.5245
13597SOL    HW242233   5.400   1.530   3.074 -0.7293 -1.0127  0.9896
13598SOL     OW42234   5.071   1.185   0.405 -0.1786  0.0757 -0.1662
13598SOL    HW142235   5.058   1.217   0.316 -1.3694 -0.2720 -0.1406
13598SOL    HW242236   5.064   1.090   0.398  0.9103 -0.0305  0.1241
13599SOL     OW42237   4.723   5.855   3.758  0.2212 -0.1934 -0.1209
13599SOL    HW142238   4.641   5.813   3.783 -0.0452  0.2449 -0.2344
13599SOL    HW242239   4.696   5.937   3.717  0.7492  0.4667  0.8121
13600SOL     OW42240   2.720   1.145   9.900 -0.3049  0.1358  0.3892
13600SOL    HW142241   2.767   1.095   9.967  1.9982  1.1819 -0.3280
13600SOL    HW242242   2.633   1.159   9.937  0.9660  1.0141  3.4061
13601SOL     OW42243   2.118   7.359   5.632  0.0109  0.0574 -0.4285
13601SOL    HW142244   2.205   7.327   5.609  0.7361  0.9192  0.9598
13601SOL    HW242245   2.128   7.394   5.721 -1.6825  0.4469 -0.3587
13602SOL     OW42246   6.902   2.169  11.722  0.3879  0.3420 -0.2251
13602SOL    HW142247   6.989   2.138  11.747  0.6371  1.1714 -0.0247
13602SOL    HW242248   6.855   2.090  11.696  0.6650 -0.3476  1.2273
13603SOL     OW42249   1.073   0.033   3.533  0.2235 -0.2602 -0.2670
13603SOL    HW142250   1.086   0.080   3.615  0.6767 -1.7391  0.5431
13603SOL    HW242251   1.104   0.094   3.466 -1.0076  1.3322  0.5543
13604SOL     OW42252   1.130   7.944   0.695  0.0411  0.9319 -0.0785
13604SOL    HW142253   1.113   7.996   0.617 -1.6348  2.0623  0.9882
13604SOL    HW242254   1.101   7.999   0.768 -3.6802 -2.0923  1.0348
13605SOL     OW42255   0.711   4.509   0.051 -0.3906  0.0144 -0.2907
13605SOL    HW142256   0.677   4.597   0.067 -0.7537 -0.1562 -0.1310
13605SOL    HW242257   0.794   4.524   0.006 -1.0980  0.4100 -1.4995
13606SOL     OW42258   7.836   6.746   9.298 -0.4694  0.1473 -0.4456
13606SOL    HW142259   7.891   6.818   9.329  0.8376 -0.8158 -0.4478
13606SOL    HW242260   7.753   6.758   9.344  0.8215 -0.2326  2.1745
13607SOL     OW42261   2.541   6.648   7.054  0.0632  0.2134  0.2897
13607SOL    HW142262   2.504   6.694   7.129  0.9784 -1.2434  1.6794
13607SOL    HW242263   2.465   6.617   7.005 -0.5663  2.3182 -0.1792
13608SOL     OW42264   6.743   7.794   1.246  0.1520 -0.0507  0.0409
13608SOL    HW142265   6.752   7.864   1.311 -1.2693  0.3092 -0.1211
13608SOL    HW242266   6.652   7.765   1.254  0.8324 -2.2789  0.4867
13609SOL     OW42267   0.600   0.373   4.454  0.0546  0.4138  0.2484
13609SOL    HW142268   0.517   0.371   4.501 -0.2008  0.2024 -0.2022
13609SOL    HW242269   0.622   0.281   4.439  0.3840  0.4695  0.3943
13610SOL     OW42270   1.268   4.579   2.110 -0.2197  0.0222  0.1076
13610SOL    HW142271   1.241   4.671   2.111  0.5042  0.2561 -0.7389
13610SOL    HW242272   1.214   4.539   2.042  2.7909  0.9390 -3.0846
13611SOL     OW42273   2.884   7.715  11.770 -0.5223 -0.2034  0.1114
13611SOL    HW142274   2.871   7.715  11.865  0.4903 -0.1874  0.2592
13611SOL    HW242275   2.967   7.760  11.757 -0.1465 -1.1019 -0.7110
13612SOL     OW42276   5.445   5.378   2.340 -0.2233  0.1955 -0.3486
13612SOL    HW142277   5.444   5.429   2.421  2.7715 -0.5230  0.2677
13612SOL    HW242278   5.444   5.287   2.368 -0.3052 -0.0661 -1.1584
13613SOL     OW42279   7.364   6.034   3.347 -0.1855 -0.2206 -0.3467
13613SOL    HW142280   7.388   6.112   3.297 -0.1011 -0.1164 -0.1476
13613SOL    HW242281   7.269   6.032   3.345 -0.2583  0.7659  0.9571
13614SOL     OW42282   5.568   3.712   0.113 -0.0260  0.3599 -0.2612
13614SOL    HW142283   5.497   3.686   0.172  0.3053  1.0527  0.4594
13614SOL    HW242284   5.624   3.768   0.166  0.7890  0.2366 -0.9749
13615SOL     OW42285   0.638   2.610  12.445  0.2629  0.2526 -0.4246
13615SOL    HW142286   0.626   2.536  12.505  0.3074  1.5259  1.2475
13615SOL    HW242287   0.599   2.582  12.363  2.0300 -2.3643 -0.4854
13616SOL     OW42288   3.883   6.402  11.219 -0.0399 -0.8750 -0.5952
13616SOL    HW142289   3.866   6.316  11.182 -1.1995 -0.8541 -0.1389
13616SOL    HW242290   3.797   6.443  11.226  0.3497 -0.1786  0.4087
13617SOL     OW42291   4.978   5.216   7.407  0.0507 -0.1436 -0.1218
13617SOL    HW142292   4.895   5.220   7.455 -0.5017 -2.4097 -0.7756
13617SOL    HW242293   5.044   5.236   7.473 -0.9626  1.4342  0.4748
13618SOL     OW42294   1.379   0.114   8.405  0.5159 -0.5356  0.5582
13618SOL    HW142295   1.298   0.111   8.355  0.0848 -0.9094  1.2687
13618SOL    HW242296   1.376   0.036   8.460  1.9977 -1.3022 -0.3774
13619SOL     OW42297   6.388   4.051   0.304  0.2925 -0.4994  0.6815
13619SOL    HW142298   6.294   4.041   0.292  0.5210 -0.5959 -1.4835
13619SOL    HW242299   6.398   4.137   0.345 -0.6840  0.6789 -1.3804
13620SOL     OW42300   1.070   3.179   6.462 -0.1956 -0.2784  0.2047
13620SOL    HW142301   1.005   3.166   6.393 -0.1290  0.2578  0.0362
13620SOL    HW242302   1.021   3.165   6.544 -1.5159  3.5251  0.3121
13621SOL     OW42303   3.668   4.457   6.988  0.2073  0.1963  0.0401
13621SOL    HW142304   3.707   4.531   7.034 -1.0917  0.2926  1.0374
13621SOL    HW242305   3.743   4.404   6.961  1.0621  0.8179  1.1137
13622SOL     OW42306   2.410   2.244  12.433  0.4559 -0.0077 -0.0261
13622SOL    HW142307   2.320   2.220  12.453  0.5094 -0.5761 -0.4635
13622SOL    HW242308   2.447   2.270  12.518  0.2986 -1.1393  0.4035
13623SOL     OW42309   1.074   4.158   1.252 -0.0432 -0.1152 -0.6280
13623SOL    HW142310   1.014   4.171   1.178  0.5792  0.6653 -1.0072
13623SOL    HW242311   1.156   4.131   1.212  0.0769 -0.4622 -0.1572
13624SOL     OW42312   2.705   6.955   3.202 -0.8378 -0.3614 -0.0705
13624SOL    HW142313   2.661   6.872   3.183 -2.6587  0.7281 -0.7776
13624SOL    HW242314   2.687   7.010   3.126  0.0696  0.8077  0.5306
13625SOL     OW42315   5.665   7.543   7.285 -0.4634 -0.7430  0.1276
13625SOL    HW142316   5.665   7.486   7.208 -0.5050 -1.2526  0.4955
13625SOL    HW242317   5.607   7.498   7.347  1.3901 -1.5757  1.3463
13626SOL     OW42318   0.976   4.411   6.699  0.5721  0.0935  0.4527
13626SOL    HW142319   0.977   4.505   6.715  2.0664  0.0684  0.6893
13626SOL    HW242320   1.068   4.384   6.709  0.0058 -1.5791  1.4855
13627SOL     OW42321   0.726   5.298  11.022  0.4478  0.3080  0.3830
13627SOL    HW142322   0.752   5.208  11.004 -0.7702  0.1399 -0.6767
13627SOL    HW242323   0.646   5.290  11.074 -0.6462  0.7178 -1.1581
13628SOL     OW42324   1.022   5.616   2.411 -0.0481  0.1225 -0.4556
13628SOL    HW142325   1.077   5.584   2.482  0.1899 -1.5147 -1.3077
13628SOL    HW242326   1.083   5.654   2.348  0.5556 -3.4927 -2.3582
13629SOL     OW42327   5.632   5.438   3.108 -0.5850  0.8690  0.0260
13629SOL    HW142328   5.587   5.515   3.141  0.9118  1.5997  0.4232
13629SOL    HW242329   5.605   5.367   3.166 -0.6902  1.4398  0.6749
13630SOL     OW42330   5.153   0.588   8.785 -0.5115 -0.5027 -0.0992
13630SOL    HW142331   5.120   0.503   8.816  0.9032 -0.8017  0.6904
13630SOL    HW242332   5.212   0.565   8.713  1.8064 -0.4903  1.6647
13631SOL     OW42333   0.323   2.382   9.132 -0.2653  0.8001 -0.0656
13631SOL    HW142334   0.381   2.388   9.208 -0.6885  0.5548  0.2814
13631SOL    HW242335   0.336   2.292   9.100 -1.5393  0.2291  0.9081
13632SOL     OW42336   7.230   2.674   9.355  0.2466 -0.1013  0.0593
13632SOL    HW142337   7.140   2.689   9.385  0.4676 -1.4656  1.5192
13632SOL    HW242338   7.279   2.652   9.434  2.0323  1.1943 -0.6154
13633SOL     OW42339   0.631   7.742   7.265  0.1367 -0.0946 -0.0575
13633SOL    HW142340   0.712   7.771   7.224 -0.3588  0.9802 -0.2923
13633SOL    HW242341   0.562   7.789   7.219 -0.5762 -0.4666  0.6082
13634SOL     OW42342   3.100   5.332   5.542  0.1862  0.5444 -0.4495
13634SOL    HW142343   3.121   5.248   5.583  0.0868  1.0185  0.6071
13634SOL    HW242344   3.181   5.382   5.546 -0.1001  0.9836  0.1704
13635SOL     OW42345   5.334   0.972  10.993  0.1432  0.2014  0.1496
13635SOL    HW142346   5.395   1.039  11.022 -1.7518  1.0021  2.6475
13635SOL    HW242347   5.291   1.010  10.916  1.8817  0.1146 -0.9016
13636SOL     OW42348   2.638   6.542   5.787 -0.0661  0.1991  0.2725
13636SOL    HW142349   2.654   6.470   5.849 -4.0555  0.2325  1.6241
13636SOL    HW242350   2.672   6.620   5.831 -0.5055 -0.1447  1.2403
13637SOL     OW42351   5.510   5.418   4.585  0.1281  0.4350  0.6407
13637SOL    HW142352   5.453   5.406   4.508  0.4542 -0.5976  0.5494
13637SOL    HW242353   5.456   5.389   4.658  0.2271  0.3058  0.6618
13638SOL     OW42354   7.013   2.580   8.036 -0.2757  0.2773 -0.0398
13638SOL    HW142355   6.947   2.556   8.102  0.6691  0.6827  1.0961
13638SOL    HW242356   7.067   2.646   8.080  1.4480 -0.7073 -0.5857
13639SOL     OW42357   2.232   5.936   2.944  0.3564  0.4684  0.1618
13639SOL    HW142358   2.181   5.924   3.024 -1.5434 -0.0873 -1.0565
13639SOL    HW242359   2.322   5.947   2.974 -0.3759  0.9051  2.3950
13640SOL     OW42360   1.231   3.664   3.482  0.0741 -0.1463 -0.0130
13640SOL    HW142361   1.196   3.582   3.448 -0.8491 -0.8003  2.3286
13640SOL    HW242362   1.161   3.699   3.537  1.1868  1.1985  0.6053
13641SOL     OW42363   0.880   7.453   3.681  0.0507 -0.2455  0.0638
13641SOL    HW142364   0.845   7.439   3.769  1.6738  0.3374  0.8295
13641SOL    HW242365   0.938   7.529   3.690  1.5556 -1.2009 -1.1311
13642SOL     OW42366   6.170   6.948  10.544 -0.4172 -0.1648 -0.0141
13642SOL    HW142367   6.218   6.991  10.615  0.2309 -2.2007  0.8777
13642SOL    HW242368   6.208   6.860  10.541 -1.5867 -0.6454 -1.8005
13643SOL     OW42369   4.279   7.036   8.394 -0.4006 -0.0721  0.2391
13643SOL    HW142370   4.251   6.974   8.327  0.5422 -0.6975  0.3992
13643SOL    HW242371   4.227   7.013   8.471 -2.5308  1.5662 -0.6075
13644SOL     OW42372   6.431   4.232   3.304  0.3006 -0.2980  0.0584
13644SOL    HW142373   6.337   4.222   3.317  0.0018  1.7797 -0.2122
13644SOL    HW242374   6.461   4.284   3.378  0.8606  0.7284 -0.8574
13645SOL     OW42375   7.542   1.801   1.295 -0.0176 -0.1575 -0.1219
13645SOL    HW142376   7.496   1.756   1.224  1.5586  0.5170 -1.6450
13645SOL    HW242377   7.474   1.851   1.340 -1.2278 -1.4526 -0.4628
13646SOL     OW42378   2.562   0.147   5.790 -0.4650 -0.1858  0.2451
13646SOL    HW142379   2.610   0.224   5.819 -0.9915 -0.2346  1.2713
13646SOL    HW242380   2.630   0.085   5.764  0.0327 -0.1338  1.3683
13647SOL     OW42381   3.522   5.516   0.798  0.2144  0.0125 -0.1690
13647SOL    HW142382   3.607   5.558   0.817  0.3185 -0.8654  1.4463
13647SOL    HW242383   3.460   5.560   0.855 -0.4312  0.5347 -1.2285
13648SOL     OW42384   7.509   7.618   0.496  0.3636  0.2238  0.0226
13648SOL    HW142385   7.430   7.565   0.487 -0.7673  1.7505  0.5603
13648SOL    HW242386   7.490   7.699   0.448  1.8982  0.3362 -0.4722
13649SOL     OW42387   5.908   1.698   0.849 -0.3150  0.3639 -0.3845
13649SOL    HW142388   5.839   1.749   0.807  0.0233  0.4772 -0.8083
13649SOL    HW242389   5.902   1.611   0.809 -1.1956 -0.0804  0.6743
13650SOL     OW42390   3.451   4.386   2.449  0.1883  0.7618 -0.5349
13650SOL    HW142391   3.504   4.319   2.491 -2.8335 -1.4225  0.1421
13650SOL    HW242392   3.457   4.365   2.355 -1.1223 -0.8919 -0.2984
13651SOL     OW42393   5.079   0.539   6.824 -0.4255 -0.1301 -1.0442
13651SOL    HW142394   5.148   0.473   6.836 -0.4915 -0.0116  0.0965
13651SOL    HW242395   5.029   0.536   6.906 -1.2687  0.3765 -1.5340
13652SOL     OW42396   6.262   0.558   7.847  0.2588 -0.1903  0.3588
13652SOL    HW142397   6.181   0.515   7.875 -0.3205 -0.5270 -1.7115
13652SOL    HW242398   6.296   0.504   7.776  1.8270  0.4611  0.5522
13653SOL     OW42399   2.042   7.162   0.202 -0.3398 -0.4519  0.3495
13653SOL    HW142400   2.115   7.224   0.204 -0.0927 -0.4709 -2.8869
13653SOL    HW242401   2.083   7.076   0.204 -0.2164 -0.4621 -1.3693
13654SOL     OW42402   5.947   0.831   9.268 -0.2820 -0.0029 -0.2277
13654SOL    HW142403   6.022   0.891   9.267 -0.4829  0.2517 -0.9530
13654SOL    HW242404   5.929   0.817   9.361 -0.2668  1.1064 -0.0400
13655SOL     OW42405   5.364   6.284   2.539 -0.4952  0.4389 -0.6357
13655SOL    HW142406   5.407   6.319   2.617  0.8017 -1.1386 -0.5935
13655SOL    HW242407   5.337   6.195   2.564 -0.4139  0.0525 -1.8380
13656SOL     OW42408   6.304   1.632  10.851 -0.1561 -0.1070  0.5344
13656SOL    HW142409   6.325   1.539  10.841  0.4535  0.1709 -1.0447
13656SOL    HW242410   6.387   1.673  10.874 -0.6744 -0.0941  2.5647
13657SOL     OW42411   7.345   5.607  12.323 -0.0427 -0.2928 -0.0331
13657SOL    HW142412   7.378   5.697  12.321 -1.1549  0.1302 -0.2291
13657SOL    HW242413   7.251   5.617  12.336  0.2559 -1.4961  5.1679
13658SOL     OW42414   1.618   3.192   7.139  0.1802  0.2773  0.3025
13658SOL    HW142415   1.689   3.244   7.178 -0.9397  0.9669  1.5444
13658SOL    HW242416   1.606   3.119   7.200  0.4335 -0.3495 -0.3932
13659SOL     OW42417   3.035   2.532   3.755 -0.2539 -0.2952  0.2879
13659SOL    HW142418   3.034   2.446   3.797 -0.8785 -1.5864 -2.2372
13659SOL    HW242419   3.104   2.527   3.690 -1.7010  0.3380 -1.3616
13660SOL     OW42420   3.565   6.137   9.964 -0.5170 -0.0693  0.2691
13660SOL    HW142421   3.608   6.110  10.046 -0.5190 -0.3445  0.1800
13660SOL    HW242422   3.576   6.232   9.962 -1.6892  0.1203  1.2608
13661SOL     OW42423   7.632   5.838   2.766  0.7253 -0.0443  0.0247
13661SOL    HW142424   7.663   5.829   2.856  1.7258 -1.3520 -0.4189
13661SOL    HW242425   7.623   5.748   2.735 -3.6372  0.1584  0.0827
13662SOL     OW42426   5.993   3.960  10.625 -0.2235  0.2840  0.1230
13662SOL    HW142427   5.900   3.971  10.607 -0.2503  0.5350  0.4085
13662SOL    HW242428   6.035   3.965  10.539 -0.5316 -0.4598 -0.0741
13663SOL     OW42429   5.877   3.695   2.691  0.3242 -0.0285  0.8807
13663SOL    HW142430   5.915   3.727   2.609 -0.0851 -1.1240  0.2368
13663SOL    HW242431   5.944   3.713   2.757  1.4394 -0.7550 -0.0148
13664SOL     OW42432   5.936   4.372   9.703 -0.4599 -0.7347  0.5149
13664SOL    HW142433   5.972   4.283   9.710 -2.3080 -1.5104  0.8292
13664SOL    HW242434   5.844   4.359   9.680 -0.8415  1.0948  0.8351
13665SOL     OW42435   1.410   4.442  11.962 -0.2723 -0.8836  0.3312
13665SOL    HW142436   1.500   4.435  11.994 -0.1615  0.6665  0.4003
13665SOL    HW242437   1.365   4.493  12.028 -0.3965  1.1273 -1.2163
13666SOL     OW42438   1.230   0.833   3.478 -0.2849  0.0886 -0.5249
13666SOL    HW142439   1.321   0.861   3.487  0.0449 -1.1548  0.1050
13666SOL    HW242440   1.221   0.809   3.386 -0.0343  0.3652 -0.6248
13667SOL     OW42441   4.728   4.753   1.635 -0.2004 -0.2170  0.3440
13667SOL    HW142442   4.733   4.699   1.556  2.3827 -1.0483  0.9648
13667SOL    HW242443   4.722   4.690   1.706  0.6491  0.3622  0.9490
13668SOL     OW42444   1.854   2.237   3.989 -0.1053 -0.6161 -0.1852
13668SOL    HW142445   1.792   2.294   3.945 -0.3542  0.1678  1.1118
13668SOL    HW242446   1.837   2.149   3.954 -1.1492 -0.2207 -0.6810
13669SOL     OW42447   0.542   4.301   3.053  0.2069  0.0298 -0.4413
13669SOL    HW142448   0.483   4.372   3.026  1.0730  0.3990 -1.3726
13669SOL    HW242449   0.483   4.233   3.086 -1.0235 -0.8832 -4.1340
13670SOL     OW42450   4.592   2.309   9.371 -0.0623  0.0937  1.2742
13670SOL    HW142451   4.550   2.264   9.298  1.4787 -2.9034  2.0920
13670SOL    HW242452   4.527   2.308   9.441 -0.1432 -0.6948  1.1962
13671SOL     OW42453   7.155   7.919   2.223 -0.3474  0.2371  0.2728
13671SOL    HW142454   7.221   7.981   2.190  0.1170 -0.8448 -0.9329
13671SOL    HW242455   7.077   7.938   2.170 -0.0168 -0.5898 -0.5370
13672SOL     OW42456   3.501   2.888   8.325  0.2601 -0.4100 -0.0312
13672SOL    HW142457   3.534   2.932   8.246  1.7188 -0.1050  0.7051
13672SOL    HW242458   3.411   2.919   8.334  1.7516  4.2032  1.5600
13673SOL     OW42459   3.220   5.075   5.589  0.1747  0.1906  0.1694
13673SOL    HW142460   3.195   5.015   5.519 -2.8962  2.8013 -1.2199
13673SOL    HW242461   3.286   5.131   5.550 -0.0551  0.3562  0.0117
13674SOL     OW42462   4.787   2.516   7.814 -0.0208  0.0606  0.2382
13674SOL    HW142463   4.720   2.580   7.840 -0.9537 -0.0562 -1.6541
13674SOL    HW242464   4.738   2.435   7.801  0.3197  0.1043 -1.7171
13675SOL     OW42465   6.669   1.188   3.942 -0.0611 -0.5836 -0.2380
13675SOL    HW142466   6.611   1.205   4.016  0.1762 -2.1513  0.3525
13675SOL    HW242467   6.689   1.275   3.906  1.4201  0.4551  2.7619
13676SOL     OW42468   7.773   4.113   7.648 -0.1345  0.5597  0.5654
13676SOL    HW142469   7.749   4.153   7.564 -2.3859 -2.5682 -0.4692
13676SOL    HW242470   7.839   4.048   7.625 -0.5810 -0.1448  1.2208
13677SOL     OW42471   4.134   6.914   1.940 -0.5215 -0.0711  0.0979
13677SOL    HW142472   4.120   6.820   1.928 -2.5403  0.2445 -0.4689
13677SOL    HW242473   4.223   6.929   1.909 -0.1463 -1.7958  0.2290
13678SOL     OW42474   0.785   3.234   8.307 -0.9569  0.3588 -0.2464
13678SOL    HW142475   0.852   3.204   8.369  0.0880  1.7765 -0.6419
13678SOL    HW242476   0.719   3.276   8.362 -1.2010 -0.4651  0.0965
13679SOL     OW42477   6.998   5.693   7.977  0.0224  0.0431 -0.5670
13679SOL    HW142478   6.910   5.724   7.999  0.1183 -1.1860  1.8279
13679SOL    HW242479   6.997   5.600   7.999  2.1478  0.1734  0.2986
13680SOL     OW42480   5.279   5.681   4.612  0.1686 -0.2325  0.6751
13680SOL    HW142481   5.317   5.594   4.608  0.2032 -0.4385  3.6629
13680SOL    HW242482   5.351   5.738   4.638  0.0918  0.6908 -1.0278
13681SOL     OW42483   7.412   7.466   2.000 -0.2659 -0.2317 -0.9123
13681SOL    HW142484   7.435   7.401   2.067  0.5053 -0.4104 -1.3402
13681SOL    HW242485   7.330   7.504   2.031 -0.3424 -0.8902 -0.2797
13682SOL     OW42486   0.394   2.696   4.737 -0.1556 -0.3014  0.6319
13682SOL    HW142487   0.373   2.717   4.646  0.3777 -0.3227  0.4989
13682SOL    HW242488   0.436   2.610   4.733  0.8008  0.1454  0.7730
13683SOL     OW42489   4.102   0.302   0.595 -0.0657 -0.0662  0.0003
13683SOL    HW142490   4.086   0.342   0.510 -0.6491  0.6711  0.4413
13683SOL    HW242491   4.084   0.372   0.658  1.7014 -0.1703  0.6941
13684SOL     OW42492   5.819   4.015   6.006 -0.7925 -0.3051  0.2270
13684SOL    HW142493   5.884   4.073   6.046 -0.2567  1.5332 -2.9671
13684SOL    HW242494   5.739   4.030   6.057  0.1203  0.8844  1.3874
13685SOL     OW42495   7.308   1.747  10.301  0.1164 -0.2279  0.0976
13685SOL    HW142496   7.228   1.741  10.248  0.4397 -2.3993 -0.2326
13685SOL    HW242497   7.277   1.760  10.390 -0.5182  1.0024 -0.2791
13686SOL     OW42498   2.942   1.460   8.633 -0.5783 -0.0273  0.2004
13686SOL    HW142499   2.888   1.396   8.680  1.4829 -1.8743  0.2019
13686SOL    HW242500   2.948   1.535   8.693 -0.4231 -1.1364  1.6341
13687SOL     OW42501   6.158   4.458   3.437  0.0057 -0.4065 -0.0567
13687SOL    HW142502   6.164   4.487   3.346 -0.4357 -1.6696 -0.5055
13687SOL    HW242503   6.218   4.516   3.485 -0.2224  0.6797 -1.0329
13688SOL     OW42504   2.761   6.042   3.571 -0.2286 -0.2290  0.0942
13688SOL    HW142505   2.798   6.092   3.498  1.0624 -2.2319 -0.7106
13688SOL    HW242506   2.684   5.999   3.533  0.1720 -0.8939  0.0151
13689SOL     OW42507   5.021   1.839   9.432  0.0553 -0.0328 -0.6517
13689SOL    HW142508   5.036   1.781   9.508  0.3628  0.4156 -0.3642
13689SOL    HW242509   4.934   1.876   9.448  0.3841  0.5531 -0.1817
13690SOL     OW42510   1.649   0.258  12.001  0.1342 -0.0646 -0.9399
13690SOL    HW142511   1.665   0.322  11.932  0.9573  0.3732 -0.3563
13690SOL    HW242512   1.653   0.173  11.956  0.8005  0.2065 -1.4033
13691SOL     OW42513   3.991   5.487   4.307  0.5912 -0.1549  0.3529
13691SOL    HW142514   3.909   5.438   4.317  1.3548 -1.5189  0.1499
13691SOL    HW242515   4.052   5.445   4.367  1.2452  0.6350  0.2528
13692SOL     OW42516   3.814   5.594  12.363  0.0765  0.3523 -0.4170
13692SOL    HW142517   3.889   5.637  12.404  0.2365 -1.7275  1.6567
13692SOL    HW242518   3.738   5.635  12.404 -0.0169  2.4000 -2.4563
13693SOL     OW42519   0.654   0.851   4.386  0.6855  0.5304  0.2741
13693SOL    HW142520   0.565   0.875   4.359  1.0451  1.7784  0.1491
13693SOL    HW242521   0.643   0.818   4.475  0.3179  2.5730  1.0469
13694SOL     OW42522   7.886   6.173   1.938 -0.6268 -0.0561 -0.4677
13694SOL    HW142523   7.891   6.191   2.032  0.2391  1.3296 -0.7410
13694SOL    HW242524   7.914   6.255   1.897 -1.2107 -0.5668 -1.9431
13695SOL     OW42525   6.744   6.519   7.160 -0.2101 -0.2733 -0.1983
13695SOL    HW142526   6.743   6.502   7.254 -0.5334  3.9380  0.7811
13695SOL    HW242527   6.836   6.508   7.135  0.2021  0.2035  1.0295
13696SOL     OW42528   7.082   6.506   2.306  0.1992  0.2975 -0.3165
13696SOL    HW142529   7.033   6.454   2.242  0.7004 -0.7908  0.1575
13696SOL    HW242530   7.029   6.504   2.386  0.5737 -0.1183 -0.0741
13697SOL     OW42531   0.759   4.387   0.352  0.1486  0.4110 -0.3469
13697SOL    HW142532   0.726   4.475   0.369  0.3104  0.5979 -0.9844
13697SOL    HW242533   0.693   4.348   0.294 -0.1842 -0.0733  0.3380
13698SOL     OW42534   5.433   1.786   2.888  0.7118 -1.0743 -0.3268
13698SOL    HW142535   5.361   1.843   2.860 -0.0092 -1.9130 -0.2336
13698SOL    HW242536   5.509   1.844   2.895 -0.4199  0.2836  1.6681
13699SOL     OW42537   6.421   2.633   4.716 -0.2688  0.2299  0.5523
13699SOL    HW142538   6.447   2.548   4.751  0.4951 -0.2803 -1.1479
13699SOL    HW242539   6.402   2.616   4.623 -0.4595  1.8420  0.2673
13700SOL     OW42540   5.992   7.958   3.280 -0.1001 -0.0847 -0.0450
13700SOL    HW142541   5.926   7.907   3.327 -2.3206  0.7211 -2.0877
13700SOL    HW242542   6.031   8.013   3.348 -1.9669 -0.1480  1.1707
13701SOL     OW42543   7.158   0.640   1.463 -0.0132  0.1992 -0.0363
13701SOL    HW142544   7.070   0.625   1.497  0.5415 -0.1975  1.3146
13701SOL    HW242545   7.158   0.732   1.437 -1.1043 -0.0428 -0.9865
13702SOL     OW42546   5.131   6.347   7.456 -0.4543  0.3982 -0.0070
13702SOL    HW142547   5.223   6.366   7.438 -0.3135  0.5802  0.8741
13702SOL    HW242548   5.083   6.398   7.391  0.0719 -0.0532 -0.7698
13703SOL     OW42549   1.429   2.812   0.971 -0.5905  0.0555 -0.5118
13703SOL    HW142550   1.369   2.737   0.967  0.3343 -0.8011  0.5648
13703SOL    HW242551   1.500   2.789   0.910  0.2899 -0.5547  0.6840
13704SOL     OW42552   6.744   1.420   4.755 -0.3452 -1.3522  0.0711
13704SOL    HW142553   6.666   1.398   4.806 -0.0810 -1.1824  0.5498
13704SOL    HW242554   6.736   1.514   4.738  0.4442 -1.0442  1.3145
13705SOL     OW42555   2.144   6.588   1.008 -0.2391 -0.1964  0.2369
13705SOL    HW142556   2.091   6.656   0.967  0.8919 -0.1959 -1.3021
13705SOL    HW242557   2.105   6.576   1.094 -1.8022  0.8535 -0.2794
13706SOL     OW42558   4.157   7.970   6.191  0.8048  0.1927 -0.2469
13706SOL    HW142559   4.166   8.062   6.213  0.8285  0.2242 -0.3886
13706SOL    HW242560   4.109   7.969   6.109  0.4953  0.0666 -0.0668
13707SOL     OW42561   7.438   5.425   3.362 -0.1463  0.0374 -0.2088
13707SOL    HW142562   7.389   5.503   3.388 -1.5093 -1.0333  0.6171
13707SOL    HW242563   7.504   5.414   3.430 -0.2740  0.2119 -0.0535
13708SOL     OW42564   3.913   0.269  11.747  0.4515  0.4813 -0.6805
13708SOL    HW142565   3.950   0.225  11.670  0.8517 -1.2443  0.4535
13708SOL    HW242566   3.881   0.352  11.713 -1.0037 -0.9405 -3.1299
13709SOL     OW42567   1.683   2.269   4.396  0.4222 -0.6200  0.6230
13709SOL    HW142568   1.739   2.197   4.425  0.5457 -0.0915  1.8011
13709SOL    HW242569   1.603   2.260   4.448  0.2184 -0.2319  0.3818
13710SOL     OW42570   4.941   5.308   4.213  0.0351  0.0353  0.0721
13710SOL    HW142571   4.941   5.357   4.131  1.0518  0.0878  0.0900
13710SOL    HW242572   4.925   5.218   4.187  0.5025  0.0283 -0.2143
13711SOL     OW42573   1.635   1.377   9.100 -0.7641  0.5395  0.4980
13711SOL    HW142574   1.709   1.374   9.161 -1.7028  1.6579  1.7553
13711SOL    HW242575   1.643   1.462   9.057 -0.9636  0.4001  0.1850
13712SOL     OW42576   3.765   3.501   9.962 -0.1590  0.2716 -0.1632
13712SOL    HW142577   3.766   3.443  10.038 -2.1718  1.5828  0.9429
13712SOL    HW242578   3.674   3.502   9.933  0.3489  0.7580 -1.8604
13713SOL     OW42579   3.783   4.180   3.613 -0.2556  0.0198 -0.2904
13713SOL    HW142580   3.752   4.225   3.534 -0.0910  0.6768  0.0091
13713SOL    HW242581   3.717   4.112   3.630 -0.3883 -0.0020 -0.8834
13714SOL     OW42582   5.759   3.644   0.917  0.2499  0.5969 -0.4099
13714SOL    HW142583   5.685   3.610   0.866  0.7654  0.0955 -0.8257
13714SOL    HW242584   5.717   3.699   0.985 -0.4665  0.8123 -1.0090
13715SOL     OW42585   6.648   0.824   1.071  0.3080  0.3313 -0.2931
13715SOL    HW142586   6.651   0.800   1.163  1.2274  0.0911 -0.3767
13715SOL    HW242587   6.710   0.896   1.062 -1.3501  1.8160 -0.3314
13716SOL     OW42588   5.156   4.138   2.651 -0.0532  0.3470  0.1700
13716SOL    HW142589   5.068   4.162   2.621  0.5472 -0.7964 -2.8746
13716SOL    HW242590   5.149   4.045   2.673  0.4675  0.1042 -0.6294
13717SOL     OW42591   5.940   3.747   6.937  0.2564  0.0776 -0.3149
13717SOL    HW142592   5.996   3.672   6.956 -0.2304 -0.4740 -0.9821
13717SOL    HW242593   5.999   3.822   6.938  0.7056 -0.2740  0.6171
13718SOL     OW42594   3.865   0.088  10.596  0.1271 -0.6926 -0.5130
13718SOL    HW142595   3.876   0.054  10.507  1.6072 -2.5617  0.3133
13718SOL    HW242596   3.930   0.040  10.648 -0.4329  0.6333  1.5098
13719SOL     OW42597   2.219   4.945  11.299 -0.2605 -0.3219 -1.0157
13719SOL    HW142598   2.229   5.007  11.372 -0.3147 -1.0564 -0.3734
13719SOL    HW242599   2.184   4.998  11.227 -0.3397  0.3863 -0.4648
13720SOL     OW42600   3.884   3.130   3.141 -0.3227 -0.0309 -0.1430
13720SOL    HW142601   3.923   3.216   3.155  0.1711 -0.3123  0.2337
13720SOL    HW242602   3.894   3.114   3.047  1.0182 -0.3412  0.0223
13721SOL     OW42603   2.465   2.637   5.256  0.2268 -0.1193  0.2773
13721SOL    HW142604   2.513   2.719   5.243 -0.3177  0.1528 -0.0485
13721SOL    HW242605   2.407   2.655   5.329 -0.1260 -0.1124 -0.0050
13722SOL     OW42606   4.565   4.736   0.674  0.4020 -0.2950 -0.2867
13722SOL    HW142607   4.624   4.694   0.736  0.4508  0.1782 -0.0009
13722SOL    HW242608   4.547   4.822   0.713 -2.1935 -1.1929  0.7488
13723SOL     OW42609   5.014   5.321   2.777 -0.4170 -0.0842  0.0661
13723SOL    HW142610   5.102   5.286   2.764 -0.7286 -0.6127 -0.7051
13723SOL    HW242611   5.021   5.377   2.854  0.4092 -0.7553  0.4834
13724SOL     OW42612   7.168   0.279   6.716  0.3365  0.4645  0.1567
13724SOL    HW142613   7.240   0.227   6.681 -2.0998 -1.2258 -2.8757
13724SOL    HW242614   7.201   0.368   6.717  2.2649 -0.1409 -1.8656
13725SOL     OW42615   2.011   1.224  11.297 -0.6432  0.2082  0.3227
13725SOL    HW142616   2.086   1.227  11.357 -1.9514  0.1323  2.0270
13725SOL    HW242617   1.935   1.238  11.353 -1.9962 -0.7620 -1.2021
13726SOL     OW42618   1.089   1.127   9.676 -0.1583 -0.0317  0.2026
13726SOL    HW142619   1.133   1.182   9.740  1.1942  0.5071 -1.1025
13726SOL    HW242620   1.161   1.092   9.622 -0.9599 -3.0302  0.9176
13727SOL     OW42621   3.233   5.585   0.876  0.2144  0.0341 -0.1700
13727SOL    HW142622   3.203   5.525   0.944  0.2540  0.2970  0.0775
13727SOL    HW242623   3.204   5.671   0.905 -1.4170 -0.0581 -1.3839
13728SOL     OW42624   1.918   4.137   8.103  0.4486  0.1946 -0.3630
13728SOL    HW142625   1.887   4.073   8.039 -1.8682  1.2698 -0.3931
13728SOL    HW242626   1.932   4.217   8.052 -2.0055  1.2382  0.4711
13729SOL     OW42627   5.632   2.143   9.702 -0.1503 -0.6493 -0.5369
13729SOL    HW142628   5.593   2.229   9.715  0.1421 -0.2654 -2.0344
13729SOL    HW242629   5.607   2.093   9.780 -2.5527 -0.0359 -0.8610
13730SOL     OW42630   3.800   3.163   8.033 -0.1864 -0.2669 -0.1844
13730SOL    HW142631   3.857   3.221   7.982 -0.8337  0.4779 -0.0847
13730SOL    HW242632   3.726   3.218   8.057 -1.3319 -1.3993 -0.9587
13731SOL     OW42633   3.338   3.498   4.578  0.1948 -0.3461  0.3456
13731SOL    HW142634   3.359   3.406   4.596  0.0125 -0.6181 -0.7563
13731SOL    HW242635   3.384   3.518   4.497 -2.0958 -0.3733 -1.0516
13732SOL     OW42636   3.006   7.457   1.863  0.0672  0.0359 -0.2776
13732SOL    HW142637   3.040   7.541   1.893 -1.5154 -0.0368  1.9779
13732SOL    HW242638   2.951   7.479   1.787 -2.5081  1.5648  1.8504
13733SOL     OW42639   6.096   7.028   5.878 -0.0966 -0.2767  0.8001
13733SOL    HW142640   6.092   7.103   5.818 -1.4825 -0.2092  0.9502
13733SOL    HW242641   6.148   6.963   5.831 -1.1111 -0.2049 -0.4781
13734SOL     OW42642   4.452   1.137   6.347  0.5753 -0.0440 -0.6582
13734SOL    HW142643   4.542   1.165   6.363 -0.1063  2.4021 -0.6912
13734SOL    HW242644   4.459   1.073   6.276  2.5970 -3.0840  1.9932
13735SOL     OW42645   4.408   6.765   7.712 -0.3345 -0.6480 -0.2880
13735SOL    HW142646   4.473   6.705   7.749 -1.3299 -1.1859  0.6906
13735SOL    HW242647   4.325   6.718   7.722 -1.3696  1.4386  1.9004
13736SOL     OW42648   0.116   1.849   4.952 -0.2404  0.3551 -0.2558
13736SOL    HW142649   0.086   1.759   4.960 -0.6578  0.2312 -2.5149
13736SOL    HW242650   0.086   1.892   5.032  1.1068 -1.7621  1.4953
13737SOL     OW42651   5.155   7.370   7.547 -0.5397 -0.1688  0.0877
13737SOL    HW142652   5.219   7.441   7.550  0.0784 -0.5454 -2.3063
13737SOL    HW242653   5.073   7.412   7.521 -0.4161 -0.1685 -0.3123
13738SOL     OW42654   3.701   2.448  10.087  0.1438 -0.5239 -0.6444
13738SOL    HW142655   3.621   2.449  10.034 -0.3327 -1.0431  0.0538
13738SOL    HW242656   3.691   2.373  10.145  0.7813 -0.1292  0.0005
13739SOL     OW42657   7.565   0.049   8.721  0.2821 -0.1392 -0.1114
13739SOL    HW142658   7.577   0.069   8.814  0.9037 -4.5330  0.9926
13739SOL    HW242659   7.479   0.006   8.717  0.3928 -0.2724 -1.5194
13740SOL     OW42660   5.117   3.133   6.307  0.8094 -0.0731  0.1732
13740SOL    HW142661   5.153   3.221   6.297 -1.0249  0.8370  0.9687
13740SOL    HW242662   5.081   3.111   6.221  0.8478  0.1613  0.0981
13741SOL     OW42663   6.284   4.097   9.512  0.7460  0.2229  0.2322
13741SOL    HW142664   6.290   4.008   9.547 -1.4922  0.2725  0.8586
13741SOL    HW242665   6.234   4.088   9.431  0.5292  0.9025  0.2837
13742SOL     OW42666   7.405   2.960  11.405  0.1418 -0.2752 -0.7035
13742SOL    HW142667   7.332   2.934  11.461 -0.1837  0.5577 -0.7255
13742SOL    HW242668   7.373   2.945  11.316  0.9444 -2.3599 -0.6947
13743SOL     OW42669   1.261   2.970   4.894 -0.0032  0.5321  0.0221
13743SOL    HW142670   1.273   3.024   4.816 -2.0953  0.6930 -0.2538
13743SOL    HW242671   1.347   2.968   4.936  0.8109  1.6414 -1.5155
13744SOL     OW42672   7.442   1.613  11.627 -0.3890 -0.6421  0.1762
13744SOL    HW142673   7.354   1.643  11.653  0.2746  0.6206  1.0906
13744SOL    HW242674   7.501   1.663  11.683  0.9301 -1.3637 -0.5376
13745SOL     OW42675   1.607   1.138   3.250  0.0760 -0.2914 -0.0238
13745SOL    HW142676   1.594   1.062   3.193  2.0806 -0.8738  0.2004
13745SOL    HW242677   1.525   1.148   3.297 -0.4760 -1.8914 -0.5814
13746SOL     OW42678   0.122   7.090   7.455 -0.2434  0.2808 -0.3044
13746SOL    HW142679   0.197   7.074   7.398 -0.1895  0.9575 -0.4319
13746SOL    HW242680   0.123   7.184   7.470 -0.6489  0.1962  0.2803
13747SOL     OW42681   3.549   2.512   9.875 -0.3788 -0.6073  0.1349
13747SOL    HW142682   3.600   2.582   9.834 -0.4469 -0.9153 -0.4829
13747SOL    HW242683   3.460   2.546   9.878 -0.4560 -0.7536 -0.3811
13748SOL     OW42684   0.208   5.421  10.393  0.0884  0.0703  0.7842
13748SOL    HW142685   0.223   5.344  10.339  0.1412 -0.0100  0.9141
13748SOL    HW242686   0.125   5.457  10.362 -0.5954 -0.7757  1.5867
13749SOL     OW42687   0.500   5.509   9.477  0.5014 -0.3885 -0.1132
13749SOL    HW142688   0.423   5.536   9.528  0.6269 -0.0289 -0.1111
13749SOL    HW242689   0.521   5.585   9.424 -0.3382 -1.1550 -1.5949
13750SOL     OW42690   1.512   2.081   5.935  0.3136  0.0839  0.0480
13750SOL    HW142691   1.503   2.136   6.012  0.6347 -0.1211  0.2351
13750SOL    HW242692   1.458   2.123   5.869 -0.4334 -0.0611  0.5615
13751SOL     OW42693   7.865   6.058   2.824 -0.0689 -0.2959  0.1951
13751SOL    HW142694   7.868   6.045   2.918  0.0618 -1.4607  0.0388
13751SOL    HW242695   7.956   6.068   2.797 -0.0297 -0.9519  0.0682
13752SOL     OW42696   1.770   3.399   0.332  0.5273  0.1473  0.1977
13752SOL    HW142697   1.728   3.317   0.303  0.4994 -0.1010  0.9171
13752SOL    HW242698   1.857   3.396   0.294  0.8416 -0.6525  0.9399
13753SOL     OW42699   6.424   0.676   0.055  0.2892 -0.3877  0.1698
13753SOL    HW142700   6.465   0.609   0.110 -0.9151 -1.5754 -0.3353
13753SOL    HW242701   6.335   0.684   0.089 -0.3352 -0.8242 -1.2973
13754SOL     OW42702   3.959   6.836   6.176 -0.0262 -0.1316  0.2810
13754SOL    HW142703   3.943   6.864   6.266  1.4585  1.9816 -0.0575
13754SOL    HW242704   3.886   6.776   6.157 -0.4027 -0.6053  2.8394
13755SOL     OW42705   7.659   2.996   8.474 -0.2203 -0.0916  0.4750
13755SOL    HW142706   7.696   2.918   8.432  1.1363  1.2158 -0.8922
13755SOL    HW242707   7.715   3.067   8.445 -0.6313  1.2443  2.7362
13756SOL     OW42708   0.704   2.855   4.563  0.2580  0.2551 -0.5768
13756SOL    HW142709   0.680   2.887   4.650  0.4984 -0.6800 -0.1479
13756SOL    HW242710   0.784   2.805   4.578 -1.6209 -3.0522 -0.6525
13757SOL     OW42711   5.160   1.417   4.049  0.4423 -0.1008  0.5586
13757SOL    HW142712   5.073   1.414   4.009 -0.0222  1.4497  1.3762
13757SOL    HW242713   5.180   1.326   4.070 -0.2041 -0.7023 -1.2400
13758SOL     OW42714   0.645   6.147   6.344  0.1463 -0.0389  0.0957
13758SOL    HW142715   0.647   6.156   6.439 -1.0225 -2.1050  0.3834
13758SOL    HW242716   0.663   6.235   6.311 -0.3962  0.9443  2.2316
13759SOL     OW42717   6.208   7.124  10.337 -0.8938 -0.1730 -0.6042
13759SOL    HW142718   6.133   7.104  10.281 -2.4066  0.9470  0.9137
13759SOL    HW242719   6.209   7.053  10.401 -1.4016  0.4266  0.0776
13760SOL     OW42720   0.768   1.341   3.210  0.3451  0.5290 -0.7277
13760SOL    HW142721   0.794   1.304   3.126 -0.4539 -1.1146 -0.2973
13760SOL    HW242722   0.673   1.330   3.212  0.3303  0.7834  0.2837
13761SOL     OW42723   4.169   1.924   0.617  0.0907 -0.2260 -0.3064
13761SOL    HW142724   4.207   1.993   0.671 -2.5555  1.4799 -0.4721
13761SOL    HW242725   4.245   1.875   0.584  2.0180  1.9770  0.5813
13762SOL     OW42726   4.248   6.639   5.681 -0.0370  0.3394  0.3025
13762SOL    HW142727   4.235   6.729   5.651  1.7009  0.2223 -0.9220
13762SOL    HW242728   4.322   6.606   5.630 -1.1150 -2.0669  0.1265
13763SOL     OW42729   5.048   7.356  11.879  0.1491  0.5377 -0.1214
13763SOL    HW142730   5.141   7.332  11.874  0.4467  1.4518  0.6020
13763SOL    HW242731   5.013   7.301  11.948 -0.0797 -0.4680 -1.0193
13764SOL     OW42732   0.798   5.668   2.158 -0.3821  0.3754 -0.1451
13764SOL    HW142733   0.841   5.746   2.123 -1.4820  1.0771  0.0117
13764SOL    HW242734   0.764   5.695   2.243 -3.1552  0.6293 -1.2175
13765SOL     OW42735   3.030   2.701   8.676  0.2714 -0.1325  0.2512
13765SOL    HW142736   3.121   2.676   8.661  0.3849  0.2778  0.2208
13765SOL    HW242737   3.019   2.693   8.771  0.3838 -0.0494  0.2717
13766SOL     OW42738   5.794   6.063  12.209 -0.0348 -0.0021  0.0533
13766SOL    HW142739   5.708   6.083  12.174 -0.4822  1.5079  1.8647
13766SOL    HW242740   5.854   6.122  12.163 -0.5639  1.7250  1.4949
13767SOL     OW42741   6.499   4.499  11.581  0.0636 -0.3496 -1.0068
13767SOL    HW142742   6.424   4.440  11.567  0.5151 -1.0026 -0.7285
13767SOL    HW242743   6.559   4.448  11.636 -0.4706  1.1234  1.0499
13768SOL     OW42744   3.976   3.322   7.870 -0.2369 -0.1710  0.5564
13768SOL    HW142745   4.069   3.318   7.892 -0.4918  0.6389  1.8838
13768SOL    HW242746   3.974   3.319   7.774  1.1406 -0.3961  0.5161
13769SOL     OW42747   1.299   6.923   5.325 -0.0700  0.3882  0.2530
13769SOL    HW142748   1.378   6.978   5.324 -0.4123  0.9296  1.2607
13769SOL    HW242749   1.231   6.978   5.286  0.2347 -0.4101 -1.4633
13770SOL     OW42750   5.323   5.492  10.349  0.6892  0.5236  0.5048
13770SOL    HW142751   5.361   5.444  10.275  1.6058  0.4781  0.9923
13770SOL    HW242752   5.347   5.583  10.334 -1.0300  0.8651 -0.4065
13771SOL     OW42753   7.969   5.180   9.630  0.1315 -0.2375  0.2029
13771SOL    HW142754   8.020   5.134   9.564 -1.0070  0.9989 -1.6163
13771SOL    HW242755   8.014   5.162   9.712  1.0621 -2.5978 -0.7551
13772SOL     OW42756   1.409   5.997  11.239  0.6005 -0.8096 -0.0273
13772SOL    HW142757   1.412   5.909  11.202  1.3491 -0.3014 -1.2808
13772SOL    HW242758   1.431   6.054  11.165 -1.0231  0.5276  0.4532
13773SOL     OW42759   6.156   0.076  12.037  0.8148  0.4416 -0.7589
13773SOL    HW142760   6.227   0.039  11.985  0.4569 -1.2271 -0.1493
13773SOL    HW242761   6.077   0.059  11.984  0.6183  0.0711 -0.3564
13774SOL     OW42762   1.674   3.636   2.029  0.8488  0.1729 -0.4841
13774SOL    HW142763   1.635   3.551   2.048 -2.1544  1.6717  0.6157
13774SOL    HW242764   1.743   3.646   2.095  1.0172 -1.2046 -0.4137
13775SOL     OW42765   2.062   3.414  10.329  0.0673 -0.1828  0.3344
13775SOL    HW142766   2.109   3.332  10.343 -0.6800 -0.7482 -0.3875
13775SOL    HW242767   2.015   3.429  10.411  0.2793 -0.4169  0.4989
13776SOL     OW42768   5.320   1.269   3.624 -0.4610 -0.0293  0.9419
13776SOL    HW142769   5.364   1.331   3.682  0.7248 -0.4222  0.4947
13776SOL    HW242770   5.246   1.237   3.675 -1.1121  1.7327  1.1900
13777SOL     OW42771   3.774   0.038  10.357 -0.1879 -0.1831 -0.3753
13777SOL    HW142772   3.732   0.091  10.289  2.4502  1.0670 -1.1982
13777SOL    HW242773   3.830  -0.023  10.309 -0.6813 -1.4992  0.6581
13778SOL     OW42774   6.501   7.939   6.111  0.0416  0.2259 -0.2509
13778SOL    HW142775   6.483   8.033   6.100  1.2983  0.4381 -0.6791
13778SOL    HW242776   6.545   7.932   6.195 -1.1128 -0.1552  0.3388
13779SOL     OW42777   4.390   5.145  11.367 -0.1259 -0.5454  0.0136
13779SOL    HW142778   4.460   5.178  11.423  0.2019 -1.7509  0.3423
13779SOL    HW242779   4.417   5.169  11.278 -0.3695  0.8772  0.2954
13780SOL     OW42780   0.011   0.292   2.038 -0.0865  0.1895 -0.5510
13780SOL    HW142781  -0.055   0.227   2.014  0.7206 -0.7504 -0.2697
13780SOL    HW242782   0.060   0.251   2.110  0.3361  1.1715 -0.2619
13781SOL     OW42783   1.237   1.500   9.308  0.6304 -0.3891 -0.2981
13781SOL    HW142784   1.241   1.489   9.213  0.3458 -0.4636 -0.3024
13781SOL    HW242785   1.317   1.547   9.330  0.2665  0.4441 -0.6871
13782SOL     OW42786   3.562   6.291   9.412 -0.0144  0.1008 -0.0223
13782SOL    HW142787   3.593   6.282   9.322  0.5000 -0.0763  0.1671
13782SOL    HW242788   3.567   6.203   9.448 -2.0774 -0.2124 -0.3960
13783SOL     OW42789   6.363   7.149   3.415 -0.5398  0.0865  0.3202
13783SOL    HW142790   6.410   7.147   3.499 -0.9418 -1.3819  0.5276
13783SOL    HW242791   6.271   7.160   3.440 -0.6076  0.1449  0.0427
13784SOL     OW42792   7.102   3.001   6.550 -0.3884 -0.3919  0.1346
13784SOL    HW142793   7.169   3.050   6.502  0.3718 -0.0904  1.4620
13784SOL    HW242794   7.103   2.914   6.510  0.3831 -0.2150 -0.2454
13785SOL     OW42795   3.834   3.971   1.546  0.0199  0.0121  0.0332
13785SOL    HW142796   3.853   4.065   1.543  0.7031 -0.1518 -2.3792
13785SOL    HW242797   3.781   3.955   1.468  0.1328 -1.6626  0.2699
13786SOL     OW42798   6.955   6.302   0.107 -0.0150  0.2353 -0.7566
13786SOL    HW142799   6.994   6.331   0.189  0.7102  0.0824 -1.0404
13786SOL    HW242800   6.863   6.286   0.129 -0.2894  2.0643 -0.4442
13787SOL     OW42801   6.934   7.476   5.504  0.2845  0.4509 -0.7356
13787SOL    HW142802   6.935   7.400   5.562 -1.1697  0.1226 -1.0998
13787SOL    HW242803   6.862   7.530   5.536 -0.9812 -0.0358 -2.5315
13788SOL     OW42804   5.640   5.140   9.340 -0.0015  0.2390 -0.2227
13788SOL    HW142805   5.725   5.157   9.300  0.2369 -0.8807 -0.2148
13788SOL    HW242806   5.638   5.197   9.418 -0.2254  1.9735 -1.4314
13789SOL     OW42807   6.409   4.111  11.045 -0.4481  0.5943 -0.4110
13789SOL    HW142808   6.463   4.054  10.991  0.3190  0.8039  0.1283
13789SOL    HW242809   6.456   4.195  11.046 -1.4308  1.1813 -0.9853
13790SOL     OW42810   1.037   0.909   7.370  0.1498 -0.1766 -0.1990
13790SOL    HW142811   1.058   0.822   7.405 -3.8371 -2.0550 -1.8760
13790SOL    HW242812   0.993   0.954   7.441  0.2778 -0.3915  0.0172
13791SOL     OW42813   5.505   7.963   6.122  0.0735 -0.2585  0.5377
13791SOL    HW142814   5.460   8.044   6.096  2.0045  1.2272  1.5327
13791SOL    HW242815   5.499   7.961   6.217  1.5777 -0.2964  0.6566
13792SOL     OW42816   3.955   6.324   1.009  0.3463  0.1760 -0.7052
13792SOL    HW142817   3.933   6.308   1.101  0.2971 -0.7024 -0.8599
13792SOL    HW242818   3.870   6.335   0.966  0.3055 -0.7858 -0.8801
13793SOL     OW42819   3.497   3.448  12.069  0.5904 -0.0724 -0.0977
13793SOL    HW142820   3.550   3.516  12.027  0.8414 -0.5035 -0.4883
13793SOL    HW242821   3.546   3.367  12.054 -0.1767 -0.4763 -0.4605
13794SOL     OW42822   2.471   2.301   3.659  0.5932 -0.4188 -0.1170
13794SOL    HW142823   2.566   2.307   3.657  0.5643  0.7841  1.0102
13794SOL    HW242824   2.444   2.306   3.567  1.5530  0.5629 -0.3614
13795SOL     OW42825   6.714   6.646   0.352  0.3564  0.4498 -0.3243
13795SOL    HW142826   6.634   6.692   0.375  1.3800  1.4826  1.3611
13795SOL    HW242827   6.718   6.573   0.415  1.6096  1.4631  0.8220
13796SOL     OW42828   2.806   3.990   8.438  0.2192  0.6354  0.0647
13796SOL    HW142829   2.850   3.947   8.365 -0.4214 -0.3041  0.2075
13796SOL    HW242830   2.793   3.921   8.503 -1.7247  0.7683 -0.1063
13797SOL     OW42831   3.501   5.282   6.112 -0.4828 -0.1306  0.1367
13797SOL    HW142832   3.447   5.361   6.111 -0.6138 -0.2243 -0.5669
13797SOL    HW242833   3.444   5.215   6.149 -0.1377  0.2527  1.4235
13798SOL     OW42834   3.927   4.433   1.179  0.4597  0.3012 -0.2342
13798SOL    HW142835   3.999   4.434   1.243  0.8885  1.8148 -0.7095
13798SOL    HW242836   3.927   4.521   1.141 -1.8881  0.4540 -0.0068
13799SOL     OW42837   5.328   3.400   6.963 -0.3594 -0.3654  0.1841
13799SOL    HW142838   5.417   3.434   6.973  0.3131 -1.0737 -2.4795
13799SOL    HW242839   5.305   3.367   7.050  1.8051  0.1851  1.0485
13800SOL     OW42840   5.522   7.100  10.945  0.0562 -0.3542 -0.0533
13800SOL    HW142841   5.583   7.156  10.993 -0.1204  1.0079 -1.3391
13800SOL    HW242842   5.577   7.054  10.881  0.1280 -1.3212  0.6830
13801SOL     OW42843   3.451   0.333  12.082  0.5636  0.3769  0.2329
13801SOL    HW142844   3.537   0.291  12.082  0.0700 -1.0969 -3.8038
13801SOL    HW242845   3.471   0.426  12.066  1.4784  0.0315 -0.8514
13802SOL     OW42846   5.055   6.491   7.226 -0.5191  0.4641 -0.0560
13802SOL    HW142847   5.117   6.563   7.225  0.8765 -0.6840 -1.6703
13802SOL    HW242848   4.982   6.522   7.171 -0.0081  0.7335 -0.5986
13803SOL     OW42849   5.076   7.677   8.531 -0.7240  0.3056 -0.5040
13803SOL    HW142850   5.111   7.652   8.446 -0.5884  0.7401 -0.5790
13803SOL    HW242851   5.089   7.600   8.586  1.2288  0.7501 -0.2661
13804SOL     OW42852   7.034   0.772   7.005 -0.3577  0.1501  0.8117
13804SOL    HW142853   7.060   0.826   6.931  1.2741 -2.4762 -0.7162
13804SOL    HW242854   7.095   0.794   7.075  1.0652 -0.4814 -0.1845
13805SOL     OW42855   2.862   1.337   2.892 -0.5026  0.1175  0.4568
13805SOL    HW142856   2.897   1.426   2.896  2.5045 -0.9181 -0.0928
13805SOL    HW242857   2.885   1.306   2.805 -1.7032 -1.1513  0.5516
13806SOL     OW42858   3.751   4.868   6.277 -0.2144 -0.1537  0.4276
13806SOL    HW142859   3.685   4.929   6.308 -0.0261  0.5199 -0.4468
13806SOL    HW242860   3.706   4.815   6.212 -0.8750 -2.2139  2.4315
13807SOL     OW42861   5.243   1.967   1.465  0.2315 -0.4450  0.2907
13807SOL    HW142862   5.198   2.046   1.496 -0.4818 -0.5148 -0.5477
13807SOL    HW242863   5.336   1.986   1.480  0.0816  0.5869  0.0275
13808SOL     OW42864   6.076   3.781   5.998 -0.2774 -0.2396 -0.2373
13808SOL    HW142865   6.161   3.787   6.041 -1.2485  3.7656  1.5508
13808SOL    HW242866   6.031   3.710   6.044  0.6223  0.4140  1.7713
13809SOL     OW42867   6.895   3.121   9.356 -0.0370  0.0833 -0.3758
13809SOL    HW142868   6.940   3.134   9.273  0.4347  2.1524  0.1467
13809SOL    HW242869   6.839   3.198   9.366  0.6537  0.3968  1.6317
13810SOL     OW42870   5.849   4.285  11.668 -0.2148  0.0930 -0.4006
13810SOL    HW142871   5.829   4.378  11.671 -2.6328 -0.3159 -1.5242
13810SOL    HW242872   5.765   4.243  11.649  0.9797 -2.2406 -0.8930
13811SOL     OW42873   0.598   3.536   1.099  0.8314 -0.3993 -0.3671
13811SOL    HW142874   0.680   3.582   1.122 -0.1833  1.3066  0.0187
13811SOL    HW242875   0.547   3.601   1.052 -0.4234 -1.3657 -0.3747
13812SOL     OW42876   3.433   3.798  11.709 -0.1553  0.1658  0.6382
13812SOL    HW142877   3.355   3.753  11.675  1.4559 -0.9758 -1.7821
13812SOL    HW242878   3.444   3.874  11.651  1.2582 -0.4247  0.1060
13813SOL     OW42879   2.877   7.781  10.825  0.5735 -0.5129 -0.2317
13813SOL    HW142880   2.839   7.738  10.748 -1.5175 -0.4212  0.6774
13813SOL    HW242881   2.833   7.741  10.899  2.1610 -0.2175  0.9303
13814SOL     OW42882   3.755   7.770   7.101  0.6516  0.1182 -0.5391
13814SOL    HW142883   3.830   7.727   7.061  0.7907  0.6484 -0.8553
13814SOL    HW242884   3.709   7.812   7.028 -0.4157 -0.8715 -0.4753
13815SOL     OW42885   7.323   4.268   1.852 -0.1552  0.0870 -0.6282
13815SOL    HW142886   7.328   4.237   1.761  1.0702  0.1559 -0.5901
13815SOL    HW242887   7.272   4.349   1.846  0.7115  0.5959 -1.4012
13816SOL     OW42888   6.325   3.884   7.720  0.3680  0.2559 -0.2776
13816SOL    HW142889   6.326   3.943   7.796  1.1100 -0.4827  0.3162
13816SOL    HW242890   6.319   3.796   7.758 -0.5963 -0.0688 -1.1416
13817SOL     OW42891   2.086   5.431   9.171  0.1851  0.1963 -0.1438
13817SOL    HW142892   2.048   5.410   9.086 -2.9984  0.0640  1.1770
13817SOL    HW242893   2.058   5.521   9.188 -1.8405 -0.7435  1.9630
13818SOL     OW42894   6.121   1.748  11.850 -0.0817 -0.5046 -0.1342
13818SOL    HW142895   6.027   1.765  11.852 -0.0854 -0.5269 -0.1107
13818SOL    HW242896   6.135   1.697  11.770 -0.3235 -1.8569  0.6351
13819SOL     OW42897   7.842   0.111  10.151 -0.3651  0.2774 -0.2338
13819SOL    HW142898   7.872   0.020  10.141 -1.3406  0.0130 -0.7866
13819SOL    HW242899   7.803   0.113  10.239  0.2142  0.3305  0.0300
13820SOL     OW42900   0.607   6.528   9.319  0.2067 -0.2120  0.8441
13820SOL    HW142901   0.522   6.500   9.352 -0.3895 -0.0380 -0.4859
13820SOL    HW242902   0.587   6.579   9.241  1.6145 -2.9328 -1.4954
13821SOL     OW42903   6.210   6.789   9.421 -0.4565 -0.3487 -0.5314
13821SOL    HW142904   6.237   6.871   9.462 -0.9846  0.3067 -1.4738
13821SOL    HW242905   6.282   6.766   9.362  0.6090 -1.6370  1.1513
13822SOL     OW42906   1.736   4.465   4.902 -0.0329 -0.2486  0.2830
13822SOL    HW142907   1.805   4.434   4.844  1.2860  1.1847  1.0003
13822SOL    HW242908   1.659   4.473   4.846  1.0065  0.3909 -1.1217
13823SOL     OW42909   6.430   6.727   6.436 -0.1303 -0.5375 -0.0142
13823SOL    HW142910   6.502   6.709   6.375 -0.5036  0.4030 -0.7524
13823SOL    HW242911   6.464   6.699   6.521  0.9642 -0.4825 -0.4149
13824SOL     OW42912   5.055   3.987   8.903  0.2698  0.1271 -0.0308
13824SOL    HW142913   5.030   4.079   8.891 -0.6222 -0.1659 -0.5355
13824SOL    HW242914   5.048   3.972   8.997  2.8264  1.2222  0.3946
13825SOL     OW42915   1.272   4.024   6.118  0.2478  0.3355 -0.0835
13825SOL    HW142916   1.320   4.107   6.122  2.2624 -0.7403 -0.4370
13825SOL    HW242917   1.269   3.993   6.208 -0.4538  0.7536  0.0404
13826SOL     OW42918   7.092   5.423   4.589  0.5540 -0.0231 -0.3080
13826SOL    HW142919   6.999   5.403   4.585  0.1701  1.7212 -1.2157
13826SOL    HW242920   7.097   5.508   4.634  1.6388  0.2258 -0.8555
13827SOL     OW42921   7.192   7.343   1.311  0.2861 -0.0551  0.0119
13827SOL    HW142922   7.166   7.310   1.396 -0.0933 -1.3842 -0.6009
13827SOL    HW242923   7.263   7.405   1.330  0.4055 -0.5469  1.2606
13828SOL     OW42924   5.553   6.188   0.472  0.2116  0.1160 -0.5303
13828SOL    HW142925   5.600   6.192   0.389 -0.6014 -0.1114 -1.0123
13828SOL    HW242926   5.465   6.221   0.452 -0.8519 -2.3941 -0.3980
13829SOL     OW42927   1.818   1.716   2.474  0.4621 -0.1992  0.2840
13829SOL    HW142928   1.808   1.774   2.550  0.2193  2.2635 -1.5092
13829SOL    HW242929   1.738   1.729   2.423  0.2407 -2.4598 -0.0246
13830SOL     OW42930   7.595   6.684   6.392 -0.0702 -0.3214  0.0041
13830SOL    HW142931   7.624   6.771   6.421  0.0085 -0.7314  1.2015
13830SOL    HW242932   7.604   6.629   6.470 -0.3011 -1.3626 -0.6962
13831SOL     OW42933   6.958   4.350   3.727 -0.4964  0.4507 -1.0383
13831SOL    HW142934   6.866   4.376   3.740 -0.1463  1.4462 -0.3795
13831SOL    HW242935   6.975   4.371   3.635 -0.9205  0.3002 -1.1550
13832SOL     OW42936   4.233   0.329   1.181  0.3034  0.2176  0.1115
13832SOL    HW142937   4.307   0.387   1.197  0.0986  0.3871  0.4755
13832SOL    HW242938   4.199   0.355   1.096  0.0591  0.8066  0.3824
13833SOL     OW42939   6.431   2.953   8.368  0.0651 -0.3429 -0.1815
13833SOL    HW142940   6.364   2.944   8.435 -1.0607  0.0617 -1.2218
13833SOL    HW242941   6.471   3.038   8.386 -0.0097 -0.3756  0.1537
13834SOL     OW42942   3.625   1.065  11.683  0.2302  0.1032  0.4683
13834SOL    HW142943   3.656   1.061  11.593  1.7750  0.6104  0.9453
13834SOL    HW242944   3.615   0.974  11.710  0.6177 -0.0619  0.0600
13835SOL     OW42945   0.990   4.156  11.307 -0.1977  0.5885 -0.1542
13835SOL    HW142946   1.027   4.069  11.292  0.2579  0.8362 -0.4771
13835SOL    HW242947   1.034   4.187  11.386  0.9317  1.2356 -1.0245
13836SOL     OW42948   4.786   6.772   7.715 -0.6568 -0.4892  0.6292
13836SOL    HW142949   4.771   6.693   7.663 -0.1067 -1.5128  1.9760
13836SOL    HW242950   4.716   6.772   7.781  0.3594 -0.8282  1.7416
13837SOL     OW42951   0.819   2.843   0.303 -0.2082 -0.1900 -0.2526
13837SOL    HW142952   0.784   2.930   0.284 -1.5467 -0.8984 -1.1499
13837SOL    HW242953   0.833   2.844   0.398 -0.9021  0.7467 -0.1459
13838SOL     OW42954   7.830   2.986   8.135  0.2925  0.0705 -0.4891
13838SOL    HW142955   7.823   3.043   8.211  0.3934 -0.3456 -0.1609
13838SOL    HW242956   7.901   3.024   8.083  0.6534  0.0001 -0.0546
13839SOL     OW42957   1.086   0.379   5.002  0.1727  0.5425  0.1678
13839SOL    HW142958   1.091   0.343   5.090  0.0276  1.4514  0.5640
13839SOL    HW242959   1.046   0.310   4.949  2.4183 -0.9612  0.2756
13840SOL     OW42960   1.014   3.755   0.663 -0.4383  0.0370  0.6751
13840SOL    HW142961   1.056   3.768   0.748 -1.7771  0.2048  1.3400
13840SOL    HW242962   1.030   3.837   0.615 -0.8901  0.5124  1.3187
13841SOL     OW42963   4.028   2.435   8.834 -0.1334  0.4702  0.0869
13841SOL    HW142964   4.056   2.480   8.753 -0.3762 -0.1599 -0.3528
13841SOL    HW242965   3.933   2.429   8.826 -0.4667  2.6077  1.5767
13842SOL     OW42966   0.993   7.502   7.443  0.0102  0.4135 -0.4008
13842SOL    HW142967   0.943   7.514   7.524 -0.9739  0.6608 -1.0397
13842SOL    HW242968   1.040   7.585   7.432 -0.6504  0.7625 -0.6213
13843SOL     OW42969   3.441   2.647  11.927  0.0045 -0.6176 -0.1809
13843SOL    HW142970   3.452   2.672  11.835 -0.5535  0.3523  0.0175
13843SOL    HW242971   3.349   2.622  11.935 -0.8680  2.4875  0.8345
13844SOL     OW42972   4.349   3.541   2.339  0.0751 -0.6799  0.2261
13844SOL    HW142973   4.276   3.590   2.302  0.6420 -0.6961 -0.9467
13844SOL    HW242974   4.422   3.602   2.338 -0.3666  0.0864  3.4286
13845SOL     OW42975   7.912   2.794   0.961 -0.0123  0.3830 -0.4772
13845SOL    HW142976   7.941   2.878   0.928  0.7081 -0.0608 -1.0033
13845SOL    HW242977   7.974   2.731   0.924 -0.3553 -0.3405  0.1569
13846SOL     OW42978   5.050   6.807   5.357 -0.0420  0.4773  0.1139
13846SOL    HW142979   5.135   6.843   5.383  0.9485 -0.5533 -1.5426
13846SOL    HW242980   5.030   6.741   5.424  0.2816  0.9736  0.7065
13847SOL     OW42981   2.869   0.383   8.067 -0.2982 -0.0385  0.8013
13847SOL    HW142982   2.791   0.413   8.114  1.3986  0.3244  3.6426
13847SOL    HW242983   2.867   0.288   8.074 -0.5637 -0.0389  0.7215
13848SOL     OW42984   0.151   7.727  11.189 -0.0201  0.2430 -0.0261
13848SOL    HW142985   0.206   7.680  11.252 -0.8477  0.1379  0.6348
13848SOL    HW242986   0.201   7.724  11.107  1.0082  0.2659  0.5845
13849SOL     OW42987   6.684   0.648   1.901  0.0482 -0.6664 -0.2698
13849SOL    HW142988   6.603   0.669   1.855 -0.8647 -2.8077  0.2082
13849SOL    HW242989   6.704   0.726   1.952 -1.2726  0.1965 -1.0233
13850SOL     OW42990   1.065   7.456   0.363 -0.5717  0.2922  0.4210
13850SOL    HW142991   1.158   7.442   0.381 -0.2528  1.4140 -0.2863
13850SOL    HW242992   1.027   7.368   0.368  0.6533 -0.2929  0.0095
13851SOL     OW42993   7.148   3.674   1.062  0.4340 -0.6558 -0.3706
13851SOL    HW142994   7.062   3.634   1.053 -0.6279  1.8649 -2.5271
13851SOL    HW242995   7.203   3.629   0.998 -0.2368  0.0031 -1.4317
13852SOL     OW42996   1.207   4.873  11.533 -0.1855 -0.0284  0.1486
13852SOL    HW142997   1.166   4.793  11.501 -1.4367 -0.0643  1.6959
13852SOL    HW242998   1.259   4.845  11.609  1.3211  0.2948 -0.7234
13853SOL     OW42999   4.787   5.418   7.946 -0.3067 -0.2583 -0.2173
13853SOL    HW143000   4.821   5.381   8.027 -0.9743  0.2959  0.3331
13853SOL    HW243001   4.694   5.432   7.964 -1.0750 -2.5584 -1.9568
13854SOL     OW43002   5.004   3.054   5.150  0.0461  0.1441  0.4929
13854SOL    HW143003   5.026   3.034   5.241  3.4596  0.3463 -0.1713
13854SOL    HW243004   5.018   3.148   5.142  0.7025 -0.0216 -0.4454
13855SOL     OW43005   5.630   7.818  11.883 -0.7385  0.2559  0.3182
13855SOL    HW143006   5.580   7.893  11.851 -2.7028  0.2397  3.0236
13855SOL    HW243007   5.710   7.856  11.920 -0.0147  0.5842 -1.5020
13856SOL     OW43008   7.088   4.033   0.295  0.0954  0.6937 -0.4701
13856SOL    HW143009   6.994   4.040   0.276 -0.7306 -0.2599  2.6979
13856SOL    HW243010   7.101   4.086   0.373  1.7830 -0.7573  0.3110
13857SOL     OW43011   4.532   1.335   8.447  0.5259  0.9220 -0.1617
13857SOL    HW143012   4.544   1.318   8.353  1.7392 -0.3298  0.1857
13857SOL    HW243013   4.558   1.426   8.459 -0.9363  1.5309 -1.2325
13858SOL     OW43014   7.756   1.379   1.768 -0.5029  0.0285  0.0170
13858SOL    HW143015   7.827   1.338   1.818 -1.4426  0.7221  2.0156
13858SOL    HW243016   7.801   1.434   1.703  0.7670 -0.8077  0.1497
13859SOL     OW43017   4.642   0.910   8.099 -0.4495  0.1748  0.6095
13859SOL    HW143018   4.586   0.839   8.069 -0.5147  0.4093  0.1800
13859SOL    HW243019   4.686   0.941   8.020  0.6971 -0.3629  1.0157
13860SOL     OW43020   3.072   6.198   5.879  0.2073  0.0955  0.6534
13860SOL    HW143021   3.004   6.131   5.881  0.2668  0.0532  2.1159
13860SOL    HW243022   3.154   6.148   5.878  0.2520  0.1511 -0.6741
13861SOL     OW43023   0.869   4.081   6.107  0.0493  0.0364 -0.1622
13861SOL    HW143024   0.935   4.036   6.159 -0.4447 -2.3161 -1.4222
13861SOL    HW243025   0.829   4.012   6.054 -2.9214  1.4786  0.0025
13862SOL     OW43026   5.008   1.219   7.487 -0.2697  0.2770  0.5031
13862SOL    HW143027   4.996   1.137   7.535 -0.8442 -0.9424 -1.5902
13862SOL    HW243028   4.937   1.275   7.516 -1.8586 -1.1863 -0.3358
13863SOL     OW43029   3.687   5.582  11.099 -0.1990 -0.0176 -0.0127
13863SOL    HW143030   3.624   5.511  11.088  0.0812 -0.0047 -2.0873
13863SOL    HW243031   3.634   5.656  11.130 -1.6707  0.5034 -3.2732
13864SOL     OW43032   6.631   7.341  10.733  0.3315 -0.6512 -0.3024
13864SOL    HW143033   6.614   7.416  10.790  0.6142 -0.6325 -0.2368
13864SOL    HW243034   6.687   7.283  10.786 -1.2668 -1.7221  0.2761
13865SOL     OW43035   2.159   6.293   7.301  0.3946  0.1559 -0.2442
13865SOL    HW143036   2.199   6.235   7.366 -0.1602  0.1047  0.0577
13865SOL    HW243037   2.232   6.318   7.244  0.7916 -0.2070  0.0897
13866SOL     OW43038   2.887   4.225   7.093  0.8472 -0.0076 -0.7800
13866SOL    HW143039   2.904   4.188   7.179  0.0683  0.3870 -0.4470
13866SOL    HW243040   2.947   4.299   7.086  0.4119  0.3946 -0.2819
13867SOL     OW43041   2.096   5.392   9.708  0.2127  0.2622 -0.0663
13867SOL    HW143042   2.068   5.471   9.753  0.6843  0.7314 -0.5726
13867SOL    HW243043   2.015   5.353   9.675  0.0920  1.5694 -1.4774
13868SOL     OW43044   1.100   6.671   8.468  0.3095  0.4934 -0.2050
13868SOL    HW143045   1.076   6.736   8.403 -3.1170 -1.4984 -1.1504
13868SOL    HW243046   1.053   6.697   8.547  0.5800  0.2811  0.0275
13869SOL     OW43047   6.694   3.952   1.882 -0.2554  0.1657 -0.0874
13869SOL    HW143048   6.713   3.882   1.820 -0.9540 -1.8485  1.8201
13869SOL    HW243049   6.761   3.942   1.950 -1.2210  0.3827  0.9314
13870SOL     OW43050   0.772   3.003   1.329  0.0879 -0.4410 -0.3875
13870SOL    HW143051   0.757   3.082   1.380  1.2060 -0.2607 -0.3212
13870SOL    HW243052   0.710   3.010   1.256 -0.0115  0.3487 -0.2368
13871SOL     OW43053   1.796   0.650   9.214 -0.0050 -0.0214  0.2837
13871SOL    HW143054   1.786   0.671   9.122  0.5055  3.3416  0.8759
13871SOL    HW243055   1.841   0.565   9.215  2.2510  0.9739 -2.5964
13872SOL     OW43056   1.931   4.135   2.672  0.0890 -0.0304 -0.0376
13872SOL    HW143057   1.980   4.211   2.641 -0.2711  0.8051  1.3745
13872SOL    HW243058   1.839   4.159   2.660 -0.0255 -0.2787  0.3287
13873SOL     OW43059   1.167   6.717  10.074  0.1773  0.1212 -0.0671
13873SOL    HW143060   1.084   6.686  10.038  0.5620  0.4171 -1.2390
13873SOL    HW243061   1.168   6.683  10.163 -1.5583  0.7816  0.2377
13874SOL     OW43062   0.032   7.402   4.691  0.2202  0.0968 -0.4236
13874SOL    HW143063   0.022   7.336   4.758 -2.3742  1.8380  1.1090
13874SOL    HW243064   0.071   7.477   4.736 -0.0474  0.7435 -1.2325
13875SOL     OW43065   2.211   1.162   0.807 -0.6081  0.0128  0.2952
13875SOL    HW143066   2.183   1.144   0.717 -0.3975 -0.3030  0.2908
13875SOL    HW243067   2.273   1.236   0.799 -1.7803  1.0326  0.3588
13876SOL     OW43068   0.808   1.855   0.571 -0.3900 -0.1543 -0.2712
13876SOL    HW143069   0.900   1.881   0.564 -1.1505  2.3294 -3.9050
13876SOL    HW243070   0.809   1.760   0.563  1.8449 -0.0498 -2.2542
13877SOL     OW43071   5.999   3.672  11.547  0.0886  0.2708  0.3380
13877SOL    HW143072   6.070   3.698  11.488  1.7867  0.9504  2.5422
13877SOL    HW243073   5.920   3.705  11.505  1.3551  1.8910 -0.9017
13878SOL     OW43074   6.811   6.853  11.262 -0.1198 -0.8116  0.0558
13878SOL    HW143075   6.860   6.927  11.227  0.2691 -0.4167  1.3686
13878SOL    HW243076   6.731   6.893  11.298 -0.3404 -1.1595 -0.0429
13879SOL     OW43077   4.636   2.620   0.158  0.1263 -0.0242 -0.2260
13879SOL    HW143078   4.615   2.626   0.251 -1.0335 -1.5399 -0.3510
13879SOL    HW243079   4.565   2.669   0.115  0.0265 -0.2845 -0.3612
13880SOL     OW43080   3.120   0.857   8.694 -0.1763  0.2084 -0.5679
13880SOL    HW143081   3.108   0.831   8.786  1.2275 -0.3768 -0.5189
13880SOL    HW243082   3.120   0.953   8.696 -0.9026  0.2120 -0.0833
13881SOL     OW43083   1.317   5.697   2.374 -0.3912 -0.3331 -0.2699
13881SOL    HW143084   1.411   5.714   2.376 -0.4896  0.1949  0.6908
13881SOL    HW243085   1.278   5.782   2.355 -0.6943 -0.4250 -0.0572
13882SOL     OW43086   1.157   5.056   2.253 -0.2373  0.2839  0.0189
13882SOL    HW143087   1.122   5.116   2.187  0.4582  0.1621 -0.4741
13882SOL    HW243088   1.127   5.091   2.336 -1.1951  0.3977 -0.3635
13883SOL     OW43089   5.617   3.106  11.638  0.5671 -0.0565  0.2290
13883SOL    HW143090   5.693   3.057  11.606  0.9989  1.0369 -0.4821
13883SOL    HW243091   5.541   3.059  11.602  0.8509 -1.4236  1.3191
13884SOL     OW43092   1.527   3.377  10.564  0.2935 -0.5463  0.4126
13884SOL    HW143093   1.442   3.420  10.553  0.9015  0.6368  0.1625
13884SOL    HW243094   1.585   3.445  10.598  1.5343 -0.8785 -0.8946
13885SOL     OW43095   0.637   1.647   5.847 -0.2146 -0.2636 -0.3933
13885SOL    HW143096   0.567   1.582   5.845 -1.7083  1.2748 -0.2134
13885SOL    HW243097   0.626   1.697   5.766  1.4664 -0.7271 -0.9607
13886SOL     OW43098   6.077   0.315   3.063 -0.2878  0.7989  0.3616
13886SOL    HW143099   6.001   0.285   3.112  0.0731  0.8312  0.9586
13886SOL    HW243100   6.042   0.375   2.998 -0.9650 -0.5388 -0.5378
13887SOL     OW43101   3.134   3.300  11.484  0.0956 -0.2213  0.1164
13887SOL    HW143102   3.048   3.297  11.526  0.1101  0.0118  0.1646
13887SOL    HW243103   3.136   3.386  11.441 -0.0952 -0.6320 -0.7292
13888SOL     OW43104   0.996   0.628   8.298  0.3189  0.8709  0.3036
13888SOL    HW143105   1.039   0.697   8.246  2.4073 -0.2213  0.4634
13888SOL    HW243106   0.984   0.667   8.384  2.2127  0.8424  0.6214
13889SOL     OW43107   7.011   2.369  10.254  0.0066  0.5050  0.5335
13889SOL    HW143108   6.978   2.280  10.255  0.6841  0.2028 -1.0676
13889SOL    HW243109   6.936   2.422  10.225  0.1057  0.2038 -0.2958
13890SOL     OW43110   3.760   4.181   9.451 -0.8854 -0.0620 -0.1727
13890SOL    HW143111   3.685   4.216   9.500 -0.9763  1.0050 -1.0427
13890SOL    HW243112   3.829   4.246   9.463 -0.5823 -0.2999 -0.6170
13891SOL     OW43113   6.093   6.161   9.589  0.5751 -0.0241 -0.0962
13891SOL    HW143114   6.020   6.101   9.577 -0.0573  0.8764 -0.9024
13891SOL    HW243115   6.171   6.106   9.584 -0.0540 -1.1652  1.8303
13892SOL     OW43116   3.301   1.008   9.288  0.5724 -0.1253  0.2615
13892SOL    HW143117   3.277   1.036   9.376  0.1265 -1.4833  0.5883
13892SOL    HW243118   3.388   1.045   9.274  0.8295 -0.2557  1.4309
13893SOL     OW43119   0.347   0.574   7.967 -0.0606  0.1821  0.1292
13893SOL    HW143120   0.266   0.532   7.939 -0.4323  0.6262  0.5186
13893SOL    HW243121   0.395   0.591   7.886 -0.4399  0.0798 -0.1175
13894SOL     OW43122   2.379   6.488  11.028  0.0915  0.6518  0.5716
13894SOL    HW143123   2.440   6.500  11.100 -0.2504  1.7886  0.6883
13894SOL    HW243124   2.405   6.552  10.962 -0.6258  0.7726  0.3921
13895SOL     OW43125   3.053   5.736  10.302  0.3852  0.1021 -0.0377
13895SOL    HW143126   3.096   5.683  10.368 -0.4571  0.1130  0.5297
13895SOL    HW243127   2.990   5.789  10.350 -0.7113 -0.3616 -0.9050
13896SOL     OW43128   1.678   2.591   9.802  0.5604 -0.3234 -0.2646
13896SOL    HW143129   1.754   2.550   9.761  1.0325  0.4306 -0.1603
13896SOL    HW243130   1.704   2.602   9.893  0.5314  0.4164 -0.3434
13897SOL     OW43131   1.004   0.281  10.397 -0.3048 -0.1785  0.4867
13897SOL    HW143132   0.963   0.264  10.312 -1.0811 -1.3009  1.0640
13897SOL    HW243133   1.097   0.264  10.383 -0.6027 -1.6494  0.1859
13898SOL     OW43134   3.188   1.369   8.899  0.4184 -0.2069 -0.1740
13898SOL    HW143135   3.093   1.366   8.889  0.3581  1.2381 -0.2467
13898SOL    HW243136   3.211   1.285   8.937 -0.7430 -1.0786 -1.3236
13899SOL     OW43137   5.007   1.736   6.673 -0.2882  0.4179 -0.3153
13899SOL    HW143138   4.920   1.747   6.712 -0.9141 -0.5160 -1.3938
13899SOL    HW243139   5.024   1.819   6.629 -0.2985  0.8726  0.5076
13900SOL     OW43140   3.378   1.395   9.486 -0.1871 -0.6544  0.2098
13900SOL    HW143141   3.335   1.480   9.482 -0.0118 -0.5539  0.4827
13900SOL    HW243142   3.319   1.341   9.539 -0.7952 -0.9955 -0.7783
13901SOL     OW43143   0.797   0.594   7.917 -0.2098  0.5667 -0.1002
13901SOL    HW143144   0.733   0.645   7.966 -0.8219 -0.7056  0.4701
13901SOL    HW243145   0.754   0.511   7.899  0.8940  0.0863 -0.6537
13902SOL     OW43146   7.690   7.585  12.169  0.0371 -0.0852 -0.5024
13902SOL    HW143147   7.756   7.570  12.101 -0.8068 -1.7619 -0.9936
13902SOL    HW243148   7.738   7.631  12.238  0.7578  2.3099 -2.4713
13903SOL     OW43149   4.290   3.817  11.932  0.5607  0.2881 -0.3100
13903SOL    HW143150   4.229   3.755  11.893  0.7370 -0.5532  0.6998
13903SOL    HW243151   4.284   3.895  11.877 -1.3567  0.2090 -0.2775
13904SOL     OW43152   0.481   6.393   5.146 -0.0844  0.7469 -0.4991
13904SOL    HW143153   0.434   6.432   5.073 -0.5695 -0.9572 -1.1407
13904SOL    HW243154   0.474   6.299   5.132  0.3326  0.3831  1.4227
13905SOL     OW43155   2.903   6.226   8.579  0.3471  0.7174 -0.2602
13905SOL    HW143156   2.925   6.263   8.493  0.9168  0.5261 -0.1993
13905SOL    HW243157   2.936   6.137   8.576 -2.0549 -0.2425 -0.8460
13906SOL     OW43158   5.782   1.198   7.613  0.1946  0.5827  0.0015
13906SOL    HW143159   5.751   1.110   7.634  1.7926 -0.5582 -2.0738
13906SOL    HW243160   5.820   1.230   7.695  0.2132 -0.9366  0.6257
13907SOL     OW43161   2.946   7.751   6.064 -0.0204 -0.1558  0.4728
13907SOL    HW143162   2.906   7.668   6.088  0.7150 -0.6783 -0.0704
13907SOL    HW243163   2.875   7.815   6.070 -1.1078 -1.1430 -1.0740
13908SOL     OW43164   3.165   2.211   6.279  0.6379  0.6141  0.0779
13908SOL    HW143165   3.086   2.194   6.331 -0.9798  0.4800 -2.2905
13908SOL    HW243166   3.200   2.292   6.315 -0.5199  0.6280  1.2419
13909SOL     OW43167   3.929   1.403  10.220 -0.2127 -0.2571  0.4085
13909SOL    HW143168   3.918   1.395  10.314 -2.9873  2.5447  0.4692
13909SOL    HW243169   3.970   1.489  10.207  0.0087 -0.5330 -0.9478
13910SOL     OW43170   6.439   5.081   7.678 -0.3372  0.2212 -0.1451
13910SOL    HW143171   6.373   5.117   7.738  0.3796  0.7785  0.3182
13910SOL    HW243172   6.398   5.088   7.591 -0.9813  0.3553  0.1623
13911SOL     OW43173   4.787   0.410  11.956  0.2200  0.6196  0.1608
13911SOL    HW143174   4.855   0.404  11.888  0.4983 -1.7358  0.5678
13911SOL    HW243175   4.756   0.320  11.966 -0.5441  1.0875  2.4207
13912SOL     OW43176   6.398   3.021   2.873  0.1356  0.0260 -0.5137
13912SOL    HW143177   6.438   3.083   2.934  2.7353 -1.5802 -0.4321
13912SOL    HW243178   6.361   3.076   2.804 -0.3984  1.7576  1.0556
13913SOL     OW43179   4.193   2.900   9.789 -0.4169  0.0696 -0.0113
13913SOL    HW143180   4.272   2.851   9.810 -0.7610 -0.1357  0.8321
13913SOL    HW243181   4.224   2.974   9.737  0.1824 -0.6706 -0.7261
13914SOL     OW43182   5.644   6.342  12.337 -0.1511 -0.0491  0.4347
13914SOL    HW143183   5.665   6.261  12.384 -0.0322 -0.6094 -0.5633
13914SOL    HW243184   5.645   6.317  12.245  0.2625  1.1802  0.0883
13915SOL     OW43185   5.690   6.585  11.619 -0.0599 -0.0392 -0.2384
13915SOL    HW143186   5.666   6.496  11.593 -0.8231  0.2348 -0.4901
13915SOL    HW243187   5.785   6.588  11.609 -0.2265 -0.1468 -2.4360
13916SOL     OW43188   4.657   5.795   0.318  0.3644 -0.2775 -0.3426
13916SOL    HW143189   4.716   5.838   0.256  0.7071  0.6141  0.5684
13916SOL    HW243190   4.591   5.753   0.264  0.8539  0.1811 -1.3190
13917SOL     OW43191   0.885   1.010   6.297  0.0339  0.1399 -0.1439
13917SOL    HW143192   0.839   1.075   6.244  0.5212  1.3649  0.8984
13917SOL    HW243193   0.975   1.042   6.300 -0.0283  0.2039  1.5856
13918SOL     OW43194   3.695   5.120   3.723  0.2257  0.2730  0.5083
13918SOL    HW143195   3.708   5.128   3.817  0.4002 -0.6786  0.5706
13918SOL    HW243196   3.779   5.088   3.689  0.3512  1.1389 -0.0536
13919SOL     OW43197   3.955   7.738  10.956 -0.5387  0.2156  0.2383
13919SOL    HW143198   3.993   7.655  10.985 -1.8025 -1.1153 -1.6928
13919SOL    HW243199   3.864   7.717  10.936 -0.6457  1.8419 -1.2023
13920SOL     OW43200   7.335   7.433   4.329 -0.8106 -0.4877 -0.2386
13920SOL    HW143201   7.397   7.415   4.401 -0.6251  0.7917 -0.0438
13920SOL    HW243202   7.359   7.371   4.261  1.4686  0.6594 -0.6012
13921SOL     OW43203   7.142   3.480   8.163 -0.1641 -0.0860 -0.0014
13921SOL    HW143204   7.144   3.541   8.089 -2.2471 -0.6105 -0.5582
13921SOL    HW243205   7.169   3.396   8.125 -2.0821 -0.5572 -0.4599
13922SOL     OW43206   0.503   3.537   8.127 -0.6479  0.2798  0.1308
13922SOL    HW143207   0.473   3.625   8.103 -0.6695  0.4508  0.7763
13922SOL    HW243208   0.451   3.478   8.072  1.5053  0.7404 -2.5912
13923SOL     OW43209   5.000   0.211   9.597 -0.7652  0.0598 -0.5300
13923SOL    HW143210   5.005   0.278   9.528  0.8252  0.9847  0.4222
13923SOL    HW243211   5.057   0.244   9.666 -0.9169 -1.7160  0.4904
13924SOL     OW43212   0.983   0.847   4.730 -0.1946  0.5335  0.4345
13924SOL    HW143213   0.916   0.889   4.785 -1.2408  0.3999 -0.7071
13924SOL    HW243214   0.975   0.754   4.750  0.4951  0.6214  1.1868
13925SOL     OW43215   2.500   3.479  11.137  0.5280 -0.5946  0.3008
13925SOL    HW143216   2.527   3.389  11.124 -2.2773 -1.1949 -2.6325
13925SOL    HW243217   2.424   3.473  11.195  1.2464  0.1101  1.3614
13926SOL     OW43218   2.864   2.835   9.620  0.1373 -0.5941 -0.5821
13926SOL    HW143219   2.769   2.835   9.615  0.0654  1.2187  0.1389
13926SOL    HW243220   2.890   2.751   9.582 -1.7512 -1.3074 -0.4001
13927SOL     OW43221   5.787   0.341   0.397 -0.2993  0.2043 -0.5432
13927SOL    HW143222   5.881   0.334   0.409  0.2204 -0.1626 -3.9641
13927SOL    HW243223   5.752   0.343   0.486  2.8266 -0.6224  0.8458
13928SOL     OW43224   6.843   3.934   4.102  0.2794 -0.5186 -0.6989
13928SOL    HW143225   6.771   3.943   4.165 -0.1059  0.3339 -1.2364
13928SOL    HW243226   6.891   4.017   4.110 -0.6311  0.2449 -2.5332
13929SOL     OW43227   2.254   7.596   5.450 -0.2020  0.3174  0.4261
13929SOL    HW143228   2.162   7.594   5.478 -0.4588  0.7840 -0.3727
13929SOL    HW243229   2.274   7.689   5.442  0.3323  0.2127  0.5511
13930SOL     OW43230   2.324   1.291  10.773  0.0194 -0.0267 -0.1553
13930SOL    HW143231   2.413   1.269  10.747  1.3134  1.5334  2.5781
13930SOL    HW243232   2.286   1.207  10.800  2.0633 -0.2616  2.3369
13931SOL     OW43233   5.231   2.322   9.610 -0.5395 -0.2661  0.0680
13931SOL    HW143234   5.319   2.351   9.632 -0.0158 -1.1469 -0.7827
13931SOL    HW243235   5.201   2.386   9.544 -0.6074  0.1181  0.4639
13932SOL     OW43236   1.255   5.753   1.246  0.0936 -0.0969  0.1457
13932SOL    HW143237   1.196   5.718   1.179 -0.4026  1.8348 -0.4916
13932SOL    HW243238   1.314   5.812   1.199 -1.3756  2.7160  1.5106
13933SOL     OW43239   4.314   5.574   3.821 -0.6420 -0.4422 -0.1393
13933SOL    HW143240   4.228   5.603   3.851 -0.9525 -0.8642 -0.6041
13933SOL    HW243241   4.297   5.494   3.771 -0.1847  0.3112 -1.5823
13934SOL     OW43242   0.171   4.958   4.642  0.1453 -0.5979  0.2401
13934SOL    HW143243   0.210   4.889   4.589  1.0938 -0.1552  0.3370
13934SOL    HW243244   0.086   4.974   4.602 -0.8618 -3.0095  1.2652
13935SOL     OW43245   1.106   6.449   7.022  0.1968 -0.2907  0.2085
13935SOL    HW143246   1.011   6.447   7.019  0.2170  0.0082 -0.7880
13935SOL    HW243247   1.129   6.384   7.088 -0.6387 -1.4417 -0.6025
13936SOL     OW43248   6.315   6.612   7.099 -0.1894  0.3173  0.0953
13936SOL    HW143249   6.401   6.578   7.073 -0.0257  0.1399  0.8458
13936SOL    HW243250   6.304   6.691   7.046  0.4699  0.3875  0.0453
13937SOL     OW43251   4.203   3.631   0.772 -0.3662  0.0034 -0.0790
13937SOL    HW143252   4.207   3.650   0.678  0.8327  0.0115 -0.0490
13937SOL    HW243253   4.146   3.554   0.778 -0.8263  0.2790 -0.7591
13938SOL     OW43254   6.681   3.183   5.967 -0.0898  0.0735  0.0182
13938SOL    HW143255   6.691   3.097   5.926  0.5385  0.4794 -0.7096
13938SOL    HW243256   6.716   3.244   5.902  0.0831  0.8214  0.8032
13939SOL     OW43257   0.558   6.169   7.505  0.1445  0.2962  0.3963
13939SOL    HW143258   0.607   6.202   7.430  1.4347  0.9354  1.4696
13939SOL    HW243259   0.466   6.180   7.481  0.5293  0.5565 -1.0406
13940SOL     OW43260   4.411   1.551   6.713 -0.2381  0.2629 -0.4265
13940SOL    HW143261   4.319   1.573   6.730 -0.1465 -0.5888  1.3539
13940SOL    HW243262   4.406   1.477   6.651 -0.7731  0.0132 -0.0960
13941SOL     OW43263   2.229   5.717   0.798 -0.0322  0.0966  0.2033
13941SOL    HW143264   2.171   5.643   0.814 -1.0639  1.2114  2.1221
13941SOL    HW243265   2.182   5.771   0.735 -0.1659  0.0218  0.2391
13942SOL     OW43266   1.978   3.452   3.510 -0.0654  0.6450 -0.2621
13942SOL    HW143267   2.006   3.540   3.535 -1.1538  1.1166 -0.6168
13942SOL    HW243268   1.885   3.449   3.532 -0.7580  0.6154 -2.8975
13943SOL     OW43269   5.325   2.616   5.365 -0.2431  0.5260 -0.5045
13943SOL    HW143270   5.313   2.710   5.379 -1.6720  0.2934 -0.0081
13943SOL    HW243271   5.312   2.604   5.271 -1.8468  0.6201 -0.3300
13944SOL     OW43272   5.793   1.062   6.689 -0.2911 -0.9633 -0.4559
13944SOL    HW143273   5.820   1.066   6.781 -0.0724  0.6751 -0.5740
13944SOL    HW243274   5.861   1.009   6.647  1.3300  0.8124 -0.2185
13945SOL     OW43275   5.062   5.843   9.693  0.3232 -0.1638  0.1826
13945SOL    HW143276   5.019   5.888   9.765  0.4428  1.5605 -0.7711
13945SOL    HW243277   4.996   5.840   9.624  0.5061 -0.9620  0.0364
13946SOL     OW43278   0.548   7.674   1.178 -0.4442 -0.2399 -0.1364
13946SOL    HW143279   0.483   7.640   1.240 -1.1896  1.1678 -0.1071
13946SOL    HW243280   0.497   7.727   1.117  0.6716  0.8569 -0.1497
13947SOL     OW43281   1.630   5.130   2.833  0.1423  0.1178 -0.0068
13947SOL    HW143282   1.661   5.044   2.861  0.7313  0.7636  1.4071
13947SOL    HW243283   1.597   5.171   2.913  2.1290  2.1363 -0.1327
13948SOL     OW43284   3.853   2.144   3.401 -0.4719  0.0067 -0.1485
13948SOL    HW143285   3.931   2.099   3.370 -1.2044 -0.3353 -1.5811
13948SOL    HW243286   3.886   2.224   3.443  0.7425 -1.0941  1.0917
13949SOL     OW43287   7.577   7.788   1.582 -0.0760  0.5244 -0.0997
13949SOL    HW143288   7.597   7.827   1.667  2.4469 -1.8008  0.5291
13949SOL    HW243289   7.483   7.804   1.569 -0.1065  2.6760  2.1452
13950SOL     OW43290   0.985   3.409  11.148 -0.3481  0.5372  0.5667
13950SOL    HW143291   1.041   3.449  11.214 -1.2114  1.2550  0.8793
13950SOL    HW243292   1.038   3.337  11.112  0.3682  0.5333  1.5867
13951SOL     OW43293   3.283   6.358   1.704 -0.0284 -0.5477  0.1411
13951SOL    HW143294   3.297   6.447   1.671  0.3683 -0.7153 -0.1500
13951SOL    HW243295   3.283   6.303   1.626 -0.4624 -0.7843  0.3022
13952SOL     OW43296   3.065   4.040   1.413 -0.5780  0.1063 -1.0963
13952SOL    HW143297   2.992   4.102   1.417 -2.0603 -1.6310 -0.2709
13952SOL    HW243298   3.137   4.091   1.374 -2.0000  2.0548 -1.3170
13953SOL     OW43299   5.801   1.907   1.239 -0.7489 -0.1541  0.1163
13953SOL    HW143300   5.853   1.977   1.202 -1.4806  0.2187 -0.2349
13953SOL    HW243301   5.860   1.831   1.240  0.3787  0.7060  1.4869
13954SOL     OW43302   1.077   5.752  11.205 -0.0199 -0.1629  0.0992
13954SOL    HW143303   1.169   5.725  11.211 -0.2672 -0.9385  0.5354
13954SOL    HW243304   1.061   5.799  11.287 -0.4580 -1.4899  0.8093
13955SOL     OW43305   3.495   1.893   5.235  0.5803 -0.3651  0.3136
13955SOL    HW143306   3.439   1.886   5.313  1.1253 -0.1827  0.7258
13955SOL    HW243307   3.462   1.970   5.189 -0.1601 -0.8417  0.0180
13956SOL     OW43308   6.970   3.410  10.123 -0.6210 -0.6035 -0.0867
13956SOL    HW143309   6.891   3.434  10.171 -1.1560  0.1458 -1.2980
13956SOL    HW243310   6.955   3.319  10.097 -0.9898 -0.5310 -0.1347
13957SOL     OW43311   1.750   5.804   2.020  0.4637 -0.5487 -0.1504
13957SOL    HW143312   1.747   5.765   2.108  3.1023 -1.0775 -0.2319
13957SOL    HW243313   1.696   5.883   2.027 -0.3614 -1.2189  1.5930
13958SOL     OW43314   5.105   0.593  10.493 -0.2113  0.3614  0.6213
13958SOL    HW143315   5.069   0.506  10.474  0.2786  0.0563  1.0482
13958SOL    HW243316   5.051   0.653  10.442 -1.1276 -0.1049  1.0266
13959SOL     OW43317   5.463   5.966   7.845 -0.4445  0.0647  0.0937
13959SOL    HW143318   5.472   5.969   7.750 -0.3118  0.2071  0.1105
13959SOL    HW243319   5.390   5.906   7.860 -0.6454  0.2586 -0.1051
13960SOL     OW43320   1.078   3.050   0.611  0.5595 -0.0932  0.2004
13960SOL    HW143321   1.033   2.965   0.610 -0.1369  0.2430  1.2913
13960SOL    HW243322   1.090   3.071   0.518 -0.0629 -0.9679 -0.0973
13961SOL     OW43323   3.805   5.274   2.241  0.5901 -0.1087  0.1218
13961SOL    HW143324   3.892   5.237   2.228  1.1407  1.3229 -0.5314
13961SOL    HW243325   3.745   5.200   2.229  1.4890 -0.4841 -3.2460
13962SOL     OW43326   5.146   6.309   1.342 -0.3817 -0.2349 -0.0301
13962SOL    HW143327   5.145   6.214   1.346  0.3819 -0.2260  0.5927
13962SOL    HW243328   5.137   6.337   1.433 -2.3553  0.3302 -0.3443
13963SOL     OW43329   5.387   1.993   3.772 -0.0624 -0.1034 -0.3635
13963SOL    HW143330   5.428   2.015   3.856 -0.3092  0.1797 -0.3151
13963SOL    HW243331   5.385   1.897   3.771  0.8425 -0.1234 -0.4860
13964SOL     OW43332   1.648   3.322   6.167  0.2363 -0.1720  0.0534
13964SOL    HW143333   1.557   3.313   6.195  0.5805  1.1672  1.8527
13964SOL    HW243334   1.672   3.235   6.135 -1.9006 -0.3309 -1.3485
13965SOL     OW43335   7.265   2.711   4.980  0.0003  0.1083  0.2499
13965SOL    HW143336   7.188   2.747   5.024 -0.6075 -1.8055  0.8574
13965SOL    HW243337   7.240   2.621   4.958  1.9080 -0.4116  0.0307
13966SOL     OW43338   5.834   7.863   6.364  0.1688 -0.0622  0.5558
13966SOL    HW143339   5.920   7.854   6.405  1.0035 -2.2729 -1.4598
13966SOL    HW243340   5.820   7.779   6.320 -2.0787  1.0172 -0.9278
13967SOL     OW43341   3.780   3.114   7.590 -0.6334 -0.0001  0.1544
13967SOL    HW143342   3.718   3.162   7.533 -1.6594 -0.0357  1.2067
13967SOL    HW243343   3.766   3.151   7.677 -0.0342 -0.8782  0.6377
13968SOL     OW43344   4.804   2.250   1.256 -0.2761 -0.4780  0.0303
13968SOL    HW143345   4.760   2.165   1.253  0.4193 -0.8584  0.4382
13968SOL    HW243346   4.850   2.250   1.340 -2.3036  1.3483  1.2516
13969SOL     OW43347   4.343   3.695   5.633  0.3753 -0.2616 -0.3198
13969SOL    HW143348   4.335   3.784   5.598  1.4970  0.4314  1.1008
13969SOL    HW243349   4.437   3.683   5.647  0.1281 -1.2017  0.6759
13970SOL     OW43350   0.835   3.496  12.275 -0.3349 -0.1446  0.3336
13970SOL    HW143351   0.772   3.433  12.240 -1.0526  1.0503 -0.5962
13970SOL    HW243352   0.797   3.524  12.358 -0.9165  0.3788 -0.1015
13971SOL     OW43353   1.809   0.339   2.183  0.2844 -0.7650  0.4239
13971SOL    HW143354   1.714   0.325   2.186  0.2010 -0.1596  1.0192
13971SOL    HW243355   1.825   0.376   2.096  0.1037 -1.6600 -0.0029
13972SOL     OW43356   5.131   2.836   2.547 -0.1010 -0.0681  0.2951
13972SOL    HW143357   5.051   2.831   2.599 -0.8048  1.6643 -0.5550
13972SOL    HW243358   5.199   2.859   2.610 -0.2995 -1.2273  0.9649
13973SOL     OW43359   2.442   2.376   1.579  0.6531  0.7377 -0.6852
13973SOL    HW143360   2.450   2.377   1.674  0.9399  0.5082 -0.7065
13973SOL    HW243361   2.385   2.450   1.559 -0.1810  0.2284 -0.2588
13974SOL     OW43362   7.735   7.746   0.176 -0.4834  0.1015  0.5189
13974SOL    HW143363   7.642   7.730   0.157 -0.2411 -0.1868 -0.4284
13974SOL    HW243364   7.759   7.676   0.236 -0.5745 -0.5273 -0.1683
13975SOL     OW43365   7.972   5.924   8.249 -0.2779 -0.4055 -0.6543
13975SOL    HW143366   7.885   5.956   8.225  0.0457 -0.2511 -1.6887
13975SOL    HW243367   7.984   5.846   8.195  0.2388 -0.3991 -0.5498
13976SOL     OW43368   4.313   0.761   3.451  0.3143  0.2259 -0.2060
13976SOL    HW143369   4.249   0.689   3.456 -0.5648  0.9984  0.0371
13976SOL    HW243370   4.260   0.840   3.463  1.2148  0.9342 -0.8240
13977SOL     OW43371   1.232   7.258  10.151 -1.0950  0.0945  0.7692
13977SOL    HW143372   1.156   7.203  10.132 -0.3780 -1.0799  1.2397
13977SOL    HW243373   1.282   7.210  10.217 -0.4958  1.3592  1.2814
13978SOL     OW43374   5.490   4.971   3.723  0.3536 -0.0765 -0.1126
13978SOL    HW143375   5.432   4.952   3.797 -2.0699 -2.8361 -2.4711
13978SOL    HW243376   5.446   5.041   3.676 -0.7242 -1.5658 -1.4196
13979SOL     OW43377   1.725   3.294  12.153  0.1263 -0.3264  0.6373
13979SOL    HW143378   1.752   3.377  12.193 -1.6244  0.3830  0.4181
13979SOL    HW243379   1.631   3.304  12.137  0.4779 -1.0120 -2.5377
13980SOL     OW43380   0.481   5.897   1.753  0.2416  0.6114  0.1292
13980SOL    HW143381   0.533   5.913   1.832 -0.6883 -0.9332  1.1266
13980SOL    HW243382   0.399   5.860   1.786  0.4079 -1.5149 -1.6133
13981SOL     OW43383   5.361   3.259   3.457  0.3654  0.0423 -0.0896
13981SOL    HW143384   5.352   3.284   3.365 -2.0925  0.9681  0.3299
13981SOL    HW243385   5.446   3.295   3.483  0.4818  1.0055 -1.6415
13982SOL     OW43386   4.276   0.001   8.291  0.4548  0.0336 -0.3397
13982SOL    HW143387   4.350  -0.037   8.337 -0.1114  1.0183  1.4967
13982SOL    HW243388   4.266   0.088   8.329  0.2375  1.1263 -2.7224
13983SOL     OW43389   5.847   2.750   4.550 -0.4592  0.4909 -0.6666
13983SOL    HW143390   5.847   2.748   4.454  1.7227 -0.6181 -0.7278
13983SOL    HW243391   5.756   2.737   4.574 -1.1107  1.0712 -2.5818
13984SOL     OW43392   1.749   0.262   7.004 -0.9317  0.3869 -0.3928
13984SOL    HW143393   1.722   0.300   6.921  0.0318  0.8668 -0.5004
13984SOL    HW243394   1.830   0.307   7.026  0.8573 -2.2656 -1.0608
13985SOL     OW43395   6.591   1.434   1.002 -0.3103 -0.1696  0.1329
13985SOL    HW143396   6.516   1.427   1.062  0.1936 -0.2023  0.7754
13985SOL    HW243397   6.622   1.344   0.992 -0.5336 -0.1954 -0.3758
13986SOL     OW43398   7.109   4.911   8.502  0.1919 -0.0106  0.3786
13986SOL    HW143399   7.013   4.914   8.505  0.2219  0.1099  1.4051
13986SOL    HW243400   7.132   4.965   8.427 -0.4720  1.7229  1.3675
13987SOL     OW43401   1.827   5.399   1.782 -0.2810  0.0075  0.1114
13987SOL    HW143402   1.733   5.414   1.786 -0.6064 -1.4554 -1.2328
13987SOL    HW243403   1.864   5.463   1.843 -2.2130 -0.1457  1.5366
13988SOL     OW43404   7.018   0.236   8.468 -1.2996 -0.3188  0.2756
13988SOL    HW143405   6.937   0.281   8.491 -1.7498 -1.4584  0.9648
13988SOL    HW243406   7.038   0.183   8.545 -0.5093 -0.9259 -0.3386
13989SOL     OW43407   5.611   7.024   2.876  0.0162  0.5909 -0.1527
13989SOL    HW143408   5.556   7.058   2.947  0.9077  0.8314  0.4289
13989SOL    HW243409   5.562   7.046   2.796 -1.3325 -0.2897  0.3901
13990SOL     OW43410   3.025   0.827   8.173  0.1542  0.1680  0.6355
13990SOL    HW143411   3.118   0.811   8.184  0.5281  0.2639 -1.9623
13990SOL    HW243412   2.992   0.751   8.126 -0.6123  1.1412 -0.4645
13991SOL     OW43413   3.611   6.187   0.901 -0.2978 -0.6182  0.1915
13991SOL    HW143414   3.664   6.265   0.884 -0.4170  0.0630  2.6118
13991SOL    HW243415   3.601   6.146   0.815  1.0502  1.1984 -0.9088
13992SOL     OW43416   1.115   4.370   4.437 -0.0653  0.2281  0.4466
13992SOL    HW143417   1.060   4.321   4.376 -2.1669 -1.6177  3.5110
13992SOL    HW243418   1.167   4.303   4.481  0.4407  1.3133  1.5659
13993SOL     OW43419   5.565   4.728   9.001 -0.5082 -0.0348  0.0547
13993SOL    HW143420   5.472   4.740   9.022  0.2075  0.9158  3.1334
13993SOL    HW243421   5.586   4.641   9.035 -0.0807  0.1175  0.1875
13994SOL     OW43422   4.128   5.195  11.164 -0.2593  0.1894  0.6556
13994SOL    HW143423   4.213   5.220  11.128 -0.9630 -0.1140 -1.3792
13994SOL    HW243424   4.097   5.273  11.210  0.9851  0.3755  1.2228
13995SOL     OW43425   2.609   1.120   8.515 -0.3406 -0.7350  0.2459
13995SOL    HW143426   2.632   1.042   8.565 -0.8807 -2.5469 -2.1574
13995SOL    HW243427   2.514   1.127   8.524 -0.5984 -1.7888 -1.4502
13996SOL     OW43428   2.263   2.219   4.143 -0.1216 -0.3065 -0.1618
13996SOL    HW143429   2.209   2.295   4.164  2.5051  1.4865  0.7404
13996SOL    HW243430   2.324   2.252   4.076  0.5852 -1.8751 -0.3186
13997SOL     OW43431   7.634   4.095   5.223  0.3421 -0.2887 -0.2402
13997SOL    HW143432   7.605   4.078   5.133  1.3034 -1.5259 -0.3426
13997SOL    HW243433   7.572   4.046   5.277 -0.0740  0.2358 -0.2354
13998SOL     OW43434   0.323   1.360   9.197  0.1659 -0.1403  0.2525
13998SOL    HW143435   0.358   1.446   9.172  0.7410  0.2003  2.0706
13998SOL    HW243436   0.243   1.381   9.245 -1.7970 -0.8440 -2.4809
13999SOL     OW43437   1.290   3.298   9.531  0.0855  0.6133  0.5395
13999SOL    HW143438   1.275   3.326   9.441 -0.7046 -1.1636  0.0902
13999SOL    HW243439   1.204   3.305   9.573  0.4647  1.5272  1.2265
14000SOL     OW43440   0.548   2.449   0.888  0.3130  0.0686  0.5330
14000SOL    HW143441   0.599   2.483   0.814  1.1481  0.5053  1.2934
14000SOL    HW243442   0.519   2.362   0.859 -0.8277  0.8974 -0.9661
14001SOL     OW43443   4.883   7.638  12.132  0.0745 -0.3145  0.0884
14001SOL    HW143444   4.877   7.595  12.217 -0.9912  0.2670  0.3152
14001SOL    HW243445   4.815   7.596  12.079  0.2730 -0.1922 -0.2658
14002SOL     OW43446   5.508   0.323   1.581 -0.1798  0.2951  0.2381
14002SOL    HW143447   5.426   0.294   1.542  0.4255  1.3569 -1.9389
14002SOL    HW243448   5.572   0.255   1.557 -0.5305 -1.0949  2.8290
14003SOL     OW43449   5.390   6.055   7.213  0.3441 -0.5621 -0.3151
14003SOL    HW143450   5.468   6.109   7.201  1.4790 -1.7029  1.5379
14003SOL    HW243451   5.357   6.078   7.300 -1.6205  0.1075 -1.1602
14004SOL     OW43452   1.063   7.431   0.870 -0.0078  0.1153 -0.1347
14004SOL    HW143453   1.039   7.464   0.957 -0.7552 -0.9167  0.0769
14004SOL    HW243454   1.145   7.383   0.884 -1.0009 -1.5260  0.3902
14005SOL     OW43455   0.094   2.749   1.750  0.3359  0.6394 -0.3124
14005SOL    HW143456   0.029   2.720   1.686  1.0566 -0.2114 -0.6855
14005SOL    HW243457   0.127   2.831   1.715  1.1051 -0.0823 -1.3455
14006SOL     OW43458   6.741   5.897  11.253 -0.0143  0.0045  0.3708
14006SOL    HW143459   6.682   5.828  11.282 -0.7123  0.2620 -0.3950
14006SOL    HW243460   6.694   5.941  11.182  2.0163 -1.2306 -1.8992
14007SOL     OW43461   5.981   1.966   8.312  0.3170  0.0359 -0.2234
14007SOL    HW143462   6.032   1.932   8.239  0.3812  0.1756 -0.2451
14007SOL    HW243463   6.021   2.051   8.332  0.6811 -0.2722  0.3666
14008SOL     OW43464   3.766   0.815  10.089  0.1475  0.0664 -0.0127
14008SOL    HW143465   3.736   0.906  10.095 -1.4678 -0.2926 -1.6382
14008SOL    HW243466   3.690   0.767  10.055  0.6881 -2.0678  1.5635
14009SOL     OW43467   4.393   0.983   0.579 -0.2517 -0.7362 -0.4151
14009SOL    HW143468   4.459   0.960   0.644 -0.8265 -0.6164  0.2237
14009SOL    HW243469   4.391   0.908   0.519 -0.4830 -1.3431  0.3340
14010SOL     OW43470   3.306   6.225   3.740  0.2649  0.1076  0.0897
14010SOL    HW143471   3.301   6.320   3.752  2.0062  0.2452 -0.0839
14010SOL    HW243472   3.219   6.200   3.709  0.1499  1.8192 -1.0716
14011SOL     OW43473   6.451   3.865   4.823 -0.4675  0.5868 -0.4957
14011SOL    HW143474   6.543   3.873   4.847 -0.6612  0.3722  0.3411
14011SOL    HW243475   6.433   3.770   4.825 -0.9295  0.6835  0.2199
14012SOL     OW43476   2.189   4.112   7.741 -0.1633 -0.1510  0.2570
14012SOL    HW143477   2.203   4.198   7.702  0.1837 -0.2977  0.0563
14012SOL    HW243478   2.273   4.067   7.732 -0.3321 -0.5003  0.3906
14013SOL     OW43479   1.110   7.983   7.624  0.2856  0.3577 -0.4427
14013SOL    HW143480   1.113   7.916   7.693 -0.7668 -1.8845 -2.4378
14013SOL    HW243481   1.193   8.030   7.634  0.0354  0.3852  2.5186
14014SOL     OW43482   2.895   7.873   9.273  0.7686  0.2118 -0.0539
14014SOL    HW143483   2.850   7.790   9.257  0.8263  0.0345  0.6744
14014SOL    HW243484   2.826   7.939   9.270  0.7816  0.1953 -1.0356
14015SOL     OW43485   6.544   6.171   5.337  0.3159  1.0248  0.1347
14015SOL    HW143486   6.582   6.187   5.251  1.1253  2.0788  0.6725
14015SOL    HW243487   6.587   6.091   5.368 -0.0911  0.5541 -0.4901
14016SOL     OW43488   1.749   3.280   9.683 -0.6474  0.5521  0.2145
14016SOL    HW143489   1.668   3.235   9.658 -0.1882 -0.1673  0.0126
14016SOL    HW243490   1.747   3.281   9.779 -0.7394  0.2465  0.2159
14017SOL     OW43491   7.835   4.718   6.098  0.1638 -0.2586 -0.0058
14017SOL    HW143492   7.784   4.752   6.024 -0.1203 -0.9430 -0.1378
14017SOL    HW243493   7.893   4.653   6.058 -0.1118 -0.7549  0.3937
14018SOL     OW43494   3.372   2.781   1.887  0.0604  0.4868 -0.0814
14018SOL    HW143495   3.360   2.686   1.893 -2.7540  0.6820 -0.7952
14018SOL    HW243496   3.466   2.793   1.873  0.1428 -2.5078 -4.0819
14019SOL     OW43497   5.620   3.023  12.442  0.3987 -0.0167 -0.1684
14019SOL    HW143498   5.625   2.996  12.350 -2.3053 -1.6937  0.0599
14019SOL    HW243499   5.699   2.987  12.482 -0.2362 -2.7631 -1.1335
14020SOL     OW43500   7.194   1.759  12.434  0.0211 -0.0025 -0.6337
14020SOL    HW143501   7.275   1.750  12.483 -0.4924  1.5258  0.5739
14020SOL    HW243502   7.166   1.669  12.418  1.3687 -0.5479 -0.0869
14021SOL     OW43503   6.236   0.261   1.341 -0.2157 -0.1015  0.7378
14021SOL    HW143504   6.200   0.348   1.357 -2.9270 -0.8812 -0.5313
14021SOL    HW243505   6.228   0.216   1.425 -1.5768 -0.0252  0.6607
14022SOL     OW43506   7.329   6.966   8.432  0.1268  0.0490  0.2734
14022SOL    HW143507   7.295   6.954   8.344 -0.8319  0.5876  0.5600
14022SOL    HW243508   7.253   6.957   8.490  0.2617  2.0997  0.8621
14023SOL     OW43509   5.523   2.004   1.544  0.1795 -0.3702  0.2819
14023SOL    HW143510   5.483   1.938   1.601  0.0164  0.6909  1.4369
14023SOL    HW243511   5.617   1.983   1.546 -0.0391 -1.5767 -0.7361
14024SOL     OW43512   6.523   5.503   3.793  0.3391 -0.0848  0.3409
14024SOL    HW143513   6.473   5.462   3.723 -0.4621  1.4178 -0.0132
14024SOL    HW243514   6.522   5.439   3.865 -1.4862 -0.3928  0.0853
14025SOL     OW43515   1.543   6.015   3.847 -0.1435 -0.4122 -0.3047
14025SOL    HW143516   1.588   5.957   3.786  0.0548 -3.9449  2.8353
14025SOL    HW243517   1.483   5.958   3.895  0.5597  1.7323  3.5918
14026SOL     OW43518   1.663   3.163   0.391 -0.3887  0.7340  0.3593
14026SOL    HW143519   1.590   3.103   0.408  0.5526  0.0124  2.0461
14026SOL    HW243520   1.740   3.106   0.386  0.5719  1.7675  2.2954
14027SOL     OW43521   0.938   0.386   8.545  0.0684 -0.7436 -0.0192
14027SOL    HW143522   0.888   0.330   8.606  0.3792 -0.6280  0.3468
14027SOL    HW243523   0.873   0.446   8.509  0.1188  0.1233  1.2728
14028SOL     OW43524   1.931   3.508   1.257 -0.4817 -0.3580  0.2290
14028SOL    HW143525   1.999   3.446   1.233 -1.4813 -0.3940 -2.9886
14028SOL    HW243526   1.963   3.592   1.223 -1.7692 -0.2934 -0.8860
14029SOL     OW43527   3.518   4.165   4.473 -0.2021  0.0085  0.8524
14029SOL    HW143528   3.433   4.207   4.460  0.0426  0.1410 -0.4458
14029SOL    HW243529   3.501   4.072   4.456 -0.2375 -0.0735  1.3276
14030SOL     OW43530   3.425   5.963  11.723  0.0029  0.2195 -0.2892
14030SOL    HW143531   3.434   5.874  11.689  2.0403  0.2480  0.0438
14030SOL    HW243532   3.336   5.988  11.700 -0.5930 -1.8573 -0.4833
14031SOL     OW43533   7.524   4.821   4.570 -0.0909 -0.1604 -0.5270
14031SOL    HW143534   7.547   4.809   4.662 -0.7759 -2.3196 -0.5992
14031SOL    HW243535   7.463   4.895   4.570 -2.8553 -2.2596  1.2704
14032SOL     OW43536   5.228   1.443   9.764  0.3277 -0.4183 -0.2052
14032SOL    HW143537   5.140   1.405   9.763 -0.3383  0.8262  2.3294
14032SOL    HW243538   5.277   1.388   9.824  1.6465 -1.6173 -2.2393
14033SOL     OW43539   2.536   4.809  10.610 -0.6274  0.2282 -0.2219
14033SOL    HW143540   2.502   4.759  10.684 -1.7175 -0.8273 -1.3733
14033SOL    HW243541   2.523   4.752  10.534  2.3310  0.4122 -1.0013
14034SOL     OW43542   6.217   3.986   8.935 -0.5322  0.5807 -0.9579
14034SOL    HW143543   6.311   3.971   8.923 -0.5242 -1.0416  0.6267
14034SOL    HW243544   6.198   4.063   8.883  1.5277  0.4928 -1.9358
14035SOL     OW43545   7.140   7.687   8.575 -0.1417  0.4365  0.4354
14035SOL    HW143546   7.127   7.595   8.597 -0.8342  0.4181 -0.0322
14035SOL    HW243547   7.094   7.699   8.492  2.5978  0.4243 -1.2075
14036SOL     OW43548   0.879   0.218   6.899 -0.2950 -0.2902  0.1511
14036SOL    HW143549   0.955   0.238   6.845 -1.3726 -0.2794 -1.4397
14036SOL    HW243550   0.902   0.137   6.945  1.2383  0.5289  0.9151
14037SOL     OW43551   4.104   6.650   3.173  0.1992 -0.0956  0.1543
14037SOL    HW143552   4.179   6.617   3.223 -0.1577 -2.7587 -0.9177
14037SOL    HW243553   4.091   6.585   3.104 -3.6126 -0.1917  0.7607
14038SOL     OW43554   6.864   5.812   0.606  0.1731 -0.0042 -0.1599
14038SOL    HW143555   6.935   5.757   0.572 -0.0121 -0.7400  0.6067
14038SOL    HW243556   6.868   5.892   0.554  0.8334 -0.5054 -0.8952
14039SOL     OW43557   6.046   6.410  10.785 -0.1627  0.3070  0.0308
14039SOL    HW143558   6.029   6.326  10.828 -0.8098 -1.1366 -2.8505
14039SOL    HW243559   6.033   6.474  10.855 -0.1799 -1.9042  2.2280
14040SOL     OW43560   6.527   5.396  11.374 -0.9231  0.2276  0.2860
14040SOL    HW143561   6.571   5.481  11.368  2.6028 -1.4103  0.7787
14040SOL    HW243562   6.517   5.381  11.468  3.8263 -2.2028  0.6662
14041SOL     OW43563   5.308   0.757   2.794  0.7233 -0.3776 -0.6829
14041SOL    HW143564   5.239   0.696   2.771  0.7804 -0.5168 -0.4853
14041SOL    HW243565   5.368   0.754   2.719 -1.1875  2.3173 -2.5154
14042SOL     OW43566   5.281   5.593   8.884  0.4304 -0.4444  0.2334
14042SOL    HW143567   5.255   5.516   8.934 -0.6033  0.0666  0.4914
14042SOL    HW243568   5.301   5.660   8.949 -2.0193  0.5902  0.0215
14043SOL     OW43569   4.769   3.055   7.725  0.0521  0.2624  0.1353
14043SOL    HW143570   4.755   3.085   7.635  0.4688  0.6737  0.2040
14043SOL    HW243571   4.704   3.103   7.776  0.0854  0.3300  0.1139
14044SOL     OW43572   6.386   4.057  11.470  0.2424 -0.4482  0.5060
14044SOL    HW143573   6.334   4.063  11.550 -0.9331  0.4653 -0.2813
14044SOL    HW243574   6.327   4.089  11.401 -0.0058 -4.2883 -1.3339
14045SOL     OW43575   7.691   2.004   1.694  0.3684  0.7986 -0.4776
14045SOL    HW143576   7.783   2.024   1.710  1.2886 -1.3851 -2.4276
14045SOL    HW243577   7.660   1.966   1.777  1.3672  1.1110  0.0472
14046SOL     OW43578   1.638   7.797   7.151 -0.3756 -0.1997  0.2517
14046SOL    HW143579   1.645   7.748   7.069 -0.8319 -0.1148  0.1566
14046SOL    HW243580   1.694   7.874   7.139 -0.2484 -0.3148  0.1130
14047SOL     OW43581   4.947   3.747   6.649  0.0264  0.1506 -0.4018
14047SOL    HW143582   4.874   3.793   6.689 -1.0333 -1.3456 -0.5427
14047SOL    HW243583   4.960   3.789   6.565 -0.7892  0.3119 -0.4462
14048SOL     OW43584   6.199   0.679   6.405 -0.0278  0.0855 -0.9253
14048SOL    HW143585   6.156   0.632   6.334 -1.6562 -0.5943  0.4178
14048SOL    HW243586   6.270   0.621   6.434 -3.6108 -3.2615  2.5137
14049SOL     OW43587   5.111   5.309   5.330 -0.5858 -0.0307 -0.7320
14049SOL    HW143588   5.074   5.354   5.405  0.4515  0.3881 -0.4561
14049SOL    HW243589   5.036   5.295   5.271 -1.7100 -1.7072  0.9851
14050SOL     OW43590   7.937   3.105   0.568 -0.0791 -0.2964  0.4923
14050SOL    HW143591   7.909   3.084   0.479  1.0534 -1.1195  0.3199
14050SOL    HW243592   8.006   3.170   0.557  0.8849 -1.2690  0.6977
14051SOL     OW43593   7.172   2.734   7.201 -0.4995  0.3930 -0.0113
14051SOL    HW143594   7.227   2.776   7.136  0.3504 -1.9764 -0.9502
14051SOL    HW243595   7.089   2.717   7.155 -0.3363 -0.1872 -0.0975
14052SOL     OW43596   3.487   6.098   5.569 -0.6588 -0.0191  0.0813
14052SOL    HW143597   3.514   6.135   5.652  1.5077  1.4299 -1.1562
14052SOL    HW243598   3.391   6.093   5.574 -0.5896  0.0230  2.5981
14053SOL     OW43599   7.188   2.600   1.449  0.1868 -0.2425 -0.1503
14053SOL    HW143600   7.214   2.630   1.536  1.8838 -1.3766 -0.2200
14053SOL    HW243601   7.224   2.666   1.389 -1.3168  0.7474 -0.0098
14054SOL     OW43602   1.247   5.524   5.985  0.2952 -0.3061 -0.3787
14054SOL    HW143603   1.251   5.617   6.006  0.8757 -0.1226 -1.2246
14054SOL    HW243604   1.281   5.480   6.063 -0.0561  0.1826  0.0565
14055SOL     OW43605   1.659   0.873   0.755 -0.0102 -0.4230  0.8667
14055SOL    HW143606   1.753   0.871   0.737  0.1110 -1.5926  1.5593
14055SOL    HW243607   1.641   0.965   0.773  0.5251  0.2551 -1.5777
14056SOL     OW43608   0.778   3.872   4.079 -0.3262 -0.4825 -0.3383
14056SOL    HW143609   0.712   3.831   4.024 -0.2896 -0.8145 -0.1347
14056SOL    HW243610   0.840   3.911   4.017 -0.0967 -1.1568 -0.5413
14057SOL     OW43611   1.021   3.657   9.520 -0.0765  0.0716  0.1854
14057SOL    HW143612   1.085   3.723   9.492 -0.5406  0.4953  0.1026
14057SOL    HW243613   0.960   3.650   9.447  0.1931 -0.7530  0.0295
14058SOL     OW43614   7.797   5.074   6.518 -0.1398  0.0469  0.5815
14058SOL    HW143615   7.882   5.117   6.528  0.2085 -0.1541 -1.1783
14058SOL    HW243616   7.795   5.046   6.426 -1.4228 -1.4150  1.0126
14059SOL     OW43617   2.951   7.165   6.901 -0.1108 -0.3756 -0.7225
14059SOL    HW143618   2.879   7.228   6.892  1.2967  1.3690 -0.2789
14059SOL    HW243619   2.935   7.123   6.986 -1.2123 -0.8581 -1.1449
14060SOL     OW43620   1.476   0.633   6.039 -0.0722  0.2171  0.0551
14060SOL    HW143621   1.455   0.640   5.946 -1.5704 -0.2960  0.3361
14060SOL    HW243622   1.441   0.713   6.078 -1.0572 -0.3834  0.4384
14061SOL     OW43623   0.269   7.773   8.203  0.6631  0.2807  0.0746
14061SOL    HW143624   0.225   7.777   8.288 -1.3324 -0.1547 -0.8820
14061SOL    HW243625   0.362   7.762   8.225  0.0245 -1.6334  2.2013
14062SOL     OW43626   7.714   6.448   2.142 -0.4528  0.4264 -0.4591
14062SOL    HW143627   7.661   6.376   2.177 -1.8477  1.4575 -0.3883
14062SOL    HW243628   7.650   6.513   2.112  0.7224  0.6220 -2.7720
14063SOL     OW43629   1.231   2.290   6.795  0.4366  0.0439  0.0743
14063SOL    HW143630   1.181   2.230   6.850  0.3500  0.9165  0.9863
14063SOL    HW243631   1.206   2.269   6.705 -0.0220 -0.8829  0.4174
14064SOL     OW43632   7.180   4.419   4.344  0.0071 -0.8111  0.3557
14064SOL    HW143633   7.186   4.478   4.419  0.1634 -1.1203  0.5905
14064SOL    HW243634   7.255   4.442   4.289 -0.7230  0.1693 -0.2686
14065SOL     OW43635   4.029   2.483   9.858 -0.1813 -0.0754 -0.2211
14065SOL    HW143636   4.121   2.512   9.860 -0.5188  1.3347 -2.0853
14065SOL    HW243637   4.023   2.430   9.779 -0.6838 -1.4334  0.6873
14066SOL     OW43638   1.098   1.398   0.873  0.4479  0.1907  0.6363
14066SOL    HW143639   1.184   1.387   0.833  0.1855  0.3899  0.0037
14066SOL    HW243640   1.037   1.398   0.799 -0.1031 -0.0214  1.0818
14067SOL     OW43641   7.129   6.905   4.018 -0.5499 -0.3489  0.5601
14067SOL    HW143642   7.132   6.956   4.100 -1.4820  0.4080  0.1317
14067SOL    HW243643   7.209   6.932   3.972 -2.1183  2.5887 -0.7129
14068SOL     OW43644   4.803   0.010   8.880 -0.5080 -0.7851 -0.1988
14068SOL    HW143645   4.814  -0.045   8.802 -1.7294 -0.6465 -0.4892
14068SOL    HW243646   4.710   0.000   8.903 -1.0662  1.9774 -0.8999
14069SOL     OW43647   6.157   5.881  11.642  0.5382  0.5912 -0.2878
14069SOL    HW143648   6.127   5.965  11.607 -0.9635  0.6835  1.1118
14069SOL    HW243649   6.081   5.823  11.636  0.3852  0.4355  2.1253
14070SOL     OW43650   4.044   1.738   5.730 -0.3245  0.2135 -0.0460
14070SOL    HW143651   4.018   1.649   5.706 -0.7018  0.1107  0.6919
14070SOL    HW243652   4.117   1.726   5.790 -1.0092  0.3488  0.8389
14071SOL     OW43653   0.745   0.459   4.871  0.7450 -0.2057  0.6805
14071SOL    HW143654   0.768   0.467   4.779  0.6954 -0.3250  0.6577
14071SOL    HW243655   0.819   0.497   4.918 -0.4138  2.4963  0.5131
14072SOL     OW43656   5.107   3.749   8.513  0.6326 -0.2365  0.0508
14072SOL    HW143657   5.183   3.724   8.460 -0.0125  1.4586 -1.8146
14072SOL    HW243658   5.032   3.723   8.460 -0.0468  2.6409 -0.5525
14073SOL     OW43659   1.389   2.888  11.838  0.7492  0.3437  0.4579
14073SOL    HW143660   1.323   2.820  11.837  0.7356  0.3426  0.8889
14073SOL    HW243661   1.472   2.842  11.823  0.6453  0.3561 -0.1564
14074SOL     OW43662   0.455   0.542   7.376  1.3043 -0.4502  0.1110
14074SOL    HW143663   0.379   0.500   7.337  1.4454 -0.9445  0.3567
14074SOL    HW243664   0.426   0.630   7.398  0.1430 -1.2714  2.1329
14075SOL     OW43665   1.495   3.230   3.631  0.7952  0.0809  0.6735
14075SOL    HW143666   1.496   3.154   3.689 -1.0807 -0.6602 -0.1624
14075SOL    HW243667   1.454   3.300   3.682 -0.2837 -0.3902  0.4817
14076SOL     OW43668   4.299   5.947   7.986 -0.2074  0.4670 -0.0910
14076SOL    HW143669   4.225   5.964   8.043 -0.6716  1.6018 -1.0015
14076SOL    HW243670   4.261   5.939   7.898  0.6703  0.4314 -0.4849
14077SOL     OW43671   1.145   6.251   7.204  0.0273 -0.5981  0.1715
14077SOL    HW143672   1.104   6.286   7.284 -0.8693  0.7285 -0.8236
14077SOL    HW243673   1.236   6.235   7.229 -0.0056  0.6762  1.2221
14078SOL     OW43674   0.768   0.653  11.561 -0.5294  0.1417 -0.0003
14078SOL    HW143675   0.784   0.747  11.576 -3.0572  0.4216  1.4106
14078SOL    HW243676   0.802   0.610  11.640 -0.8220  0.0532  0.0785
14079SOL     OW43677   5.814   7.103   3.362 -0.3917  0.1432  0.3147
14079SOL    HW143678   5.869   7.181   3.369 -0.2614  0.0442  0.3979
14079SOL    HW243679   5.733   7.134   3.322 -0.8602  0.5725  1.5636
14080SOL     OW43680   3.722   4.139   2.829  0.3802  0.0913  0.0243
14080SOL    HW143681   3.688   4.082   2.899  0.8182  0.0368  0.1939
14080SOL    HW243682   3.701   4.228   2.859  0.5451  0.0671  0.2161
14081SOL     OW43683   5.886   7.055   6.330  0.4658  0.0126  0.8740
14081SOL    HW143684   5.922   6.989   6.269 -1.0769  0.4461 -0.5818
14081SOL    HW243685   5.793   7.056   6.311  0.1246  1.0406  2.4679
14082SOL     OW43686   3.310   7.138   7.511 -0.5933 -0.2617  0.0069
14082SOL    HW143687   3.228   7.178   7.484  1.0355  2.7998 -0.8752
14082SOL    HW243688   3.375   7.171   7.449  1.5061 -1.7494  1.2613
14083SOL     OW43689   1.216   0.766  10.061  0.0278 -0.0544 -0.0511
14083SOL    HW143690   1.201   0.733   9.972  0.8982  1.8022 -0.9421
14083SOL    HW243691   1.143   0.826  10.077 -0.0224 -0.2381  0.4282
14084SOL     OW43692   7.055   1.352   5.762 -0.4719 -0.4372 -0.2464
14084SOL    HW143693   7.043   1.443   5.736 -0.7056 -0.4041 -0.0277
14084SOL    HW243694   7.120   1.355   5.832 -0.6678 -0.4101 -0.0636
14085SOL     OW43695   0.629   2.171   9.789 -0.1087 -0.1274 -0.0428
14085SOL    HW143696   0.677   2.224   9.853  0.5821 -0.4553 -0.2802
14085SOL    HW243697   0.687   2.168   9.713 -1.5864  1.5975 -1.3095
14086SOL     OW43698   3.066   0.713   1.701  0.3496  0.0566  1.1917
14086SOL    HW143699   3.106   0.633   1.665  2.6642  0.5745  2.4532
14086SOL    HW243700   2.978   0.685   1.726 -0.2287 -1.1520 -1.6733
14087SOL     OW43701   6.647   6.803   4.458  0.0828 -0.0048  0.1466
14087SOL    HW143702   6.595   6.881   4.477 -1.0950 -0.4858 -0.9423
14087SOL    HW243703   6.706   6.829   4.388  2.7875  1.0928  2.5947
14088SOL     OW43704   3.510   4.987   6.367 -0.4351 -0.5041 -0.3350
14088SOL    HW143705   3.468   4.975   6.281  1.1993 -0.2545 -1.2168
14088SOL    HW243706   3.478   4.914   6.419 -1.9361 -0.3237 -0.9540
14089SOL     OW43707   3.561   6.486   1.554 -0.5841  0.0184 -0.5059
14089SOL    HW143708   3.599   6.561   1.510  2.4533  0.0491  1.8478
14089SOL    HW243709   3.556   6.418   1.487  0.7798  1.0154 -1.6709
14090SOL     OW43710   0.789   0.583   2.964 -0.0645 -0.0391 -0.2231
14090SOL    HW143711   0.871   0.618   2.930  0.8655 -0.9469  0.9737
14090SOL    HW243712   0.748   0.539   2.890  2.2609 -2.6265 -0.1256
14091SOL     OW43713   5.719   4.843   3.664 -0.1842  0.1206 -0.4501
14091SOL    HW143714   5.632   4.883   3.672  0.1259  0.7177 -0.0254
14091SOL    HW243715   5.700   4.752   3.641 -0.9177  0.3123 -0.6496
14092SOL     OW43716   1.216   4.398   7.884 -0.7963 -0.2795 -0.5173
14092SOL    HW143717   1.202   4.492   7.896  1.1294  0.1133 -0.9154
14092SOL    HW243718   1.291   4.393   7.825  0.0534 -2.0651  0.6254
14093SOL     OW43719   1.609   1.928   4.187 -0.4575 -0.5343  0.1172
14093SOL    HW143720   1.651   1.951   4.270 -1.2272  0.8835  0.1423
14093SOL    HW243721   1.651   1.845   4.161  1.3169  0.0887  0.8363
14094SOL     OW43722   4.183   6.908   8.625  0.0669 -0.3206 -0.5962
14094SOL    HW143723   4.116   6.845   8.650  0.6082 -0.9055 -0.5974
14094SOL    HW243724   4.204   6.955   8.706  0.5650 -1.0165 -0.3121
14095SOL     OW43725   0.970   3.109   5.723  0.1145 -0.2686  0.0072
14095SOL    HW143726   0.995   3.086   5.634 -0.1229 -0.2533 -0.0630
14095SOL    HW243727   0.948   3.202   5.720  0.2666 -0.2286  0.1158
14096SOL     OW43728   1.035   1.187   1.939  0.4237 -0.1496 -0.1268
14096SOL    HW143729   1.112   1.138   1.968 -0.4196 -0.9098  0.8900
14096SOL    HW243730   0.967   1.165   2.002 -0.3497  1.3412 -0.3875
14097SOL     OW43731   0.954   6.435   6.658 -0.0372  0.5772 -0.5333
14097SOL    HW143732   0.860   6.436   6.639 -0.8918 -2.9277  2.4052
14097SOL    HW243733   0.993   6.391   6.583 -1.1058  0.0872 -0.8239
14098SOL     OW43734   4.107   6.646   2.168  0.2719 -0.3949  0.2258
14098SOL    HW143735   4.198   6.673   2.158 -0.4144  1.9221 -0.3096
14098SOL    HW243736   4.070   6.651   2.080 -0.1467 -2.3496  0.2530
14099SOL     OW43737   1.329   1.490   6.501  0.3996 -0.0854  0.3450
14099SOL    HW143738   1.338   1.475   6.595 -0.6175  0.9148  0.6066
14099SOL    HW243739   1.409   1.537   6.477  0.2927  0.3533  0.8474
14100SOL     OW43740   7.424   4.992   8.034  0.0260 -0.2445  0.0991
14100SOL    HW143741   7.372   4.971   7.956  0.5906  0.4633 -0.4742
14100SOL    HW243742   7.480   5.065   8.007  0.4924 -0.2350  1.0599
14101SOL     OW43743   7.529   7.202   0.225 -0.5212  0.5814  0.5863
14101SOL    HW143744   7.531   7.187   0.320 -1.1554  0.0791  0.5218
14101SOL    HW243745   7.483   7.285   0.215 -0.1447  0.8131  0.7313
14102SOL     OW43746   3.748   2.841   3.149 -0.6541  0.5646  0.0114
14102SOL    HW143747   3.688   2.788   3.202 -0.9018  0.4569 -0.3705
14102SOL    HW243748   3.694   2.872   3.077 -0.6033  1.6400  0.4194
14103SOL     OW43749   5.650   7.234   9.836 -0.3118 -0.4619  0.5772
14103SOL    HW143750   5.624   7.317   9.875  0.7608  0.1989 -0.0614
14103SOL    HW243751   5.721   7.256   9.775 -1.3455 -1.5551 -1.1328
14104SOL     OW43752   0.238   6.587  11.724  0.1695  0.2097 -0.6686
14104SOL    HW143753   0.221   6.569  11.817 -0.3931  0.3541 -0.7409
14104SOL    HW243754   0.151   6.599  11.685  0.2964 -1.4243 -1.5484
14105SOL     OW43755   0.134   3.877  10.471  0.8132  0.2887  0.5108
14105SOL    HW143756   0.151   3.882  10.565 -0.5640  1.5796  0.7335
14105SOL    HW243757   0.204   3.929  10.431  2.2727 -1.4456  0.6334
14106SOL     OW43758   6.205   7.900   9.988 -0.3338 -0.0472 -0.2596
14106SOL    HW143759   6.157   7.962  10.043 -1.0957 -1.4938  0.7593
14106SOL    HW243760   6.192   7.815  10.029  2.4273 -0.6555 -0.3955
14107SOL     OW43761   7.631   7.592   3.215  0.0801  0.5597 -0.1717
14107SOL    HW143762   7.704   7.594   3.154  0.1567  0.3980 -0.0860
14107SOL    HW243763   7.556   7.561   3.164  0.0768  0.7040 -0.2538
14108SOL     OW43764   5.955   3.582   4.845 -0.2447 -0.1153  0.3894
14108SOL    HW143765   6.044   3.595   4.812 -0.4184  0.2034  0.0467
14108SOL    HW243766   5.964   3.513   4.911  0.4624  0.7586  1.2445
14109SOL     OW43767   6.931   1.783   6.317  0.2726  0.1601 -0.0776
14109SOL    HW143768   6.989   1.785   6.241  0.9795  0.7839  0.4637
14109SOL    HW243769   6.886   1.867   6.315  2.7882  1.7015  2.0443
14110SOL     OW43770   5.707   4.619   5.467  0.0292  0.3872  0.1780
14110SOL    HW143771   5.660   4.536   5.455 -0.9218  1.0675 -1.0779
14110SOL    HW243772   5.668   4.678   5.402  0.9452  1.7133  0.7906
14111SOL     OW43773   5.209   5.838   3.917 -0.1129  0.3949  0.2545
14111SOL    HW143774   5.148   5.850   3.990 -0.2868  1.1270 -0.0066
14111SOL    HW243775   5.157   5.855   3.839  0.1477 -0.0894 -0.0296
14112SOL     OW43776   5.866   3.316   8.210  0.0089 -0.8347  0.3625
14112SOL    HW143777   5.782   3.280   8.183 -0.5964  1.0603 -0.4639
14112SOL    HW243778   5.851   3.411   8.213  1.8212 -0.5399  1.2667
14113SOL     OW43779   7.028   2.899  11.940  0.7554 -0.1077 -0.0972
14113SOL    HW143780   7.034   2.821  11.885 -0.4026  0.0913 -0.5441
14113SOL    HW243781   6.987   2.868  12.021  1.2336 -0.1447  0.1364
14114SOL     OW43782   5.691   2.138   0.783 -0.2154  0.1724  0.0497
14114SOL    HW143783   5.633   2.212   0.763 -0.9367 -0.6428 -0.9543
14114SOL    HW243784   5.726   2.112   0.698  1.2743  0.3342  0.5779
14115SOL     OW43785   4.557   6.311  10.354  0.0124  0.1805 -0.2931
14115SOL    HW143786   4.579   6.233  10.302 -2.2443 -0.8339  0.1206
14115SOL    HW243787   4.496   6.360  10.299  0.7313  1.2220 -0.1860
14116SOL     OW43788   4.290   2.395   1.044 -0.0196 -0.3516  0.4612
14116SOL    HW143789   4.211   2.449   1.055 -0.0986 -0.5139  0.6961
14116SOL    HW243790   4.314   2.407   0.952 -1.4301 -1.8087 -0.1482
14117SOL     OW43791   0.197   2.664   9.929 -0.3446 -0.0681 -0.7227
14117SOL    HW143792   0.253   2.704   9.995  0.9651 -0.8088 -1.3362
14117SOL    HW243793   0.116   2.714   9.933 -0.0691  0.3312  0.9775
14118SOL     OW43794   3.283   2.049   9.678  0.2523 -0.0993 -0.0791
14118SOL    HW143795   3.320   2.135   9.655 -1.6572  0.4686 -1.2392
14118SOL    HW243796   3.283   2.047   9.773 -0.4529  1.5563 -0.0220
14119SOL     OW43797   5.294   3.072   7.032 -0.2330  0.4860  0.0174
14119SOL    HW143798   5.284   2.996   6.975  0.3269 -0.2485  0.8570
14119SOL    HW243799   5.217   3.126   7.015 -1.8275 -1.3621  1.0348
14120SOL     OW43800   2.394   3.320   8.101 -0.7678  0.0471  0.1854
14120SOL    HW143801   2.444   3.354   8.176 -0.3436 -1.6479  0.7153
14120SOL    HW243802   2.350   3.242   8.135 -0.8149 -0.5775 -1.2430
14121SOL     OW43803   5.690   2.473   0.189  0.2120 -0.3802  0.4908
14121SOL    HW143804   5.775   2.495   0.226 -0.1338 -0.6786  1.5042
14121SOL    HW243805   5.692   2.508   0.100  1.0054  0.5307  0.8548
14122SOL     OW43806   6.473   3.826   1.400 -0.1411  0.2883 -0.2094
14122SOL    HW143807   6.569   3.828   1.392 -0.1656 -2.3314 -3.0352
14122SOL    HW243808   6.455   3.748   1.453 -0.7491  0.9365  0.5619
14123SOL     OW43809   4.574   5.781   6.130 -0.2826 -0.0101 -0.7162
14123SOL    HW143810   4.645   5.720   6.149  1.7141  2.0764 -1.0113
14123SOL    HW243811   4.527   5.790   6.213 -1.0841 -2.4228 -0.8491
14124SOL     OW43812   5.912   0.487  10.351  0.1832  0.0659  0.1398
14124SOL    HW143813   5.870   0.573  10.357  0.1553  0.0234  0.6122
14124SOL    HW243814   5.908   0.453  10.441 -2.3249 -1.6451 -0.5075
14125SOL     OW43815   3.013   5.400   0.561  0.2106 -0.0760  0.1009
14125SOL    HW143816   2.935   5.418   0.614  0.5853  0.0493  0.6141
14125SOL    HW243817   3.006   5.307   0.540  1.5024 -0.8727  2.7968
14126SOL     OW43818   3.693   3.838   3.930  0.2158  0.2775 -0.3647
14126SOL    HW143819   3.645   3.756   3.921 -1.4087  1.0447  0.7739
14126SOL    HW243820   3.718   3.841   4.023  2.7870 -0.2054 -0.9531
14127SOL     OW43821   4.492   7.335   5.209 -0.4172 -0.1197 -0.5500
14127SOL    HW143822   4.574   7.382   5.216 -0.1588 -0.7381  0.9737
14127SOL    HW243823   4.516   7.242   5.210 -1.1010 -0.3129 -0.7136
14128SOL     OW43824   1.402   1.064  11.976 -0.8281  0.0563 -0.0671
14128SOL    HW143825   1.475   1.125  11.963 -1.6110  0.9973 -0.1511
14128SOL    HW243826   1.363   1.091  12.059 -0.1843 -1.4169  0.7656
14129SOL     OW43827   1.579   2.763  10.325  0.1498  0.4683  0.3194
14129SOL    HW143828   1.649   2.794  10.382  0.0705 -0.2661  0.8242
14129SOL    HW243829   1.502   2.813  10.352  0.4680  1.2816 -0.2416
14130SOL     OW43830   7.489   4.460  12.133  0.7698  0.1791 -0.3511
14130SOL    HW143831   7.545   4.390  12.167 -0.6447  0.7745  3.7701
14130SOL    HW243832   7.406   4.450  12.181 -0.9782  2.1735 -2.7122
14131SOL     OW43833   1.858   2.143   3.571 -0.0415  0.4392 -0.2954
14131SOL    HW143834   1.785   2.200   3.597 -0.8187 -1.1183  1.1127
14131SOL    HW243835   1.909   2.196   3.510 -1.8095  1.9363 -0.5641
14132SOL     OW43836   0.685   7.154   1.980  0.1451 -0.6205  0.6893
14132SOL    HW143837   0.593   7.170   1.998  0.1605 -1.5637  1.7512
14132SOL    HW243838   0.709   7.219   1.913 -1.4341 -0.7719 -0.0660
14133SOL     OW43839   4.254   6.096   1.903 -0.1312  0.7971 -0.0997
14133SOL    HW143840   4.212   6.159   1.962  0.6228 -0.4955  1.8933
14133SOL    HW243841   4.194   6.091   1.828 -3.1025 -0.1836  2.1364
14134SOL     OW43842   5.609   7.842  11.292  0.2390 -0.2001  0.3159
14134SOL    HW143843   5.543   7.892  11.340 -1.0495 -0.8739 -0.6988
14134SOL    HW243844   5.650   7.905  11.234  0.5883  0.2458  1.0288
14135SOL     OW43845   3.855   6.051   3.035  0.3418 -0.2283  0.7106
14135SOL    HW143846   3.814   6.041   2.950  1.2567  2.7638 -0.2314
14135SOL    HW243847   3.913   5.976   3.044  0.9863 -0.1045 -1.8155
14136SOL     OW43848   4.923   1.807   1.525  0.1693  0.2957 -0.0698
14136SOL    HW143849   4.890   1.717   1.532  0.6034  0.2320  1.7328
14136SOL    HW243850   4.860   1.859   1.574  1.2712  0.5623  1.1279
14137SOL     OW43851   1.837   0.474  11.565 -0.1204  0.8329 -0.6258
14137SOL    HW143852   1.841   0.541  11.496 -0.5539  0.7935 -0.6923
14137SOL    HW243853   1.781   0.406  11.529  0.0012  0.6130 -0.4018
14138SOL     OW43854   4.853   6.230   0.879  0.1315 -0.0927 -0.3862
14138SOL    HW143855   4.855   6.315   0.923 -0.4128  0.1052 -0.7398
14138SOL    HW243856   4.762   6.219   0.851 -0.2713 -1.6686  1.3567
14139SOL     OW43857   5.151   5.911  11.531  0.5909  0.1801  0.3103
14139SOL    HW143858   5.077   5.941  11.584  1.4796  0.1902  1.5787
14139SOL    HW243859   5.184   5.989  11.488 -1.9328 -0.2229 -2.7079
14140SOL     OW43860   4.204   1.056   9.917  0.5379 -0.1036  0.3378
14140SOL    HW143861   4.290   1.016   9.930  0.2742 -0.2313  1.9101
14140SOL    HW243862   4.159   1.045  10.001 -0.8931  0.2694 -0.3401
14141SOL     OW43863   5.474   1.658   2.475  0.4247  0.1642  0.0385
14141SOL    HW143864   5.460   1.565   2.459 -0.2133  0.3898 -0.8007
14141SOL    HW243865   5.502   1.692   2.390  0.0450  0.8456  0.1836
14142SOL     OW43866   4.015   3.239   4.686 -0.0300  0.4010 -0.1966
14142SOL    HW143867   4.062   3.313   4.724 -0.8158  0.5304  0.5493
14142SOL    HW243868   4.067   3.214   4.609  1.4158  0.3315  0.7671
14143SOL     OW43869   5.640   1.961   2.929  0.4982 -0.2676  0.0409
14143SOL    HW143870   5.629   2.046   2.972 -1.0513 -1.0386  1.2602
14143SOL    HW243871   5.730   1.962   2.896  0.2193  2.2272 -0.8677
14144SOL     OW43872   7.667   3.429   9.649  0.3590 -0.1677  0.0320
14144SOL    HW143873   7.621   3.376   9.584  1.2213  0.7647 -1.3608
14144SOL    HW243874   7.666   3.518   9.614  1.7533  0.1723  0.7790
14145SOL     OW43875   0.275   7.171   1.150 -0.1406  0.4930  0.4084
14145SOL    HW143876   0.207   7.212   1.203  0.3205  0.7161  0.8299
14145SOL    HW243877   0.324   7.244   1.112  1.5350  0.3894  2.2374
14146SOL     OW43878   5.518   2.601   7.389  0.1216 -0.0229 -0.0582
14146SOL    HW143879   5.603   2.594   7.432  0.1265  1.5271  0.2281
14146SOL    HW243880   5.465   2.653   7.449 -1.4910 -2.0713  0.4048
14147SOL     OW43881   2.344   4.046   2.550  0.0988 -0.7703  0.4984
14147SOL    HW143882   2.320   4.132   2.583 -2.3886 -2.1132  2.5547
14147SOL    HW243883   2.312   4.044   2.460 -0.6456  0.1559  0.7353
14148SOL     OW43884   0.652   0.967  10.606  0.0153  0.3119  0.6066
14148SOL    HW143885   0.714   0.898  10.581 -0.4560  0.6068 -1.5771
14148SOL    HW243886   0.578   0.920  10.644 -0.6811 -0.5599 -1.6287
14149SOL     OW43887   2.940   5.368   3.627  0.2668 -0.1967  0.1770
14149SOL    HW143888   3.024   5.321   3.619 -0.9105 -2.5127  0.4496
14149SOL    HW243889   2.925   5.406   3.541  0.8836 -1.0822 -0.3344
14150SOL     OW43890   7.066   6.484   9.866 -0.2871  0.2794  0.0705
14150SOL    HW143891   7.078   6.499   9.773  1.7443  0.0412  0.2366
14150SOL    HW243892   7.048   6.390   9.873  0.8608  0.0389 -0.0161
14151SOL     OW43893   0.803   1.720   1.683  0.2404  0.1999  0.1137
14151SOL    HW143894   0.784   1.656   1.614  0.2497  2.7091 -2.3766
14151SOL    HW243895   0.786   1.673   1.764 -3.1995 -1.9326 -1.6076
14152SOL     OW43896   6.883   0.121   5.455 -0.6254  0.0429 -0.0469
14152SOL    HW143897   6.969   0.154   5.426 -1.3792  2.6195  0.4178
14152SOL    HW243898   6.842   0.089   5.374  1.3362 -2.9560 -0.0450
14153SOL     OW43899   4.444   4.053   5.986 -0.2936  0.6818 -0.0460
14153SOL    HW143900   4.498   3.974   5.984 -1.1936  0.0123  0.7740
14153SOL    HW243901   4.400   4.054   5.902  1.0186  1.2740 -0.7523
14154SOL     OW43902   6.632   6.003   6.132  0.4584  0.3605 -0.1644
14154SOL    HW143903   6.705   6.000   6.070 -0.4658 -2.1046 -1.2445
14154SOL    HW243904   6.653   5.935   6.197 -2.0516 -2.5114 -2.0684
14155SOL     OW43905   1.091   3.435   4.221  0.0436 -0.1523  0.3695
14155SOL    HW143906   1.056   3.411   4.307  1.3597 -1.2584  0.6314
14155SOL    HW243907   1.026   3.402   4.158 -1.2410  1.2116  0.9064
14156SOL     OW43908   6.390   7.367   0.662  0.7065  0.3244 -0.0832
14156SOL    HW143909   6.448   7.297   0.689  0.2961 -0.3157 -0.7922
14156SOL    HW243910   6.413   7.383   0.570  0.4861  0.7921 -0.0595
14157SOL     OW43911   2.971   3.083   2.829  0.4013  0.1980 -0.4543
14157SOL    HW143912   2.955   3.172   2.798 -2.7260  0.3914  1.2628
14157SOL    HW243913   3.022   3.095   2.909  0.6004  0.4215 -0.6149
14158SOL     OW43914   0.517   4.123   4.451  0.0568 -0.0007  0.0920
14158SOL    HW143915   0.508   4.110   4.546 -0.5650  1.5178  0.2712
14158SOL    HW243916   0.574   4.051   4.423  0.5862 -0.2568  1.6723
14159SOL     OW43917   2.865   0.041   5.319 -0.1968  0.2824 -0.5899
14159SOL    HW143918   2.804   0.004   5.255 -0.5814  0.7289 -0.4885
14159SOL    HW243919   2.808   0.073   5.389  0.0451  1.9398 -1.1099
14160SOL     OW43920   5.511   2.988   4.686 -0.0805  0.1291  0.0126
14160SOL    HW143921   5.593   3.037   4.693  0.0572 -0.0511 -0.3373
14160SOL    HW243922   5.455   3.027   4.753  0.1317  0.5659 -0.0567
14161SOL     OW43923   4.969   4.005   1.768  0.2775 -0.9864  0.0417
14161SOL    HW143924   4.938   4.059   1.695 -1.3170 -1.4464  0.3466
14161SOL    HW243925   5.030   3.943   1.728 -0.1432 -0.8618 -0.8165
14162SOL     OW43926   0.401   7.843  12.110 -0.0490 -0.3037 -0.2367
14162SOL    HW143927   0.472   7.779  12.118  0.4404  0.0524 -1.4873
14162SOL    HW243928   0.367   7.830  12.021  0.0818  1.1771 -0.5322
14163SOL     OW43929   3.049   5.933   7.658  0.3856  0.0620  0.5710
14163SOL    HW143930   3.063   5.908   7.750 -1.2513 -0.6143  0.6773
14163SOL    HW243931   2.958   5.908   7.640  0.5744  0.4745 -1.1501
14164SOL     OW43932   6.561   4.348   7.195 -0.8485 -0.5730  0.9528
14164SOL    HW143933   6.545   4.322   7.104 -1.4781 -1.0153  1.1842
14164SOL    HW243934   6.482   4.396   7.221  0.0086  1.0331  0.7536
14165SOL     OW43935   2.630   7.358   0.408  0.1402  0.0828  0.2472
14165SOL    HW143936   2.559   7.323   0.463  1.4432 -2.2275  0.5953
14165SOL    HW243937   2.700   7.378   0.470  0.0942  1.6333 -0.1725
14166SOL     OW43938   7.515   2.337   8.175  0.6002 -0.0733  0.3346
14166SOL    HW143939   7.434   2.388   8.173  1.8560  2.0165 -0.2389
14166SOL    HW243940   7.505   2.274   8.104 -0.3162  0.5211 -0.0901
14167SOL     OW43941   2.823   1.975   8.974  0.6662 -0.3481  0.0347
14167SOL    HW143942   2.902   1.972   8.919  0.2499 -0.7308 -0.5489
14167SOL    HW243943   2.751   1.981   8.912  0.1529 -1.3856  0.5134
14168SOL     OW43944   6.521   1.332   5.197  0.6625 -0.1162 -0.3237
14168SOL    HW143945   6.477   1.247   5.197 -0.1756  0.3186  0.1150
14168SOL    HW243946   6.451   1.396   5.205  1.3764  0.5809  0.5538
14169SOL     OW43947   7.518   4.030   8.761 -0.5299 -0.0911 -0.4354
14169SOL    HW143948   7.494   3.939   8.779 -0.4089 -0.3195 -1.3830
14169SOL    HW243949   7.565   4.027   8.678 -1.9399  1.0193 -1.3306
14170SOL     OW43950   2.795   4.648   8.134  0.5900 -0.1938 -0.2410
14170SOL    HW143951   2.772   4.555   8.127 -1.3093  0.1670  0.5776
14170SOL    HW243952   2.826   4.659   8.224 -0.2921  0.1733  0.0248
14171SOL     OW43953   2.670   5.834   7.747  0.1946 -0.2674  0.6146
14171SOL    HW143954   2.580   5.803   7.754 -0.2022  0.7297  0.0831
14171SOL    HW243955   2.712   5.805   7.828 -0.1014 -2.2628  0.1121
14172SOL     OW43956   2.633   3.419   2.100  0.0270 -0.2660 -0.4982
14172SOL    HW143957   2.714   3.456   2.065  0.7353 -1.2543  0.0511
14172SOL    HW243958   2.600   3.362   2.031 -1.3588  1.6950 -1.5703
14173SOL     OW43959   5.299   7.770  12.028 -0.4351 -0.3040  0.0023
14173SOL    HW143960   5.223   7.827  12.018  0.5843  0.7761 -2.1067
14173SOL    HW243961   5.277   7.691  11.978 -0.1455  0.0487 -0.6889
14174SOL     OW43962   4.082   1.014  10.179 -0.3495  0.1329 -0.1231
14174SOL    HW143963   4.113   0.984  10.264  1.0041  2.5042  0.3162
14174SOL    HW243964   4.006   1.069  10.199 -1.7051 -1.4312 -0.7409
14175SOL     OW43965   4.291   5.063   0.154 -0.2228 -0.3410  0.2816
14175SOL    HW143966   4.267   5.006   0.081  0.2539  1.3569 -1.2654
14175SOL    HW243967   4.210   5.070   0.206 -0.5493 -1.6306 -0.0229
14176SOL     OW43968   6.924   5.802   6.262  0.4981 -0.0752  0.8160
14176SOL    HW143969   6.976   5.792   6.342  0.0305  1.7624  1.3771
14176SOL    HW243970   6.834   5.811   6.292  0.2918  0.4360  0.0764
14177SOL     OW43971   0.913   7.362   5.796  0.2641 -0.3028  0.7179
14177SOL    HW143972   0.823   7.372   5.767  0.3782  0.0763  0.4804
14177SOL    HW243973   0.964   7.414   5.734  0.7214 -1.0686  0.4464
14178SOL     OW43974   5.359   3.739   3.448 -0.4193  0.0406 -0.1371
14178SOL    HW143975   5.281   3.683   3.454 -1.3407  1.1936 -0.8135
14178SOL    HW243976   5.328   3.818   3.403  1.3764  0.1526 -1.2607
14179SOL     OW43977   2.220   5.491   7.532  0.1739  0.0038  0.5573
14179SOL    HW143978   2.223   5.409   7.483 -1.7070  0.4714 -0.4409
14179SOL    HW243979   2.308   5.528   7.522  0.1995 -0.4926 -1.5029
14180SOL     OW43980   0.433   1.119   1.274  0.1986  0.6834  0.8712
14180SOL    HW143981   0.434   1.024   1.259 -0.1597  0.3901  2.4585
14180SOL    HW243982   0.460   1.129   1.365 -0.2466  2.0782  0.8754
14181SOL     OW43983   5.723   2.788  11.352 -0.0770 -0.2967  0.8860
14181SOL    HW143984   5.706   2.861  11.410 -1.9391  1.3738 -1.5441
14181SOL    HW243985   5.813   2.801  11.322  0.8313 -1.0646  3.0612
14182SOL     OW43986   0.355   5.332   8.241  0.6720  0.2369 -0.1683
14182SOL    HW143987   0.276   5.318   8.189  0.7090 -1.6742  0.2259
14182SOL    HW243988   0.326   5.318   8.332  1.0219  1.6176  0.1737
14183SOL     OW43989   1.256   7.953   6.912  0.2785 -0.1792  0.7371
14183SOL    HW143990   1.312   8.018   6.955 -1.3303  2.4536 -0.8317
14183SOL    HW243991   1.317   7.898   6.863  1.6622  2.0982 -0.3235
14184SOL     OW43992   1.546   7.804   1.425  0.3001  0.0691  0.3328
14184SOL    HW143993   1.611   7.869   1.401  2.1016 -1.1609  1.6481
14184SOL    HW243994   1.562   7.731   1.365 -1.6801  0.7232 -1.1107
14185SOL     OW43995   6.671   1.567   1.262 -0.1963  0.2115  0.2069
14185SOL    HW143996   6.684   1.587   1.170 -2.2425  0.1081 -0.1417
14185SOL    HW243997   6.598   1.623   1.289 -1.2308 -1.4884  1.1055
14186SOL     OW43998   1.856   3.689   7.768 -0.2929  0.5469 -0.0090
14186SOL    HW143999   1.924   3.687   7.702  2.2845 -0.1935  2.4961
14186SOL    HW244000   1.838   3.598   7.788 -1.3035  0.7548  0.1171
14187SOL     OW44001   0.802   3.576   7.273  0.1534 -0.2074 -0.2620
14187SOL    HW144002   0.872   3.598   7.212 -0.2279 -0.8136 -0.9280
14187SOL    HW244003   0.753   3.657   7.283  0.2784 -0.0760 -0.6889
14188SOL     OW44004   2.984   6.172   7.893 -0.2130  0.0529 -0.4012
14188SOL    HW144005   2.972   6.080   7.870 -0.4233  0.0498 -0.2811
14188SOL    HW244006   2.995   6.171   7.988 -0.2515  0.1560 -0.3961
14189SOL     OW44007   7.157   4.099  12.404 -0.5993 -0.4748  0.2134
14189SOL    HW144008   7.065   4.072  12.393 -0.4545 -1.1843  0.6686
14189SOL    HW244009   7.152   4.193  12.419 -1.0193  0.1316 -2.9501
14190SOL     OW44010   4.982   7.673   8.928  0.2048 -0.4685  0.1195
14190SOL    HW144011   5.002   7.747   8.870  1.6766 -0.9245  0.0251
14190SOL    HW244012   5.059   7.663   8.983  0.1931 -2.1528 -0.1115
14191SOL     OW44013   5.642   0.962   5.135 -0.3447  0.3713 -0.1578
14191SOL    HW144014   5.671   1.026   5.070  0.3116  0.5045  0.2588
14191SOL    HW244015   5.661   1.002   5.219 -0.7552 -0.0002  0.1198
14192SOL     OW44016   3.118   0.733  11.802 -0.2290 -0.3419 -0.3018
14192SOL    HW144017   3.033   0.765  11.772  0.2447 -0.3409 -1.7580
14192SOL    HW244018   3.117   0.746  11.897 -1.8858 -0.4549 -0.2758
14193SOL     OW44019   5.579   1.693   7.259 -0.0877  0.1593 -0.1300
14193SOL    HW144020   5.567   1.787   7.270  1.0652  0.2669  0.2866
14193SOL    HW244021   5.637   1.667   7.330  0.8607 -0.5831 -1.1364
14194SOL     OW44022   4.531   0.566   0.069 -0.1880  0.3786 -0.4248
14194SOL    HW144023   4.546   0.523  -0.015 -0.8980  0.1548 -0.4432
14194SOL    HW244024   4.614   0.559   0.116 -0.5397 -1.8784 -0.0414
14195SOL     OW44025   3.203   0.476   1.921 -0.1189 -0.3990  0.3517
14195SOL    HW144026   3.262   0.484   1.996 -0.5945 -0.6325  0.7545
14195SOL    HW244027   3.115   0.475   1.959 -0.3100 -2.8201  0.0120
14196SOL     OW44028   2.488   6.101   0.316  0.3985 -0.6573 -0.0010
14196SOL    HW144029   2.418   6.109   0.252  0.8568  1.9728 -0.2698
14196SOL    HW244030   2.566   6.079   0.265  0.3785 -0.5417 -0.0800
14197SOL     OW44031   2.447   0.915   2.827  1.0362  0.0168  0.3597
14197SOL    HW144032   2.456   0.957   2.912 -0.3750 -0.0646  0.5764
14197SOL    HW244033   2.406   0.831   2.847  2.5575 -0.9135 -0.2091
14198SOL     OW44034   2.138   7.860   0.037  0.4200  0.0078 -0.0770
14198SOL    HW144035   2.209   7.796   0.036  0.5396  0.1464 -0.4465
14198SOL    HW244036   2.063   7.811   0.071  1.3707  0.5706  3.2068
14199SOL     OW44037   4.672   1.060   5.675 -0.3011 -0.4536  0.1013
14199SOL    HW144038   4.725   1.137   5.697 -0.9407 -0.2527  1.0053
14199SOL    HW244039   4.692   1.043   5.583 -1.5918  1.9583 -0.7037
14200SOL     OW44040   2.602   7.001   8.682 -0.4078 -0.4687 -0.2270
14200SOL    HW144041   2.547   6.980   8.758 -0.1008 -3.2379 -0.6605
14200SOL    HW244042   2.541   7.005   8.609 -0.5727  1.2097 -0.0366
14201SOL     OW44043   5.783   3.880   3.903 -0.0872 -0.6302 -0.5860
14201SOL    HW144044   5.834   3.836   3.835 -1.9771 -1.7626 -1.3608
14201SOL    HW244045   5.702   3.830   3.908 -1.5270  1.6000 -0.0648
14202SOL     OW44046   5.280   2.075   9.988 -0.3365 -0.1705  0.0046
14202SOL    HW144047   5.195   2.070  10.031  0.2641 -0.1406  1.2462
14202SOL    HW244048   5.342   2.047  10.055  0.6979  0.4650 -0.6601
14203SOL     OW44049   6.226   2.024   4.060 -0.1260  0.1239  0.0180
14203SOL    HW144050   6.303   2.030   4.002 -0.7381 -1.8123 -1.1014
14203SOL    HW244051   6.154   2.057   4.007 -0.3977  0.0537  0.3441
14204SOL     OW44052   1.531   1.484   7.955 -0.1996  0.1361 -0.1216
14204SOL    HW144053   1.452   1.470   7.903  2.2174 -0.5526 -4.0368
14204SOL    HW244054   1.603   1.462   7.896  2.9769 -2.5821  4.1704
14205SOL     OW44055   1.884   3.989   1.461 -0.2379 -0.5609  0.1246
14205SOL    HW144056   1.790   3.987   1.478 -0.5480  2.7084 -0.5402
14205SOL    HW244057   1.894   3.947   1.375 -1.1843 -0.4465 -0.0477
14206SOL     OW44058   0.907   1.720   9.891  0.0721  0.3353 -0.2149
14206SOL    HW144059   0.829   1.723   9.946  1.0214  0.8420  1.1487
14206SOL    HW244060   0.875   1.737   9.803 -1.4689 -0.3327  0.1912
14207SOL     OW44061   6.008   4.599   7.280 -0.0668 -0.2581 -0.4796
14207SOL    HW144062   6.053   4.645   7.351 -1.6646  0.6229  0.0190
14207SOL    HW244063   5.989   4.666   7.215  2.2598 -1.2331 -2.2967
14208SOL     OW44064   5.805   3.147   6.890  0.8103 -0.0281 -0.0539
14208SOL    HW144065   5.830   3.158   6.798  3.4446  1.5129  0.7422
14208SOL    HW244066   5.717   3.182   6.896  0.0612 -1.3671 -2.2046
14209SOL     OW44067   6.070   2.296   7.492 -0.0685 -0.1529 -0.5980
14209SOL    HW144068   6.089   2.387   7.468 -0.6493 -0.0087 -0.5240
14209SOL    HW244069   6.155   2.253   7.492  0.1000  0.1326 -1.7245
14210SOL     OW44070   3.429   4.348   0.572 -0.1524 -0.0786  0.3284
14210SOL    HW144071   3.478   4.354   0.490  1.5775 -2.3370  1.0943
14210SOL    HW244072   3.350   4.298   0.550  1.2719 -2.4819  0.3204
14211SOL     OW44073   2.056   1.175   2.283 -0.2137 -0.4049 -0.2043
14211SOL    HW144074   2.046   1.179   2.188  1.1574  0.5327 -0.3435
14211SOL    HW244075   2.048   1.266   2.311  1.0957 -0.4412  0.3595
14212SOL     OW44076   2.779   3.176   7.156 -0.8543  0.2514  0.4209
14212SOL    HW144077   2.800   3.235   7.228 -0.3398  1.2682 -0.5201
14212SOL    HW244078   2.856   3.181   7.099 -0.3875 -2.0599  0.7458
14213SOL     OW44079   7.974   2.658   4.128 -0.2300  0.5114 -0.2546
14213SOL    HW144080   8.070   2.652   4.131 -0.3354 -2.8468  1.1444
14213SOL    HW244081   7.952   2.647   4.036  0.6954  0.8523 -0.5334
14214SOL     OW44082   3.855   1.908  11.746  0.3716 -0.4284  0.0905
14214SOL    HW144083   3.944   1.940  11.734  0.3384 -0.1836  0.4833
14214SOL    HW244084   3.858   1.856  11.827  0.5898 -2.0472 -0.9144
14215SOL     OW44085   3.746   2.687   7.159 -0.5520  0.0912  0.2100
14215SOL    HW144086   3.745   2.783   7.163 -0.0654  0.0945  0.3550
14215SOL    HW244087   3.762   2.668   7.066  2.0452  0.2018  0.5513
14216SOL     OW44088   2.012   1.085   1.326 -0.5022  0.6398 -0.1692
14216SOL    HW144089   2.056   1.026   1.266 -1.8686  0.8300 -1.4184
14216SOL    HW244090   1.934   1.113   1.279 -1.8462  0.4955  1.8267
14217SOL     OW44091   4.443   7.888  11.997 -0.2914 -0.0988 -0.7604
14217SOL    HW144092   4.370   7.859  11.943 -0.0949 -0.0581 -1.0485
14217SOL    HW244093   4.487   7.807  12.024 -1.7101 -0.2840  1.2328
14218SOL     OW44094   5.703   3.114   8.297 -0.1198 -0.3667  0.0778
14218SOL    HW144095   5.786   3.070   8.276  0.0174 -0.1510  0.1682
14218SOL    HW244096   5.704   3.124   8.392  0.7206  1.5196 -0.0780
14219SOL     OW44097   0.910   2.647   8.730 -0.7496 -0.0857  0.1001
14219SOL    HW144098   0.959   2.722   8.765  0.4972 -0.9314  0.2240
14219SOL    HW244099   0.936   2.643   8.638  0.1111 -1.0578  0.3702
14220SOL     OW44100   7.604   2.487  12.425 -0.2560  0.3170 -0.2415
14220SOL    HW144101   7.556   2.409  12.396 -0.4312  0.8263 -1.3883
14220SOL    HW244102   7.670   2.501  12.358 -0.5541  1.4413 -0.3212
14221SOL     OW44103   3.169   5.261   6.180  0.0711 -0.2660 -0.4730
14221SOL    HW144104   3.100   5.248   6.115  1.5606 -0.5543 -2.0685
14221SOL    HW244105   3.179   5.176   6.223  0.7661 -0.8017 -1.6478
14222SOL     OW44106   7.959   7.564   9.056 -0.0429  0.0157 -0.3235
14222SOL    HW144107   7.999   7.503   9.119  1.2285  1.4126  0.2804
14222SOL    HW244108   7.982   7.529   8.970  0.6070 -0.4156  0.0162
14223SOL     OW44109   5.150   5.245   2.326  0.9275  0.3285  0.2868
14223SOL    HW144110   5.174   5.209   2.411 -0.2009  0.2462  0.5845
14223SOL    HW244111   5.064   5.284   2.339  0.3631 -0.4152 -1.0136
14224SOL     OW44112   6.243   4.300   5.440 -0.2448 -0.1320 -0.7501
14224SOL    HW144113   6.328   4.258   5.437 -0.3889 -0.3845 -1.4640
14224SOL    HW244114   6.243   4.349   5.522 -0.0510 -1.4682  0.0702
14225SOL     OW44115   1.017   7.056  11.268 -0.0983 -0.0511  0.3946
14225SOL    HW144116   1.016   6.984  11.332  0.4283 -0.1309  0.3208
14225SOL    HW244117   0.941   7.109  11.291 -0.6397 -0.7656  0.2915
14226SOL     OW44118   2.988   0.861  12.421  0.3043 -0.6234  0.2116
14226SOL    HW144119   2.937   0.941  12.408  0.4590 -0.7432 -1.3196
14226SOL    HW244120   2.924   0.791  12.419  0.4226 -0.7160 -0.9776
14227SOL     OW44121   7.636   3.870   2.089 -0.2831  0.0334 -0.5202
14227SOL    HW144122   7.725   3.880   2.124 -0.5038  0.9183 -0.1786
14227SOL    HW244123   7.625   3.944   2.029 -0.8925  0.1008 -0.3337
14228SOL     OW44124   5.296   6.240   6.997 -0.1560 -0.3929  0.3683
14228SOL    HW144125   5.369   6.263   7.054  0.6632 -1.9859  0.0394
14228SOL    HW244126   5.258   6.162   7.038 -1.3348  0.1118  0.2469
14229SOL     OW44127   3.299   5.950   2.983 -0.1030 -0.2209  0.2971
14229SOL    HW144128   3.389   5.922   2.997 -0.2373 -0.1815  1.3570
14229SOL    HW244129   3.305   6.042   2.960  0.2616 -0.7481 -2.0203
14230SOL     OW44130   0.516   5.499   8.535 -0.2353 -0.3046  0.2442
14230SOL    HW144131   0.592   5.552   8.558  0.1075 -1.1072  1.0198
14230SOL    HW244132   0.446   5.531   8.592  0.3590 -1.6343  1.8071
14231SOL     OW44133   5.466   2.865   6.190  0.0314 -0.0775 -0.3724
14231SOL    HW144134   5.428   2.909   6.266  1.1627 -1.3255  0.9875
14231SOL    HW244135   5.540   2.816   6.226  1.2335  0.0985 -2.4690
14232SOL     OW44136   3.038   3.064  10.832 -0.7489  0.1496 -0.2700
14232SOL    HW144137   3.066   2.984  10.876  0.3494  0.3484 -0.5693
14232SOL    HW244138   3.086   3.134  10.876 -0.8651  0.5211 -0.7204
14233SOL     OW44139   7.503   7.441   9.468 -0.1843  0.1299  0.5707
14233SOL    HW144140   7.581   7.395   9.499 -0.6863 -1.9155 -1.0007
14233SOL    HW244141   7.441   7.434   9.541 -0.0908 -1.3533  0.5281
14234SOL     OW44142   5.913   3.424   0.930 -0.3174  0.4133  0.0033
14234SOL    HW144143   5.932   3.377   0.848  1.1239  1.3418 -0.2358
14234SOL    HW244144   5.863   3.500   0.903 -1.4083 -0.2133  0.2195
14235SOL     OW44145   3.645   7.616   2.384 -0.2365 -0.2631  0.2728
14235SOL    HW144146   3.573   7.661   2.428 -0.1602 -1.0278  1.2263
14235SOL    HW244147   3.614   7.526   2.374  1.2188 -1.0873  2.3551
14236SOL     OW44148   6.611   0.843   5.191 -0.5564 -0.3403  0.0869
14236SOL    HW144149   6.655   0.928   5.200  2.0187 -1.6883  1.0184
14236SOL    HW244150   6.625   0.820   5.099  0.7998 -0.7567  0.3704
14237SOL     OW44151   3.851   1.916   1.127 -0.2619 -0.1158  0.0943
14237SOL    HW144152   3.770   1.961   1.103 -0.0519  0.1974 -0.0411
14237SOL    HW244153   3.894   1.896   1.043  1.0666  2.0800  0.1679
14238SOL     OW44154   2.078   0.631  11.469  0.4100  0.1844  0.1078
14238SOL    HW144155   1.995   0.619  11.423  0.1344  1.3174  0.3022
14238SOL    HW244156   2.116   0.543  11.472 -1.7160 -0.7520  1.8460
14239SOL     OW44157   0.952   4.048   0.910 -0.1705 -0.1079  0.2729
14239SOL    HW144158   1.014   3.980   0.937 -0.0322  0.2234  0.8197
14239SOL    HW244159   0.886   4.002   0.858  0.9407 -0.3470 -0.9678
14240SOL     OW44160   1.363   4.183   9.252 -0.3418 -0.1183 -0.4964
14240SOL    HW144161   1.336   4.094   9.274 -1.1300  0.1450 -0.3872
14240SOL    HW244162   1.346   4.190   9.158 -2.3456  0.6099 -0.1283
14241SOL     OW44163   3.661   0.793   9.678 -0.9080 -0.0627 -0.3900
14241SOL    HW144164   3.622   0.768   9.594 -0.8519 -1.4128 -0.0383
14241SOL    HW244165   3.604   0.862   9.712 -2.0892 -0.9088 -0.6174
14242SOL     OW44166   0.592   7.046   5.937 -0.0545  0.0386 -0.2167
14242SOL    HW144167   0.609   7.094   6.018 -0.3401 -2.2898  1.3375
14242SOL    HW244168   0.505   7.074   5.911 -0.0625  0.6487  0.4232
14243SOL     OW44169   0.044   6.083   7.132  0.1958  0.2357  0.1119
14243SOL    HW144170   0.088   6.160   7.167  0.2135  0.5114 -0.5143
14243SOL    HW244171  -0.011   6.052   7.205  1.6409 -0.3072  1.0222
14244SOL     OW44172   1.978   3.951   1.799  0.2071  0.0920  0.0953
14244SOL    HW144173   1.944   4.008   1.868  0.5271 -1.7372  1.8821
14244SOL    HW244174   2.034   3.889   1.845 -0.1872 -1.7174 -1.7059
14245SOL     OW44175   4.016   1.072   9.682 -0.6599 -0.1374 -0.0820
14245SOL    HW144176   4.076   1.085   9.609 -1.4120  0.2466 -0.6389
14245SOL    HW244177   4.073   1.065   9.759  0.0342  1.5717 -0.4035
14246SOL     OW44178   6.947   7.276  10.178  0.3392 -0.2129  0.2459
14246SOL    HW144179   6.957   7.371  10.179 -1.0526 -0.0035 -1.0460
14246SOL    HW244180   6.958   7.252  10.086 -0.9977 -1.0630  0.2779
14247SOL     OW44181   2.271   0.123   5.363  0.0954  0.1387 -0.0263
14247SOL    HW144182   2.301   0.213   5.379  0.2442 -0.0892  1.0377
14247SOL    HW244183   2.185   0.119   5.405  0.4630 -0.4695  0.6720
14248SOL     OW44184   5.388   7.488  12.176 -0.0840 -0.4739  0.3775
14248SOL    HW144185   5.432   7.572  12.165  1.9195 -1.5811 -0.6434
14248SOL    HW244186   5.306   7.497  12.127  0.9298  0.3256 -1.2520
14249SOL     OW44187   0.543   6.178   9.310 -0.3979 -0.6408  0.1028
14249SOL    HW144188   0.632   6.202   9.337 -0.7747  0.3470  0.5386
14249SOL    HW244189   0.508   6.258   9.271 -0.5470 -1.4911 -1.5992
14250SOL     OW44190   3.633   7.786   6.369 -0.3517 -0.6172  0.6836
14250SOL    HW144191   3.652   7.785   6.463 -2.8953  0.2478  1.2759
14250SOL    HW244192   3.709   7.828   6.330  1.4622 -2.3246  2.1166
14251SOL     OW44193   6.430   3.211   4.984 -0.6500 -0.8307  0.5089
14251SOL    HW144194   6.396   3.260   4.909 -1.4094 -1.7294  0.2424
14251SOL    HW244195   6.508   3.167   4.950 -0.3147 -0.2975  0.5819
14252SOL     OW44196   7.006   6.490   0.609  0.4058 -1.1392 -0.0890
14252SOL    HW144197   6.936   6.436   0.573 -0.1984 -0.5269  0.1355
14252SOL    HW244198   6.991   6.490   0.704  1.2270 -1.6990  0.0540
14253SOL     OW44199   4.678   2.618   7.110 -0.2911 -0.3094 -0.7288
14253SOL    HW144200   4.668   2.681   7.181 -3.0011 -2.5504  1.0589
14253SOL    HW244201   4.639   2.661   7.034 -1.0147  0.6091  0.1432
14254SOL     OW44202   0.470   6.935   3.749 -0.2728 -0.3140 -0.1166
14254SOL    HW144203   0.528   6.957   3.821  0.6881 -3.0672  0.0711
14254SOL    HW244204   0.490   6.844   3.729 -2.0663 -0.2975 -2.4260
14255SOL     OW44205   4.276   5.646   8.974  0.0788  0.1794 -0.2888
14255SOL    HW144206   4.267   5.687   9.060  1.9059 -0.9121  0.4857
14255SOL    HW244207   4.234   5.707   8.914 -2.9235  0.1167  1.5440
14256SOL     OW44208   2.936   1.237  10.083 -0.3180 -0.3670 -0.4671
14256SOL    HW144209   2.874   1.309  10.067  0.2481 -0.0064 -1.1160
14256SOL    HW244210   2.880   1.162  10.105 -0.9352  0.1876 -0.0877
14257SOL     OW44211   3.213   1.040   0.232  0.4179 -0.3844 -0.2928
14257SOL    HW144212   3.188   0.998   0.314  0.2006  0.8907  0.3171
14257SOL    HW244213   3.144   1.104   0.215 -0.1251 -1.3730 -2.0751
14258SOL     OW44214   0.648   7.970   1.718  0.2842  0.1533  0.1343
14258SOL    HW144215   0.691   7.893   1.681  1.1931 -0.4131  2.2132
14258SOL    HW244216   0.567   7.938   1.755  0.9158  0.0364  1.4868
14259SOL     OW44217   0.223   4.244   4.940 -0.4628 -0.2541  0.4400
14259SOL    HW144218   0.301   4.233   4.993 -0.7275  0.2506  0.9505
14259SOL    HW244219   0.151   4.238   5.003 -0.8650 -1.0936 -0.0739
14260SOL     OW44220   6.013   1.091   6.440 -0.3725 -0.1036  0.0503
14260SOL    HW144221   6.101   1.095   6.402  0.3831  2.2872  1.8152
14260SOL    HW244222   6.012   1.008   6.489  1.8708  0.8762  1.9755
14261SOL     OW44223   3.753   2.132   1.497 -0.5621 -0.1956 -0.4395
14261SOL    HW144224   3.685   2.098   1.439  0.6426 -0.7456 -1.6091
14261SOL    HW244225   3.828   2.146   1.439  0.0455  1.2570  0.6440
14262SOL     OW44226   4.384   6.728   1.698  0.4766  0.2681  0.4353
14262SOL    HW144227   4.304   6.696   1.740  0.6298  0.2780  0.7378
14262SOL    HW244228   4.353   6.771   1.618  0.1638  0.4178  0.6335
14263SOL     OW44229   5.056   6.610  11.001 -0.3088  0.4221 -0.1820
14263SOL    HW144230   5.031   6.583  11.090 -0.6484 -0.6608 -0.5890
14263SOL    HW244231   5.132   6.667  11.014 -0.5533  0.5428  0.8266
14264SOL     OW44232   1.933   4.528   7.458 -0.2306  0.1751 -0.2700
14264SOL    HW144233   1.992   4.460   7.425  0.4370  1.5205 -2.0121
14264SOL    HW244234   1.921   4.507   7.550  2.2661 -0.6744 -0.0662
14265SOL     OW44235   4.160   5.912  10.439 -0.7037 -0.1061  0.0517
14265SOL    HW144236   4.213   5.893  10.361 -0.2128 -0.0517  0.3706
14265SOL    HW244237   4.072   5.884  10.415 -0.7094  0.6022 -0.7988
14266SOL     OW44238   0.658   7.592   2.995  0.4736  0.3499  0.7856
14266SOL    HW144239   0.710   7.521   3.031  1.6180 -0.1890 -1.7181
14266SOL    HW244240   0.610   7.552   2.923 -1.0166  1.5467  1.0567
14267SOL     OW44241   4.054   0.246   9.399 -0.4680 -0.8756  0.5178
14267SOL    HW144242   4.111   0.173   9.426  0.7970  0.2951  1.1273
14267SOL    HW244243   4.087   0.271   9.313  1.5343  1.2817  1.8132
14268SOL     OW44244   6.332   1.837  11.604 -0.3489 -0.0315  1.3040
14268SOL    HW144245   6.255   1.890  11.626 -0.6219 -0.2938  0.9988
14268SOL    HW244246   6.331   1.831  11.509 -0.4380 -0.7416  1.3393
14269SOL     OW44247   4.637   5.369   4.685 -0.6775  0.3162 -0.1556
14269SOL    HW144248   4.662   5.334   4.599 -0.7395  0.6761 -0.3226
14269SOL    HW244249   4.718   5.403   4.722 -1.0843  2.7864 -1.2996
14270SOL     OW44250   3.621   1.244   5.353 -0.7029  0.2116 -0.0421
14270SOL    HW144251   3.555   1.220   5.288 -0.3670  0.5905 -0.5398
14270SOL    HW244252   3.591   1.328   5.388 -1.5037 -0.5508  1.1747
14271SOL     OW44253   2.910   0.077   7.632  0.0938 -0.1718  1.0226
14271SOL    HW144254   2.823   0.037   7.632  0.2283 -0.5896 -1.2080
14271SOL    HW244255   2.935   0.082   7.540  2.1186  0.6795  1.5440
14272SOL     OW44256   4.840   6.192  10.090  0.4726 -0.3016 -0.1597
14272SOL    HW144257   4.892   6.144  10.155 -0.2726  3.4010  3.5767
14272SOL    HW244258   4.752   6.193  10.128  0.1795  2.6688 -0.7425
14273SOL     OW44259   3.858   5.390   6.145 -0.3814 -0.1662  0.1621
14273SOL    HW144260   3.847   5.476   6.104 -1.4620 -0.5668 -0.4466
14273SOL    HW244261   3.780   5.380   6.200 -1.1890 -1.4736 -1.1513
14274SOL     OW44262   3.707   6.169   4.016  0.1899 -0.8801  0.3296
14274SOL    HW144263   3.785   6.128   3.979 -1.1593 -0.8460 -2.9168
14274SOL    HW244264   3.739   6.248   4.058  1.9635 -1.0781 -0.5491
14275SOL     OW44265   6.094   0.787   0.470 -0.8243  0.5493  0.3275
14275SOL    HW144266   6.098   0.855   0.538 -0.7089 -0.2829  1.1803
14275SOL    HW244267   6.034   0.721   0.506 -0.4037 -0.1195 -0.1777
14276SOL     OW44268   0.880   4.410  11.727 -0.5041 -0.8746  0.5959
14276SOL    HW144269   0.958   4.366  11.761  1.3944 -0.0625 -2.2720
14276SOL    HW244270   0.884   4.498  11.764  1.2025 -0.1843 -1.0520
14277SOL     OW44271   2.964   1.056   4.075  0.4334 -0.0174  0.2153
14277SOL    HW144272   3.056   1.043   4.100  0.2976  0.3837  0.9139
14277SOL    HW244273   2.969   1.098   3.989  0.8953 -0.9505 -0.2312
14278SOL     OW44274   4.529   5.638   7.650 -0.2102  0.1683 -0.2059
14278SOL    HW144275   4.590   5.585   7.598  0.3740 -0.0265  0.6505
14278SOL    HW244276   4.452   5.583   7.660  0.3488 -0.4995  0.5795
14279SOL     OW44277   1.687   2.953  10.850  0.3727  0.2430  0.0094
14279SOL    HW144278   1.621   2.995  10.795 -0.1830 -1.0463 -0.3514
14279SOL    HW244279   1.679   2.997  10.935 -1.0225  0.0668 -0.0027
14280SOL     OW44280   0.488   2.019   2.503 -0.2652  0.1402 -0.0363
14280SOL    HW144281   0.394   2.022   2.521 -0.0418  1.7894  1.1728
14280SOL    HW244282   0.494   2.002   2.409 -1.7541 -0.5912 -0.0231
14281SOL     OW44283   1.156   4.857   5.521 -0.1446  0.5615  0.2093
14281SOL    HW144284   1.188   4.857   5.612 -0.0917  0.8497  0.1929
14281SOL    HW244285   1.231   4.827   5.470 -0.5191 -0.6917  0.3708
14282SOL     OW44286   1.105   0.469   9.460 -0.2696 -0.0219  0.1165
14282SOL    HW144287   1.082   0.395   9.402  0.3986 -0.7728  0.7884
14282SOL    HW244288   1.097   0.433   9.548  0.6059  0.5554  0.4349
14283SOL     OW44289   4.977   7.494   6.506  0.0999  0.1364 -0.2865
14283SOL    HW144290   5.066   7.494   6.471  0.1206  0.7152 -0.2469
14283SOL    HW244291   4.962   7.584   6.535  0.1572 -0.3655  1.4045
14284SOL     OW44292   3.233   5.011   9.658  0.0325 -0.1708  0.1003
14284SOL    HW144293   3.237   5.007   9.563 -0.0302 -0.8267  0.1194
14284SOL    HW244294   3.140   5.001   9.679  0.2696 -2.7094  0.3093
14285SOL     OW44295   1.564   4.857  11.199 -0.6926 -0.6679  0.1526
14285SOL    HW144296   1.568   4.839  11.292 -0.0688  0.6621  0.4118
14285SOL    HW244297   1.520   4.781  11.161  0.8146 -2.1445  1.2593
14286SOL     OW44298   3.461   7.768   8.475  0.1403 -0.1764  0.3863
14286SOL    HW144299   3.505   7.807   8.400  2.4141 -0.9631  1.2424
14286SOL    HW244300   3.383   7.726   8.438  0.6020  0.4273 -1.3471
14287SOL     OW44301   7.871   4.912   6.267  0.1815  0.0346  0.2726
14287SOL    HW144302   7.955   4.946   6.236 -0.1110 -0.0824 -0.6774
14287SOL    HW244303   7.845   4.848   6.201 -1.6810  1.5827 -0.6113
14288SOL     OW44304   4.324   7.830  11.177 -0.2890  0.0753 -0.1841
14288SOL    HW144305   4.381   7.770  11.225 -0.5786 -1.1137 -1.2896
14288SOL    HW244306   4.239   7.825  11.222  0.1195  0.9535  0.7356
14289SOL     OW44307   1.652   5.444  11.158  0.1248  1.2201 -0.3944
14289SOL    HW144308   1.593   5.519  11.161 -0.9480  0.3650  1.0237
14289SOL    HW244309   1.619   5.385  11.226  2.1905  0.3921 -0.0319
14290SOL     OW44310   7.934   0.847  11.919  0.7302 -0.2075 -0.3464
14290SOL    HW144311   7.997   0.800  11.975 -1.0676 -1.9927  0.3115
14290SOL    HW244312   7.905   0.921  11.973  1.4534  0.0152 -0.2483
14291SOL     OW44313   6.146   0.589   1.903  0.6421 -0.4569  0.3296
14291SOL    HW144314   6.114   0.543   1.826  0.9267  0.1069 -0.1346
14291SOL    HW244315   6.178   0.520   1.961  0.2028 -0.9013  0.0538
14292SOL     OW44316   4.249   6.714  11.100 -0.3016  0.5498  0.1304
14292SOL    HW144317   4.172   6.659  11.087  0.1813 -0.2358  0.4934
14292SOL    HW244318   4.275   6.740  11.011  1.2876 -2.4112 -0.4092
14293SOL     OW44319   7.414   3.516   5.663 -0.1053  0.0641 -0.2350
14293SOL    HW144320   7.479   3.555   5.723 -2.5447  0.6117  2.2587
14293SOL    HW244321   7.417   3.423   5.683 -0.5980  0.1877  0.4484
14294SOL     OW44322   4.855   1.386  11.237 -0.1216  0.3709  0.2443
14294SOL    HW144323   4.851   1.333  11.157  0.9514 -1.3828  1.2765
14294SOL    HW244324   4.928   1.446  11.224  1.8454 -1.7374  0.8651
14295SOL     OW44325   1.662   2.743   7.268  0.0193  0.2631  0.0110
14295SOL    HW144326   1.654   2.773   7.359  0.1432 -0.1088  0.1472
14295SOL    HW244327   1.751   2.706   7.263  0.3812  1.1856 -0.5328
14296SOL     OW44328   7.423   3.055   3.715 -0.0107  0.0630 -0.3885
14296SOL    HW144329   7.409   3.011   3.631 -0.5316  0.3092 -0.4370
14296SOL    HW244330   7.444   3.145   3.691  1.3593 -0.2112 -0.3011
14297SOL     OW44331   6.981   2.327   2.289  0.4663 -0.6058 -0.3418
14297SOL    HW144332   7.051   2.393   2.285  1.1896 -1.3502 -0.3149
14297SOL    HW244333   6.980   2.288   2.201 -0.4767 -0.0478 -0.5910
14298SOL     OW44334   7.364   7.649   6.649  0.1292  0.2107  0.2176
14298SOL    HW144335   7.341   7.557   6.664  0.4433  0.2145  0.7146
14298SOL    HW244336   7.459   7.650   6.647  0.2322  0.8662  2.5181
14299SOL     OW44337   3.228   1.538   7.431  0.1327  0.0601  0.6111
14299SOL    HW144338   3.285   1.610   7.404  1.3465 -1.1789 -0.2768
14299SOL    HW244339   3.139   1.569   7.412  0.3599  2.3897  2.8475
14300SOL     OW44340   7.932   1.760  11.501 -0.1303  0.3920 -0.0960
14300SOL    HW144341   7.924   1.676  11.458 -0.9161  0.4000  0.0110
14300SOL    HW244342   8.026   1.779  11.502  0.1530 -0.9139  0.7052
14301SOL     OW44343   2.324   1.631   4.982 -0.1131  0.4050 -0.0504
14301SOL    HW144344   2.398   1.594   5.029  0.6681 -0.8615 -2.1113
14301SOL    HW244345   2.295   1.561   4.923 -2.2028  1.2680 -0.1525
14302SOL     OW44346   7.009   2.255  12.465 -0.1080  0.8040 -0.3900
14302SOL    HW144347   7.078   2.189  12.459  1.5221  2.4814 -1.0947
14302SOL    HW244348   6.996   2.284  12.375 -0.9531  1.2880 -0.1214
14303SOL     OW44349   6.653   1.686   6.583 -0.1177 -0.0418  0.1695
14303SOL    HW144350   6.676   1.643   6.665  1.2218 -0.2659 -0.3127
14303SOL    HW244351   6.709   1.763   6.579 -0.1752 -0.0273 -0.5384
14304SOL     OW44352   4.490   1.639  10.307 -0.2238  0.2924 -0.1499
14304SOL    HW144353   4.540   1.651  10.226 -2.2943 -0.8755 -1.7168
14304SOL    HW244354   4.547   1.585  10.363  1.2346  1.0841 -0.8170
14305SOL     OW44355   5.213   0.647  10.203 -0.8201 -0.0621  0.4071
14305SOL    HW144356   5.144   0.673  10.265 -1.0598  0.7363 -0.1766
14305SOL    HW244357   5.220   0.721  10.143 -0.5266 -0.7842 -0.4714
14306SOL     OW44358   6.821   6.269   0.843 -0.1285 -0.1691  0.4090
14306SOL    HW144359   6.769   6.207   0.894  0.3359 -0.7199  0.2363
14306SOL    HW244360   6.767   6.289   0.767 -1.4293  1.7464  1.7463
14307SOL     OW44361   2.560   7.814   3.639 -0.5877  0.2669 -0.3835
14307SOL    HW144362   2.545   7.726   3.674 -2.0162  1.6956  3.0359
14307SOL    HW244363   2.486   7.829   3.580 -0.0132 -0.9863 -1.4604
14308SOL     OW44364   2.891   1.300   1.061  0.6117 -0.5425 -0.3133
14308SOL    HW144365   2.893   1.379   1.008  0.5209  0.3561  0.9612
14308SOL    HW244366   2.984   1.279   1.076  0.6359 -0.4417 -0.3210
14309SOL     OW44367   0.340   5.600   6.548  0.2306  0.1492 -0.1036
14309SOL    HW144368   0.321   5.687   6.513  0.3755  0.8311  1.4162
14309SOL    HW244369   0.415   5.614   6.606  0.4405 -1.0597 -0.0601
14310SOL     OW44370   0.684   1.401   3.618 -0.3896 -0.0434 -0.1448
14310SOL    HW144371   0.735   1.447   3.551 -1.4461  2.3354  0.5763
14310SOL    HW244372   0.741   1.400   3.695 -0.1379 -0.4933 -0.3352
14311SOL     OW44373   0.140   3.066   6.516  0.7010 -0.0282  0.3707
14311SOL    HW144374   0.191   3.136   6.474 -1.0481  0.3787 -1.2121
14311SOL    HW244375   0.064   3.054   6.459 -0.1247 -1.7853  1.7362
14312SOL     OW44376   0.621   2.556   5.439 -0.9424 -0.1933  0.1803
14312SOL    HW144377   0.549   2.608   5.404 -0.7913 -0.4856 -0.5778
14312SOL    HW244378   0.699   2.607   5.421 -0.8652 -0.3387  0.0980
14313SOL     OW44379   1.485   7.218   6.102  0.1192 -0.2037 -0.3576
14313SOL    HW144380   1.533   7.296   6.129  0.3721 -0.5443  0.2058
14313SOL    HW244381   1.475   7.227   6.007  0.4486  0.3424 -0.3432
14314SOL     OW44382   3.223   2.430   1.810 -0.0767  0.0437  0.1663
14314SOL    HW144383   3.188   2.493   1.747 -3.1594 -0.4010  1.2330
14314SOL    HW244384   3.301   2.472   1.845  0.6444  1.1328 -2.4928
14315SOL     OW44385   5.625   6.571   9.662  0.3396  0.1126 -0.2270
14315SOL    HW144386   5.652   6.519   9.586  2.0233  0.3748  0.1675
14315SOL    HW244387   5.702   6.573   9.719  0.0983  2.4537  0.0919
14316SOL     OW44388   1.396   0.138   0.758  0.2264  0.6119 -0.7387
14316SOL    HW144389   1.355   0.222   0.737  1.2165  1.2654 -0.1195
14316SOL    HW244390   1.486   0.147   0.727  0.9867  0.6291  1.3456
14317SOL     OW44391   4.206   3.296  10.351 -0.7924 -0.1235  0.3995
14317SOL    HW144392   4.253   3.228  10.302 -1.4932  0.0997 -0.6246
14317SOL    HW244393   4.270   3.331  10.412  0.1455 -0.3585 -0.4323
14318SOL     OW44394   0.437   0.403   6.337  0.6115 -0.3420  0.3662
14318SOL    HW144395   0.511   0.364   6.382  2.3074  1.2934 -0.8612
14318SOL    HW244396   0.403   0.468   6.399  1.3151  0.1065  0.2948
14319SOL     OW44397   5.665   4.736   9.466 -0.4393 -0.1260  0.0846
14319SOL    HW144398   5.757   4.720   9.487  0.0263 -0.5635 -2.0530
14319SOL    HW244399   5.634   4.654   9.429 -0.9614  0.7295 -1.4952
14320SOL     OW44400   2.266   2.594   1.901  0.0308 -0.3199 -0.1633
14320SOL    HW144401   2.208   2.539   1.954 -2.4576  1.2375 -1.0987
14320SOL    HW244402   2.288   2.667   1.959  1.9786 -1.3690  0.5178
14321SOL     OW44403   0.346   2.925   2.230 -0.3771 -0.4670  0.0530
14321SOL    HW144404   0.375   2.944   2.319 -0.3764 -1.2031  0.2084
14321SOL    HW244405   0.286   2.851   2.238 -0.2956 -0.6079 -0.5670
14322SOL     OW44406   7.436   5.415   3.094  0.2505  0.2700 -0.1377
14322SOL    HW144407   7.444   5.393   3.186 -3.8419 -0.3634  0.2588
14322SOL    HW244408   7.432   5.511   3.092 -0.0508  0.2710  0.4174
14323SOL     OW44409   2.370   0.004   5.147 -0.1932 -0.2219  0.2477
14323SOL    HW144410   2.311  -0.071   5.136 -0.5919 -0.1561  1.7377
14323SOL    HW244411   2.341   0.046   5.228  2.1444 -0.4373  1.2818
14324SOL     OW44412   6.261   1.545   9.172  0.6516 -0.2031 -0.1449
14324SOL    HW144413   6.180   1.551   9.223  0.8326  1.2590  0.0000
14324SOL    HW244414   6.299   1.633   9.175  2.0646 -0.7685 -0.5304
14325SOL     OW44415   0.846   4.670   5.804  0.8353  0.1200  0.0297
14325SOL    HW144416   0.846   4.749   5.750  0.0659  0.2621  0.2297
14325SOL    HW244417   0.895   4.695   5.882 -1.9180  1.4174  1.4988
14326SOL     OW44418   7.569   4.333  11.830  0.0292  0.1483  0.0742
14326SOL    HW144419   7.558   4.426  11.852 -0.9540  0.0789 -0.0973
14326SOL    HW244420   7.574   4.289  11.915 -1.4827  0.1491  0.1986
14327SOL     OW44421   1.819   2.173   5.349  0.4065 -0.0229 -0.0404
14327SOL    HW144422   1.862   2.138   5.271 -0.3832 -0.0314 -0.4849
14327SOL    HW244423   1.804   2.265   5.328 -1.1625 -0.3535 -0.5390
14328SOL     OW44424   1.051   1.437   4.925  0.2003 -0.4727  0.0748
14328SOL    HW144425   1.016   1.354   4.957  1.0191 -0.7130  0.3893
14328SOL    HW244426   1.013   1.447   4.838  0.8744 -1.6944 -0.3905
14329SOL     OW44427   7.062   7.024  11.044  0.2046  0.0848  0.2349
14329SOL    HW144428   7.148   7.048  11.008  0.8271  0.9014  2.1132
14329SOL    HW244429   7.003   7.026  10.970  1.1484  2.9168 -0.5399
14330SOL     OW44430   0.122   2.846   8.361 -0.0490 -0.1737 -0.1125
14330SOL    HW144431   0.091   2.914   8.420  0.8505 -0.7459  1.0632
14330SOL    HW244432   0.186   2.890   8.305  0.4302  0.0010  0.5554
14331SOL     OW44433   0.415   7.336   3.777 -0.2453  0.0280  0.2152
14331SOL    HW144434   0.486   7.320   3.839  1.5318 -2.1353 -2.1899
14331SOL    HW244435   0.353   7.264   3.792  0.9208 -1.3849 -1.3791
14332SOL     OW44436   2.599   1.205   4.257  0.1319 -0.1628 -0.0493
14332SOL    HW144437   2.581   1.280   4.315 -1.6186 -0.2197 -0.4670
14332SOL    HW244438   2.617   1.245   4.172  1.5407 -0.1394  0.2296
14333SOL     OW44439   7.156   5.551   9.226  0.8607 -0.3310 -0.3866
14333SOL    HW144440   7.200   5.580   9.307  2.9363 -0.0606 -1.5251
14333SOL    HW244441   7.132   5.460   9.243 -0.4196  0.2609  1.1696
14334SOL     OW44442   2.356   7.416   4.605 -0.0499 -0.0045 -0.6062
14334SOL    HW144443   2.404   7.343   4.645 -0.6553 -0.7130 -1.1535
14334SOL    HW244444   2.420   7.487   4.601  0.2761 -0.1776  0.8225
14335SOL     OW44445   2.704   0.437   7.721  0.0493 -0.6003  0.5484
14335SOL    HW144446   2.670   0.524   7.742  1.0935 -0.2032  0.6409
14335SOL    HW244447   2.641   0.402   7.657 -0.6085  0.0405  0.8278
14336SOL     OW44448   5.451   7.681   4.619 -0.1379  0.1931 -0.7087
14336SOL    HW144449   5.488   7.714   4.701 -0.3907  0.4346 -0.6888
14336SOL    HW244450   5.455   7.586   4.628 -0.7144  0.2160 -0.1626
14337SOL     OW44451   4.986   1.454   5.096  0.7613 -0.1938 -0.3234
14337SOL    HW144452   5.055   1.398   5.059  0.4022 -1.5697  0.9726
14337SOL    HW244453   5.027   1.493   5.173  0.4424 -0.1276 -0.1885
14338SOL     OW44454   5.818   6.167   8.176 -0.7526 -0.0639 -1.0293
14338SOL    HW144455   5.771   6.105   8.121 -1.4421 -0.5263  0.0335
14338SOL    HW244456   5.857   6.113   8.245 -0.1720  0.5277 -0.8811
14339SOL     OW44457   2.701   0.074   9.270  0.2095  0.3451  0.1829
14339SOL    HW144458   2.671   0.160   9.242 -1.5726  0.3717  1.9721
14339SOL    HW244459   2.622   0.031   9.304  1.3354 -1.4547  0.6536
14340SOL     OW44460   2.266   2.452  12.247  0.4032  0.2047 -0.1002
14340SOL    HW144461   2.337   2.396  12.276  1.8668  1.6481 -0.7200
14340SOL    HW244462   2.263   2.523  12.310 -1.9024 -0.8304  1.0904
14341SOL     OW44463   5.756   1.808   5.432  0.4484  0.0136  1.0285
14341SOL    HW144464   5.685   1.745   5.447  1.8012 -2.3097 -1.4958
14341SOL    HW244465   5.722   1.890   5.468 -3.1396 -1.1591  0.7768
14342SOL     OW44466   7.966   2.507   0.239  0.4410  0.3032  0.1660
14342SOL    HW144467   7.971   2.466   0.153  2.2234 -0.0844  0.4100
14342SOL    HW244468   8.040   2.470   0.287 -0.1155  1.0319  1.6402
14343SOL     OW44469   5.845   7.803   0.504  0.1059 -0.2923 -0.3738
14343SOL    HW144470   5.936   7.822   0.528 -0.0929 -0.6581  0.7429
14343SOL    HW244471   5.811   7.752   0.578 -1.1072  0.1253 -0.6231
14344SOL     OW44472   0.755   6.502   7.401  0.0887  0.0057  0.3884
14344SOL    HW144473   0.841   6.499   7.357 -0.2547 -1.5553 -0.2495
14344SOL    HW244474   0.703   6.437   7.354 -0.4988 -1.2938  2.7175
14345SOL     OW44475   1.846   6.730   4.375 -0.0836 -0.0732 -0.0127
14345SOL    HW144476   1.796   6.760   4.451 -0.4592 -2.2156  0.6760
14345SOL    HW244477   1.794   6.657   4.341  1.4734 -0.9286 -0.6249
14346SOL     OW44478   2.300   5.928  11.116  0.4619  0.0392  0.5245
14346SOL    HW144479   2.385   5.951  11.153  0.6823 -1.5535  1.0470
14346SOL    HW244480   2.237   5.965  11.178  0.7158  1.7628 -0.1817
14347SOL     OW44481   7.898   6.344   1.243 -0.0416  0.1473 -0.1217
14347SOL    HW144482   7.987   6.310   1.251 -0.0168  0.2975  0.2739
14347SOL    HW244483   7.871   6.321   1.154  0.8574  1.1921 -0.6980
14348SOL     OW44484   3.470   1.333   3.924 -0.3715 -0.2371  0.2120
14348SOL    HW144485   3.526   1.409   3.941 -0.4552  0.0595 -0.7790
14348SOL    HW244486   3.456   1.294   4.010 -1.0189  1.3594  0.8761
14349SOL     OW44487   3.581   0.060   7.415 -0.6571  0.2665 -0.0539
14349SOL    HW144488   3.511   0.126   7.412 -0.6889  0.3251  1.3705
14349SOL    HW244489   3.537  -0.019   7.447  0.3503  0.9995  3.5792
14350SOL     OW44490   2.742   7.909  10.185  1.0996 -0.2815  0.0963
14350SOL    HW144491   2.676   7.865  10.132  1.5170 -0.0282 -0.6464
14350SOL    HW244492   2.749   7.856  10.264  0.2899 -0.5245  0.0081
14351SOL     OW44493   4.687   5.867   2.607 -0.0874 -0.1356  0.3219
14351SOL    HW144494   4.597   5.834   2.607  0.3743 -1.5214 -1.0556
14351SOL    HW244495   4.736   5.800   2.656  0.2870  0.3805  0.6663
14352SOL     OW44496   1.676   7.723   1.830  0.3454  0.5059 -0.4046
14352SOL    HW144497   1.660   7.804   1.879  1.5375  1.2834 -1.2356
14352SOL    HW244498   1.617   7.729   1.755 -0.3227  0.0853  0.0770
14353SOL     OW44499   4.496   6.452   1.738  0.3871  0.0041  0.2546
14353SOL    HW144500   4.590   6.434   1.739  0.4470 -0.0629 -1.7310
14353SOL    HW244501   4.485   6.518   1.670 -0.9587  0.3737  0.7952
14354SOL     OW44502   1.786   4.381   0.465 -0.2867 -0.4120  0.6519
14354SOL    HW144503   1.696   4.405   0.445  0.3202  2.0340  0.5518
14354SOL    HW244504   1.815   4.330   0.388 -0.8454  0.8783 -0.4502
14355SOL     OW44505   2.768   4.362   0.478 -0.4391  0.0486 -0.1936
14355SOL    HW144506   2.697   4.300   0.498 -2.0307  1.1837 -2.0438
14355SOL    HW244507   2.751   4.436   0.535  0.7654 -0.6580  1.1466
14356SOL     OW44508   0.928   7.109   0.102 -0.4201 -0.2624 -0.4647
14356SOL    HW144509   0.851   7.158   0.133  0.9358  2.2825 -0.8338
14356SOL    HW244510   0.911   7.093   0.009  0.1541  1.8055 -0.9687
14357SOL     OW44511   2.208   0.361   4.912  0.5476  0.4390  1.0469
14357SOL    HW144512   2.188   0.297   4.844 -0.7452  0.1553  1.6661
14357SOL    HW244513   2.282   0.323   4.960 -0.3011 -0.6970  1.5016
14358SOL     OW44514   4.961   0.750   3.481 -0.5839  0.3874  0.8643
14358SOL    HW144515   5.031   0.731   3.544 -1.1065  0.8905  1.6116
14358SOL    HW244516   4.968   0.680   3.416  2.2845  1.7844 -0.5404
14359SOL     OW44517   6.804   3.095   3.096 -0.2126  0.1311 -0.3106
14359SOL    HW144518   6.760   3.077   3.013 -0.5129  0.3520 -0.1999
14359SOL    HW244519   6.867   3.024   3.105  0.2089  0.4066 -0.9944
14360SOL     OW44520   3.613   3.792   1.847 -0.2431  0.9334  0.6627
14360SOL    HW144521   3.558   3.735   1.901  1.2713 -2.6741 -1.2515
14360SOL    HW244522   3.571   3.792   1.761  0.9118  1.0103  0.0860
14361SOL     OW44523   2.396   3.897   6.490 -0.5020  0.0778 -0.6786
14361SOL    HW144524   2.317   3.865   6.533  0.8725 -0.7898  1.3552
14361SOL    HW244525   2.384   3.991   6.485 -1.5152 -0.0030 -0.1088
14362SOL     OW44526   5.107   0.007   6.464 -0.1338 -0.0505 -0.0708
14362SOL    HW144527   5.045   0.063   6.511  0.5738  1.4612 -0.8756
14362SOL    HW244528   5.177  -0.011   6.527 -0.1286  0.3773  0.0463
14363SOL     OW44529   0.447   1.964   2.212 -0.4556 -0.0161 -0.1318
14363SOL    HW144530   0.411   2.050   2.194  0.6753  0.7456  1.0514
14363SOL    HW244531   0.542   1.978   2.213 -0.2343 -1.3855 -0.4601
14364SOL     OW44532   6.212   6.980  11.666 -0.6289  0.0499 -0.0778
14364SOL    HW144533   6.250   6.975  11.578 -2.2381  1.2192 -0.8864
14364SOL    HW244534   6.231   7.069  11.695 -1.2187  0.0798  0.2310
14365SOL     OW44535   5.254   0.160  12.151  0.3413  0.0300 -0.2116
14365SOL    HW144536   5.324   0.095  12.146  0.0793 -0.2569 -0.2154
14365SOL    HW244537   5.177   0.110  12.178  0.2210  0.4067  0.1502
14366SOL     OW44538   7.420   5.857   4.590  0.4689 -0.0621  0.0825
14366SOL    HW144539   7.500   5.806   4.599  0.0024 -0.9669 -0.8379
14366SOL    HW244540   7.385   5.834   4.504 -0.0962  1.3175 -0.0906
14367SOL     OW44541   1.818   1.072   2.545  0.0628 -0.6979 -0.0316
14367SOL    HW144542   1.906   1.063   2.582  1.5846  1.4456 -2.7485
14367SOL    HW244543   1.799   1.166   2.551 -0.6883 -0.6554 -2.2107
14368SOL     OW44544   3.596   6.158   5.812 -0.5614  0.0801 -0.3264
14368SOL    HW144545   3.605   6.079   5.865  2.4827  0.3676 -0.2434
14368SOL    HW244546   3.577   6.227   5.875  1.1031  0.0885  0.2145
14369SOL     OW44547   4.553   0.999   7.151  0.0468  0.6196  0.7905
14369SOL    HW144548   4.489   0.947   7.200 -0.1964  1.2471  1.1491
14369SOL    HW244549   4.592   1.056   7.217  2.1764 -0.8757  0.9126
14370SOL     OW44550   6.056   6.620   3.685  0.2470 -0.3931 -0.4839
14370SOL    HW144551   6.026   6.577   3.765 -1.3122 -0.8964 -1.2957
14370SOL    HW244552   6.102   6.698   3.715 -1.5685  0.2261  0.9031
14371SOL     OW44553   6.057   2.470  11.246  0.7028  0.8120 -0.7095
14371SOL    HW144554   6.001   2.472  11.324  0.6206  1.2620 -0.7755
14371SOL    HW244555   6.060   2.378  11.220  2.0200  0.3802  0.7683
14372SOL     OW44556   1.527   3.302  11.300 -0.1823  0.2173  0.0760
14372SOL    HW144557   1.434   3.282  11.310 -0.0188  0.4404  2.6493
14372SOL    HW244558   1.564   3.288  11.387  1.9381  1.4767 -0.5512
14373SOL     OW44559   7.298   7.546   8.798 -0.7449  0.1120 -0.1245
14373SOL    HW144560   7.236   7.474   8.806  0.5759 -1.0984 -0.3015
14373SOL    HW244561   7.359   7.533   8.871  0.2962  0.2297 -0.9461
14374SOL     OW44562   7.260   0.619   8.240 -0.7965  0.0564 -0.1807
14374SOL    HW144563   7.174   0.577   8.245 -0.8972  0.2827 -0.0250
14374SOL    HW244564   7.303   0.593   8.322 -0.8350  0.2077 -0.1129
14375SOL     OW44565   3.239   5.973   8.133  0.0975 -0.1257  0.6184
14375SOL    HW144566   3.257   5.954   8.225  2.9039  2.1741  0.6971
14375SOL    HW244567   3.322   5.957   8.088 -0.0472  2.5001 -0.7939
14376SOL     OW44568   6.850   5.104   0.147  0.1246  0.1967  0.1948
14376SOL    HW144569   6.866   5.163   0.074 -0.9702 -0.2187 -0.4066
14376SOL    HW244570   6.757   5.116   0.168  0.5473  0.7082  1.8883
14377SOL     OW44571   6.519   0.827  12.243  0.0441 -0.1882  0.1551
14377SOL    HW144572   6.479   0.750  12.204 -1.2257  0.7656 -0.5203
14377SOL    HW244573   6.498   0.820  12.337 -1.8885  0.3307 -0.1854
14378SOL     OW44574   7.337   7.634   5.666  0.1287 -0.2843 -0.4434
14378SOL    HW144575   7.409   7.690   5.635  0.4574 -0.2700  0.3151
14378SOL    HW244576   7.309   7.675   5.748 -0.2741 -0.6906 -0.3748
14379SOL     OW44577   3.129   0.070   1.413  0.2105 -0.5710 -0.4118
14379SOL    HW144578   3.221   0.042   1.416  0.6006  0.5883 -1.0594
14379SOL    HW244579   3.104   0.060   1.321  0.0796  0.3187 -0.4805
14380SOL     OW44580   2.385   3.957  12.248  0.4485 -0.3073  0.2622
14380SOL    HW144581   2.389   4.050  12.269  0.1864 -0.2740  0.1675
14380SOL    HW244582   2.355   3.954  12.157  0.6703 -0.4769  0.1942
14381SOL     OW44583   6.716   3.351  10.254 -0.0887  1.0238 -0.4205
14381SOL    HW144584   6.649   3.370  10.189 -0.0413  1.9995 -0.2049
14381SOL    HW244585   6.757   3.270  10.224 -0.7101  0.9414 -1.0751
14382SOL     OW44586   5.383   3.924   6.598 -0.3494  0.2363 -0.0429
14382SOL    HW144587   5.315   3.876   6.646  1.2230 -0.9506  1.1186
14382SOL    HW244588   5.418   3.987   6.661  1.2234 -0.8113  0.1827
14383SOL     OW44589   5.017   5.202   6.305 -0.5296 -0.5220 -0.3527
14383SOL    HW144590   5.019   5.187   6.211  2.8090 -0.8845 -0.3561
14383SOL    HW244591   5.002   5.115   6.342  1.8654 -1.1327 -0.6091
14384SOL     OW44592   1.775   2.290   8.195 -0.9211  0.5435  0.6774
14384SOL    HW144593   1.869   2.303   8.214 -0.5499  1.8228 -1.6656
14384SOL    HW244594   1.734   2.371   8.225 -0.8976  0.9651 -0.3925
14385SOL     OW44595   4.341   1.123  11.794 -0.4547  0.2539  0.1312
14385SOL    HW144596   4.300   1.100  11.878 -1.2595  0.5443 -0.1638
14385SOL    HW244597   4.310   1.212  11.777  0.4114  0.5206 -0.0516
14386SOL     OW44598   0.246   7.663   2.143  0.1839  0.6818  0.0027
14386SOL    HW144599   0.216   7.745   2.182 -1.8350 -0.1552  0.3168
14386SOL    HW244600   0.247   7.601   2.216 -1.1650 -0.2690 -0.7473
14387SOL     OW44601   6.825   6.210   8.724 -0.1083  0.0815 -0.3089
14387SOL    HW144602   6.851   6.121   8.750 -0.0430  0.2460  0.1979
14387SOL    HW244603   6.850   6.264   8.799 -3.2415  0.0726  0.8758
14388SOL     OW44604   1.617   2.389   4.160 -0.0408 -0.5040 -0.2403
14388SOL    HW144605   1.637   2.320   4.223  1.8732 -1.4383 -1.7764
14388SOL    HW244606   1.692   2.390   4.101 -0.3544  2.3993 -0.7328
14389SOL     OW44607   5.378   7.848   5.891 -0.0835  0.1626 -0.0227
14389SOL    HW144608   5.373   7.886   5.803 -0.1934 -0.4087 -0.2662
14389SOL    HW244609   5.438   7.906   5.938  0.5198  0.0952 -0.6778
14390SOL     OW44610   3.036   6.263  11.610  0.1807 -0.0355  0.0082
14390SOL    HW144611   2.985   6.326  11.661  0.8241  1.3721 -0.9895
14390SOL    HW244612   3.096   6.223  11.673  0.2305  0.8830  0.5626
14391SOL     OW44613   0.403   4.131   2.128 -0.3774 -0.1276 -0.2832
14391SOL    HW144614   0.345   4.203   2.153  0.5868 -0.1651  2.3386
14391SOL    HW244615   0.346   4.054   2.128 -0.9027  0.2495 -0.6863
14392SOL     OW44616   1.872   4.816   9.510 -0.3502 -0.5304  0.1851
14392SOL    HW144617   1.846   4.805   9.419  0.7351 -0.1759 -0.1894
14392SOL    HW244618   1.791   4.808   9.560 -0.9985 -0.4545 -0.8315
14393SOL     OW44619   7.257   7.101   9.674 -0.3082  0.5687 -0.0219
14393SOL    HW144620   7.309   7.034   9.630 -0.9095 -0.5816  0.9690
14393SOL    HW244621   7.246   7.069   9.763  0.0852  2.3972  0.7297
14394SOL     OW44622   6.878   2.379   0.478 -0.0635 -0.1185 -0.5895
14394SOL    HW144623   6.795   2.407   0.442 -0.8149 -0.5240  0.7408
14394SOL    HW244624   6.944   2.414   0.418 -1.1800  0.2841 -1.6106
14395SOL     OW44625   6.796   4.454  11.352  0.2763  0.0824  0.1275
14395SOL    HW144626   6.791   4.376  11.297  1.6917 -0.2660  0.4571
14395SOL    HW244627   6.824   4.422  11.438 -3.3301  0.4004  1.6286
14396SOL     OW44628   5.859   1.613  10.236 -0.0838  0.4980 -0.6175
14396SOL    HW144629   5.930   1.549  10.235  0.7379  1.2427  1.7045
14396SOL    HW244630   5.904   1.698  10.240 -1.1007  1.0126  0.3617
14397SOL     OW44631   4.169   4.335   2.041  0.3683  0.1197  0.1448
14397SOL    HW144632   4.207   4.371   1.961 -0.5987  2.0862  0.5296
14397SOL    HW244633   4.181   4.403   2.106  0.4793 -1.1602  1.5229
14398SOL     OW44634   5.616   4.664   6.928 -0.4014 -0.3791  0.4025
14398SOL    HW144635   5.682   4.600   6.956 -0.2759 -0.7883 -0.7798
14398SOL    HW244636   5.658   4.749   6.942  0.2751 -0.6272 -0.0620
14399SOL     OW44637   0.816   0.269   8.763 -0.4619 -0.2077 -0.0832
14399SOL    HW144638   0.769   0.346   8.793 -0.0238 -0.1625  0.5118
14399SOL    HW244639   0.750   0.200   8.760 -0.5910 -0.1347  0.7109
14400SOL     OW44640   1.104   5.758   2.138  0.0123 -0.0003  0.5619
14400SOL    HW144641   1.180   5.787   2.089 -1.3841  1.1789 -1.0249
14400SOL    HW244642   1.083   5.673   2.101 -0.7161  0.6502 -0.5991
14401SOL     OW44643   3.046   2.079  11.639 -0.2270  0.1345  0.0010
14401SOL    HW144644   3.139   2.058  11.641  0.3508  2.4797  0.7395
14401SOL    HW244645   3.024   2.083  11.546  0.2983 -0.7351 -0.1757
14402SOL     OW44646   1.563   3.423   9.062  0.5626  0.1000  0.2034
14402SOL    HW144647   1.581   3.377   8.980  1.7133 -0.4465  0.7320
14402SOL    HW244648   1.476   3.460   9.051 -0.0257 -1.4405 -0.5952
14403SOL     OW44649   2.635   2.086  10.080  0.0584  0.3151  0.8281
14403SOL    HW144650   2.710   2.027  10.072 -0.6558 -0.6641  1.1866
14403SOL    HW244651   2.617   2.090  10.174  0.1638  1.2014  0.8200
14404SOL     OW44652   5.574   3.743   6.456  0.8760  0.6190 -0.1294
14404SOL    HW144653   5.529   3.790   6.385  1.0182 -2.8090 -2.7328
14404SOL    HW244654   5.506   3.726   6.521 -0.0524  1.0336 -0.9782
14405SOL     OW44655   6.620   0.866   1.361 -0.2636 -0.2474 -0.3532
14405SOL    HW144656   6.705   0.893   1.396 -0.2145  0.3742 -0.9203
14405SOL    HW244657   6.595   0.790   1.413 -0.1490  0.5854  0.9491
14406SOL     OW44658   7.670   5.363   1.309 -0.3633 -0.1375 -0.2891
14406SOL    HW144659   7.633   5.409   1.234 -1.4420  0.4025  0.5248
14406SOL    HW244660   7.646   5.271   1.296 -1.4545  0.1059 -0.1143
14407SOL     OW44661   5.798   0.564   6.643 -0.3450  0.2302  0.8941
14407SOL    HW144662   5.788   0.503   6.715  0.4975  1.2136  1.8631
14407SOL    HW244663   5.738   0.636   6.664 -1.2855 -0.1880 -0.2053
14408SOL     OW44664   3.135   7.454  12.421 -0.1002  0.0835 -0.5535
14408SOL    HW144665   3.119   7.448  12.515  0.0050  0.9276 -0.4808
14408SOL    HW244666   3.049   7.441  12.381 -0.1627 -0.1600 -0.3400
14409SOL     OW44667   4.282   0.904  10.339  0.1339 -0.7435 -0.0137
14409SOL    HW144668   4.293   0.820  10.295 -1.1211 -0.7101 -0.4335
14409SOL    HW244669   4.338   0.964  10.290  0.0496 -1.0680 -0.5204
14410SOL     OW44670   5.946   0.282   1.520  0.3062  0.3128  0.2452
14410SOL    HW144671   5.880   0.284   1.451 -0.1698 -0.7099  0.6497
14410SOL    HW244672   6.002   0.207   1.498  0.7104  0.5494  0.4576
14411SOL     OW44673   4.622   6.861   7.258  0.3796 -0.3540  0.0851
14411SOL    HW144674   4.685   6.871   7.187  0.6527 -2.4215 -0.0292
14411SOL    HW244675   4.675   6.861   7.338  0.5022 -1.4940  0.0265
14412SOL     OW44676   7.429   6.590   1.061 -0.1432  0.3893  0.8660
14412SOL    HW144677   7.342   6.553   1.045  0.4262 -1.5585  1.9605
14412SOL    HW244678   7.446   6.645   0.985 -1.1001 -1.6131 -0.9015
14413SOL     OW44679   0.780   1.406   7.038 -0.0941  0.3305 -0.2492
14413SOL    HW144680   0.707   1.428   7.096 -1.2426 -0.0497 -1.5109
14413SOL    HW244681   0.786   1.311   7.040  0.8261  0.3793  0.3494
14414SOL     OW44682   1.626   5.612   0.294  0.0780  0.4052 -0.0564
14414SOL    HW144683   1.628   5.522   0.327  1.0758  0.2109 -0.6087
14414SOL    HW244684   1.650   5.665   0.369  0.2733  0.1467  0.0664
14415SOL     OW44685   4.926   2.967   3.193 -0.4535 -0.2495 -0.6880
14415SOL    HW144686   4.836   2.976   3.164 -0.5329  0.2019 -0.3279
14415SOL    HW244687   4.935   3.031   3.263  0.9179  1.7294 -2.5259
14416SOL     OW44688   0.072   5.392  12.236 -0.1174  0.3821 -0.1710
14416SOL    HW144689   0.026   5.439  12.306 -0.2580  0.1731 -0.1225
14416SOL    HW244690   0.106   5.313  12.277 -1.0855 -0.2564 -0.5647
14417SOL     OW44691   3.572   6.151   0.148 -0.1797 -0.2428 -0.1194
14417SOL    HW144692   3.603   6.061   0.133  0.7260  0.0658 -0.1748
14417SOL    HW244693   3.618   6.179   0.227  0.0859  0.4154 -0.4977
14418SOL     OW44694   3.469   0.006   4.811  0.0733  0.1017 -0.3893
14418SOL    HW144695   3.382  -0.019   4.843  0.6971 -0.9090  0.5852
14418SOL    HW244696   3.476   0.099   4.831 -0.7805  0.2004 -0.4904
14419SOL     OW44697   0.434   1.309   1.083  0.4250 -0.8456  0.6523
14419SOL    HW144698   0.448   1.245   1.153 -1.1568 -2.1301 -0.1313
14419SOL    HW244699   0.355   1.357   1.109  0.0694 -1.0440 -0.0363
14420SOL     OW44700   3.045   0.671   2.464 -0.1099  0.1349  0.1388
14420SOL    HW144701   3.078   0.699   2.550 -0.6820 -1.8010  1.0541
14420SOL    HW244702   2.958   0.636   2.482 -0.4859  0.2527 -1.3475
14421SOL     OW44703   4.359   7.154   6.437  0.3693 -0.1516 -0.1475
14421SOL    HW144704   4.316   7.133   6.354  0.5560  0.5556 -0.4243
14421SOL    HW244705   4.366   7.249   6.438 -3.3340  0.3327  2.4859
14422SOL     OW44706   6.274   2.434   1.601  0.5283 -0.0495 -0.1012
14422SOL    HW144707   6.365   2.418   1.625  0.0704 -0.6735  1.2904
14422SOL    HW244708   6.223   2.396   1.672 -0.7826  2.3586  0.3521
14423SOL     OW44709   0.524   3.576   7.466 -0.2362  0.1499 -0.0666
14423SOL    HW144710   0.577   3.513   7.514  0.9260 -0.2182 -1.7367
14423SOL    HW244711   0.578   3.655   7.463 -1.4174  1.0760  1.4602
14424SOL     OW44712   7.741   4.923   4.020  0.0763  0.0948 -0.1290
14424SOL    HW144713   7.786   4.990   3.970 -0.7447  0.8668  0.1374
14424SOL    HW244714   7.648   4.947   4.016 -0.5638 -2.2676 -1.9475
14425SOL     OW44715   7.615   0.041   6.786  0.3764  0.1732 -0.3683
14425SOL    HW144716   7.559  -0.018   6.836 -1.8907  1.8495 -0.8022
14425SOL    HW244717   7.656   0.097   6.852  1.3582 -0.8595 -0.0717
14426SOL     OW44718   4.780   1.994  11.514  0.1850 -0.3639  0.2279
14426SOL    HW144719   4.731   2.073  11.493  0.7480  0.3762  1.5194
14426SOL    HW244720   4.725   1.947  11.577  0.9641  0.3573  1.5065
14427SOL     OW44721   5.611   4.576   1.007 -0.3702  0.1016 -0.0686
14427SOL    HW144722   5.574   4.515   1.071  0.1677  0.2103  0.3451
14427SOL    HW244723   5.686   4.529   0.970 -0.3418  0.2636 -0.2171
14428SOL     OW44724   5.553   4.994   7.439 -0.0388  0.2693  0.1838
14428SOL    HW144725   5.525   4.960   7.524 -0.0678 -2.1837 -0.7147
14428SOL    HW244726   5.648   4.982   7.438 -0.2443 -1.8786 -0.8930
14429SOL     OW44727   5.947   4.431   5.915 -0.0118  0.1753 -0.0969
14429SOL    HW144728   5.867   4.407   5.868 -0.8583  0.3553  1.1999
14429SOL    HW244729   5.945   4.376   5.993  1.1081  0.2325 -0.0164
14430SOL     OW44730   4.021   0.692   0.437 -0.6372 -0.9045 -0.5561
14430SOL    HW144731   3.982   0.760   0.492 -0.7445 -1.0389 -0.4649
14430SOL    HW244732   4.020   0.729   0.349 -0.5544 -0.7268 -0.4832
14431SOL     OW44733   3.606   3.054  11.959  0.0692  0.5649 -0.0228
14431SOL    HW144734   3.526   3.038  12.009  0.7734 -0.7457  0.7482
14431SOL    HW244735   3.620   3.148  11.966 -0.0821  0.4872  1.9620
14432SOL     OW44736   7.038   3.514   0.488  0.4682 -0.4188  0.1379
14432SOL    HW144737   7.125   3.523   0.528  0.9524 -2.1335 -0.4563
14432SOL    HW244738   7.055   3.480   0.401 -0.7449  0.6063 -0.5296
14433SOL     OW44739   6.670   7.429   1.273  0.6564  0.4342  0.4839
14433SOL    HW144740   6.668   7.457   1.182  1.0845 -1.0833 -0.0169
14433SOL    HW244741   6.731   7.488   1.316  3.4943 -1.1636 -1.0710
14434SOL     OW44742   7.685   0.943   6.940  0.4509 -0.4429 -0.1100
14434SOL    HW144743   7.597   0.927   6.972  0.5856 -0.6422  0.1647
14434SOL    HW244744   7.678   1.024   6.890  0.0141 -0.7081 -0.4843
14435SOL     OW44745   7.059   3.706  12.232 -0.2584  0.2213 -0.0985
14435SOL    HW144746   7.138   3.685  12.182  1.5331  2.2389  1.6708
14435SOL    HW244747   6.999   3.744  12.168  1.3227  1.2614 -1.0245
14436SOL     OW44748   1.155   2.142   7.394  0.4034  0.3097 -0.1179
14436SOL    HW144749   1.152   2.213   7.458 -0.6499 -0.4449  0.7029
14436SOL    HW244750   1.128   2.183   7.312  0.1659  0.9428  0.2665
14437SOL     OW44751   0.363   4.449   2.902 -0.3601  0.1341  0.8740
14437SOL    HW144752   0.339   4.530   2.857 -0.9216  0.1216  1.1367
14437SOL    HW244753   0.279   4.411   2.930 -0.0643 -0.2061  1.3237
14438SOL     OW44754   3.137   2.539   5.438 -0.0603  0.0020  0.1863
14438SOL    HW144755   3.063   2.583   5.396 -0.0134 -0.6041 -0.5571
14438SOL    HW244756   3.172   2.604   5.498 -0.4199  0.7374 -0.3745
14439SOL     OW44757   1.479   0.392   9.068 -0.0495 -0.1685  0.1840
14439SOL    HW144758   1.454   0.412   8.978  0.0624 -0.4822  0.0836
14439SOL    HW244759   1.411   0.334   9.101 -1.5311  1.9861  1.1739
14440SOL     OW44760   6.413   7.793  11.476  0.1837 -0.0099 -0.3062
14440SOL    HW144761   6.501   7.761  11.496  0.0206 -0.1497  0.2217
14440SOL    HW244762   6.359   7.714  11.473  0.0744  0.0773 -0.6045
14441SOL     OW44763   3.911   1.380  10.491 -0.2091 -0.0609  0.6887
14441SOL    HW144764   3.926   1.290  10.520  0.1979  0.6490  2.8488
14441SOL    HW244765   3.840   1.412  10.546 -2.2231  0.1733 -1.8344
14442SOL     OW44766   5.422   2.403   0.272 -0.1920 -0.2897  0.1911
14442SOL    HW144767   5.510   2.424   0.243 -0.1444  0.3167  0.7504
14442SOL    HW244768   5.382   2.488   0.292  0.0301 -0.6614  2.5871
14443SOL     OW44769   0.678   1.516   4.387  0.5217 -0.2642  0.1121
14443SOL    HW144770   0.701   1.427   4.414 -1.7772 -1.3389 -1.1965
14443SOL    HW244771   0.644   1.557   4.468 -1.4908 -1.7439  0.1109
14444SOL     OW44772   1.858   2.130   0.743 -0.0242 -0.1832  0.1722
14444SOL    HW144773   1.819   2.068   0.805 -0.7694 -0.0990 -0.2135
14444SOL    HW244774   1.812   2.212   0.759  0.5601  0.1351  0.2751
14445SOL     OW44775   3.071   6.372  11.271 -0.8548 -0.0029 -0.3653
14445SOL    HW144776   3.114   6.453  11.243  0.7996 -0.9188 -0.6167
14445SOL    HW244777   2.980   6.396  11.283  0.0892  2.7834  2.8317
14446SOL     OW44778   1.731   4.554  11.620  0.1471  0.2188  0.1728
14446SOL    HW144779   1.724   4.602  11.537  0.2732  0.3381  0.2302
14446SOL    HW244780   1.814   4.506  11.613  1.0547  1.5873  0.9283
14447SOL     OW44781   4.286   1.989  11.242  0.2696  0.1374  0.2315
14447SOL    HW144782   4.247   2.076  11.230 -0.2903  0.1326  1.7929
14447SOL    HW244783   4.348   2.000  11.313  1.3527 -0.4176 -0.5996
14448SOL     OW44784   3.482   2.243   6.346 -0.0107 -0.1322 -0.3125
14448SOL    HW144785   3.572   2.267   6.367  0.1366 -0.8291 -0.1214
14448SOL    HW244786   3.446   2.320   6.303  0.4427  0.4235  0.2872
14449SOL     OW44787   4.401   7.608   2.621 -0.5036 -0.0632 -0.3202
14449SOL    HW144788   4.363   7.530   2.659 -0.3768 -0.5496 -1.1636
14449SOL    HW244789   4.490   7.582   2.596 -0.4716  0.3338 -0.6389
14450SOL     OW44790   2.620   5.782   0.266  0.0708  0.2254  0.7774
14450SOL    HW144791   2.674   5.711   0.230  0.5072  1.0090 -0.1686
14450SOL    HW244792   2.584   5.746   0.347  0.3497 -1.0452  0.3635
14451SOL     OW44793   6.087   2.912  10.327  0.3344  0.0948  0.8714
14451SOL    HW144794   6.032   2.896  10.250  0.8392 -0.7712  0.6731
14451SOL    HW244795   6.027   2.910  10.401 -0.0668  0.3175  0.5562
14452SOL     OW44796   2.732   0.129  12.226  0.6855 -0.6274 -0.2466
14452SOL    HW144797   2.705   0.051  12.273 -0.5302  0.7885  1.5434
14452SOL    HW244798   2.797   0.171  12.283  1.0727 -0.1328 -1.0176
14453SOL     OW44799   0.076   3.572   4.496 -0.6659 -0.0783 -0.5476
14453SOL    HW144800   0.014   3.636   4.532  1.2382  0.2423  2.5445
14453SOL    HW244801   0.121   3.618   4.426 -1.2500  1.0278 -0.2181
14454SOL     OW44802   2.257   4.987   4.639 -0.2942 -0.5115  0.1802
14454SOL    HW144803   2.178   4.942   4.610 -2.5858  0.9704  3.5478
14454SOL    HW244804   2.270   5.058   4.577 -3.4145  0.9568  1.0143
14455SOL     OW44805   0.806   2.133   1.210 -0.2031  0.3463 -0.4963
14455SOL    HW144806   0.892   2.173   1.214  0.3782 -0.9050  2.8356
14455SOL    HW244807   0.823   2.041   1.189 -0.3671 -0.4157  2.2797
14456SOL     OW44808   7.953   3.971   4.478 -0.5045 -0.1420  0.1272
14456SOL    HW144809   7.893   3.932   4.414  0.5009 -0.3184 -0.7354
14456SOL    HW244810   7.917   3.946   4.563 -0.6449 -1.8201 -0.3800
14457SOL     OW44811   4.676   3.897   5.495  0.5739 -0.4230 -0.4861
14457SOL    HW144812   4.729   3.932   5.423 -0.1246 -0.1092 -0.8510
14457SOL    HW244813   4.670   3.970   5.557 -1.3527  0.3644 -1.4993
14458SOL     OW44814   2.818   0.548   5.275  0.1792  0.6017 -0.0140
14458SOL    HW144815   2.732   0.559   5.317  1.1929 -0.4299  2.4655
14458SOL    HW244816   2.866   0.488   5.332  1.9114 -0.4081 -2.3672
14459SOL     OW44817   7.497   6.042   4.793 -0.0021 -0.1509  0.3262
14459SOL    HW144818   7.461   6.127   4.769 -0.0105 -0.1835  0.2242
14459SOL    HW244819   7.479   5.985   4.718 -0.3237 -0.3370  0.5433
14460SOL     OW44820   4.908   6.371   5.318  0.0090  0.0751 -0.2396
14460SOL    HW144821   4.920   6.317   5.396 -0.8517 -1.2917 -1.0185
14460SOL    HW244822   4.814   6.368   5.300  0.1823  0.3917 -1.3049
14461SOL     OW44823   3.881   2.401   3.804  0.5050 -0.0324 -0.3152
14461SOL    HW144824   3.878   2.496   3.795 -0.8547 -0.1503 -1.3623
14461SOL    HW244825   3.938   2.386   3.880 -0.2352  1.6473  0.6273
14462SOL     OW44826   7.368   5.595   1.929  0.1921 -0.2138  0.3724
14462SOL    HW144827   7.401   5.649   1.857 -0.9716  0.5800  0.3944
14462SOL    HW244828   7.431   5.524   1.937  0.5605 -0.0995 -1.1756
14463SOL     OW44829   2.469   5.752   3.062  0.0836 -0.0817 -0.3962
14463SOL    HW144830   2.508   5.839   3.071 -0.1199 -0.0374  0.0691
14463SOL    HW244831   2.543   5.692   3.073  0.0483  0.0064  0.3397
14464SOL     OW44832   0.025   5.895   7.913 -0.0992  0.6193 -0.2205
14464SOL    HW144833   0.002   5.894   7.820  0.2990  0.5325 -0.3183
14464SOL    HW244834   0.120   5.904   7.915  0.2762 -2.4286  0.1006
14465SOL     OW44835   6.841   0.913   1.587 -0.0565 -0.4205  0.2540
14465SOL    HW144836   6.919   0.928   1.641  0.7669  0.0319 -1.0074
14465SOL    HW244837   6.853   0.972   1.512 -0.7880 -1.5571 -0.7901
14466SOL     OW44838   1.630   7.809   4.137 -0.1496  0.2640  0.6073
14466SOL    HW144839   1.627   7.861   4.057  0.5312 -0.9834 -0.2607
14466SOL    HW244840   1.685   7.860   4.196  2.4249 -0.4511 -1.0199
14467SOL     OW44841   7.011   1.195   4.743 -0.0486 -0.1236 -0.0738
14467SOL    HW144842   7.010   1.288   4.764  1.1898  0.2583 -1.5059
14467SOL    HW244843   7.032   1.191   4.650  1.7704 -1.8468  0.3297
14468SOL     OW44844   7.441   7.481   5.042 -0.7260 -0.1732 -0.3771
14468SOL    HW144845   7.475   7.571   5.046 -0.0780 -0.3629 -1.3163
14468SOL    HW244846   7.411   7.463   5.131 -0.3602  0.7842 -0.0461
14469SOL     OW44847   5.399   5.071   2.879 -0.0257  0.1645 -0.2966
14469SOL    HW144848   5.349   5.021   2.944  0.5613  1.2417  1.0426
14469SOL    HW244849   5.399   5.016   2.801  2.2323 -2.8889  1.6111
14470SOL     OW44850   1.143   6.005   0.101  0.0366  0.1381  0.2888
14470SOL    HW144851   1.099   5.975   0.181  1.6954 -0.0495  1.1768
14470SOL    HW244852   1.125   5.937   0.037  0.5417 -0.8386  1.1640
14471SOL     OW44853   0.384   6.346   1.138 -0.4022 -0.4318  0.0984
14471SOL    HW144854   0.413   6.255   1.138  0.9991 -0.0236 -1.3790
14471SOL    HW244855   0.464   6.398   1.140 -1.1761  0.7878  0.9604
14472SOL     OW44856   5.165   6.358   7.747  0.4475  0.4318 -0.8994
14472SOL    HW144857   5.128   6.446   7.750 -1.4189 -0.3297 -0.0830
14472SOL    HW244858   5.164   6.334   7.654  1.1177  1.3167 -1.1391
14473SOL     OW44859   0.931   2.554   7.208  0.3497  0.4731 -0.1920
14473SOL    HW144860   0.948   2.540   7.302 -0.6413  0.0828 -0.0616
14473SOL    HW244861   0.844   2.594   7.205  0.0358 -0.2398 -0.9833
14474SOL     OW44862   7.939   1.898   2.025 -0.1264 -0.1130 -0.7140
14474SOL    HW144863   8.020   1.850   2.041 -0.2844 -0.0229  0.4156
14474SOL    HW244864   7.957   1.950   1.947  0.0983 -1.8862 -1.8903
14475SOL     OW44865   0.670   0.749   4.636  0.6066 -0.4287  0.1817
14475SOL    HW144866   0.654   0.658   4.660  1.2326 -0.4339  0.5872
14475SOL    HW244867   0.598   0.798   4.677  1.6490 -0.4316  2.1225
14476SOL     OW44868   1.908   3.734  12.418 -0.3999  0.2359  0.0919
14476SOL    HW144869   1.867   3.669  12.361  0.9516 -1.6211  1.1488
14476SOL    HW244870   1.866   3.721  12.503 -1.2662  1.9063 -0.0322
14477SOL     OW44871   1.840   0.462   7.742  0.2101 -0.1454 -0.1323
14477SOL    HW144872   1.843   0.477   7.648  1.7714  0.1439 -0.0508
14477SOL    HW244873   1.748   0.440   7.759 -0.6111  2.0794 -1.3506
14478SOL     OW44874   6.347   6.655   0.155 -0.9529 -1.0782 -0.0579
14478SOL    HW144875   6.435   6.628   0.130 -0.6830  1.0030 -1.5808
14478SOL    HW244876   6.360   6.720   0.224 -1.3624 -1.3705  0.3045
14479SOL     OW44877   3.335   6.633   4.404 -0.2838 -0.0674 -0.8541
14479SOL    HW144878   3.244   6.605   4.399 -0.0607 -0.7582 -1.3229
14479SOL    HW244879   3.378   6.588   4.331  0.3746  0.4686 -0.8138
14480SOL     OW44880   6.385   2.711   0.439  0.2818  0.3141 -0.5117
14480SOL    HW144881   6.478   2.724   0.454 -0.1057  1.4519  1.2699
14480SOL    HW244882   6.351   2.798   0.417 -0.1923 -0.3003 -2.3553
14481SOL     OW44883   2.052   5.595   3.801 -0.0875 -0.0512 -0.2308
14481SOL    HW144884   2.031   5.506   3.774 -1.1564  0.2631 -0.5172
14481SOL    HW244885   2.006   5.650   3.737  1.7756  0.7210 -0.9731
14482SOL     OW44886   7.045   4.666   8.806 -0.5555 -0.1639 -0.1383
14482SOL    HW144887   7.063   4.590   8.750 -2.7534 -1.1725  0.4314
14482SOL    HW244888   7.046   4.631   8.895 -2.0350  0.3438  0.1083
14483SOL     OW44889   4.945   7.083  10.824 -0.5393 -0.3841 -0.2261
14483SOL    HW144890   4.930   7.154  10.886 -0.8548  1.5188 -2.3697
14483SOL    HW244891   4.873   7.022  10.839 -1.2704  0.6219  0.4862
14484SOL     OW44892   0.910   7.869  11.147  0.2465  0.2164 -0.2150
14484SOL    HW144893   0.897   7.891  11.055 -0.3173  1.7208  0.1938
14484SOL    HW244894   0.842   7.805  11.167  0.1563  0.1457 -0.7492
14485SOL     OW44895   3.128   7.017  11.445 -0.0824 -0.3938  0.0956
14485SOL    HW144896   3.089   7.060  11.369  0.2442 -0.3948 -0.0777
14485SOL    HW244897   3.140   7.087  11.509  0.3960 -0.2341 -0.1654
14486SOL     OW44898   6.458   1.883  10.170  0.1514  0.1258 -0.4638
14486SOL    HW144899   6.491   1.801  10.135  0.6712 -0.8101  2.0325
14486SOL    HW244900   6.526   1.914  10.230 -0.1815  2.2260 -1.0826
14487SOL     OW44901   4.186   1.997   8.188 -0.0365  0.0657  0.4303
14487SOL    HW144902   4.141   1.967   8.109 -0.8527  0.1980  0.8318
14487SOL    HW244903   4.118   1.995   8.256  0.3914  0.9327  0.8945
14488SOL     OW44904   2.907   1.133  12.394 -0.5673  0.1824  0.4563
14488SOL    HW144905   2.842   1.190  12.352  1.4152  2.1277 -0.1906
14488SOL    HW244906   2.984   1.141  12.339  0.5022 -1.3623  1.6635
14489SOL     OW44907   6.445   5.105  12.082 -0.1803 -0.1824 -0.3216
14489SOL    HW144908   6.480   5.048  12.014  1.9015  0.2182  0.3489
14489SOL    HW244909   6.474   5.065  12.164  1.1281  1.6566  0.1644
14490SOL     OW44910   7.077   5.422   8.858 -0.3833 -0.0485 -0.0466
14490SOL    HW144911   7.081   5.422   8.762 -1.9320 -0.0773 -0.1351
14490SOL    HW244912   6.986   5.443   8.878 -0.1293 -0.2535  1.4260
14491SOL     OW44913   5.079   6.795   1.094  0.3548 -0.2048 -0.5131
14491SOL    HW144914   5.172   6.791   1.070  0.6068 -2.0000  0.5492
14491SOL    HW244915   5.051   6.703   1.095 -1.0923  0.2153  0.4946
14492SOL     OW44916   2.432   2.813   0.642  0.4753  0.0441 -0.3406
14492SOL    HW144917   2.475   2.738   0.683 -0.2974  0.0821  0.5866
14492SOL    HW244918   2.339   2.790   0.643  0.0576  1.5265  1.1504
14493SOL     OW44919   0.819   3.884   8.450  0.1787  0.1115 -0.3288
14493SOL    HW144920   0.784   3.795   8.458  0.6301  0.0105  0.5922
14493SOL    HW244921   0.744   3.941   8.467 -0.3957 -0.0536 -2.0805
14494SOL     OW44922   2.116   5.409   5.237  0.4152 -0.1612  0.1297
14494SOL    HW144923   2.207   5.389   5.259 -0.4322 -1.2515  3.2209
14494SOL    HW244924   2.066   5.340   5.280 -2.0012  1.9832  0.9912
14495SOL     OW44925   6.297   0.195   4.485 -0.0934 -0.4312 -0.0475
14495SOL    HW144926   6.232   0.127   4.470 -0.3355 -0.3963  0.8078
14495SOL    HW244927   6.271   0.266   4.426 -0.0166 -0.9433 -0.7197
14496SOL     OW44928   3.946   7.794  10.193 -0.4189  0.0392 -0.0197
14496SOL    HW144929   3.980   7.883  10.199 -0.5335  0.0179  1.0529
14496SOL    HW244930   3.929   7.781  10.099 -2.0148  1.7366 -0.0044
14497SOL     OW44931   3.193   4.322   2.503  0.3295  0.0928 -0.0485
14497SOL    HW144932   3.130   4.388   2.533 -0.1168  0.0281 -0.8280
14497SOL    HW244933   3.265   4.374   2.467 -0.1664  0.1669 -0.9580
14498SOL     OW44934   6.413   6.644   3.611  0.3994 -0.2900 -0.1308
14498SOL    HW144935   6.359   6.616   3.537 -2.6249 -1.1340  2.1949
14498SOL    HW244936   6.446   6.562   3.649 -1.8409 -0.3311  1.9849
14499SOL     OW44937   6.171   2.412  11.924  0.1002 -0.4469  0.6264
14499SOL    HW144938   6.261   2.409  11.892 -0.0314  0.1989  0.1772
14499SOL    HW244939   6.145   2.503  11.913 -0.6489 -0.6535  0.6522
14500SOL     OW44940   1.939   3.963   7.642  1.0171 -0.2210  0.3126
14500SOL    HW144941   2.027   3.991   7.667  0.6588  0.7078  0.5993
14500SOL    HW244942   1.952   3.880   7.597  2.1182  0.2358 -0.2664
14501SOL     OW44943   5.314   7.269   0.972  0.2965 -0.3699  0.2880
14501SOL    HW144944   5.345   7.189   1.015  0.4633 -0.4505  0.0208
14501SOL    HW244945   5.272   7.319   1.042 -0.0895 -0.8329  0.3926
14502SOL     OW44946   7.090   0.636   2.968  0.6152  0.2302 -0.9081
14502SOL    HW144947   7.143   0.565   3.003  1.7938  2.0025  1.1564
14502SOL    HW244948   7.052   0.678   3.046 -0.5865  1.4504 -2.0950
14503SOL     OW44949   3.597   0.776   2.946 -0.3807 -0.4099  0.6196
14503SOL    HW144950   3.562   0.712   2.885 -0.3847 -0.6728  0.8990
14503SOL    HW244951   3.670   0.817   2.899 -1.3538  0.4939 -0.1665
14504SOL     OW44952   4.854   3.394   8.633  0.5839  0.1698 -0.2389
14504SOL    HW144953   4.763   3.366   8.620  0.8630 -1.5258  1.1947
14504SOL    HW244954   4.858   3.420   8.725  0.9396  2.8703 -0.9209
14505SOL     OW44955   5.725   5.488   7.058 -0.1900  0.0315  0.0429
14505SOL    HW144956   5.656   5.537   7.013 -1.5678  1.7295  3.5601
14505SOL    HW244957   5.679   5.414   7.097  0.7265 -0.8117 -0.4678
14506SOL     OW44958   4.059   2.931   0.085  0.2486  0.2179  0.7637
14506SOL    HW144959   4.083   2.852   0.134  0.1098 -0.4466 -0.1926
14506SOL    HW244960   4.029   2.897  -0.000 -0.4171  1.2670  0.5642
14507SOL     OW44961   1.862   0.933  11.207 -0.1595 -0.0457 -0.1687
14507SOL    HW144962   1.779   0.974  11.182 -0.4715 -0.3592  0.3245
14507SOL    HW244963   1.905   0.998  11.263 -0.4885 -0.2345  0.3144
14508SOL     OW44964   4.622   3.523   9.987 -0.0248  0.1268 -0.6956
14508SOL    HW144965   4.676   3.558   9.917  0.7759 -1.1201 -0.7299
14508SOL    HW244966   4.664   3.552  10.068  1.4373 -1.7845 -0.6967
14509SOL     OW44967   4.021   1.602  12.372 -0.2670 -0.6881 -0.0702
14509SOL    HW144968   3.947   1.580  12.316  1.0225 -2.5629 -1.1282
14509SOL    HW244969   4.098   1.586  12.318  0.9563  1.0985  1.0268
14510SOL     OW44970   7.725   7.959   0.637 -0.2167 -0.2870  0.3547
14510SOL    HW144971   7.698   7.873   0.605  2.5953 -1.5048  0.9094
14510SOL    HW244972   7.762   8.002   0.560  0.2844 -0.4385  0.5073
14511SOL     OW44973   4.119   6.204   7.060 -0.5365  0.0267  0.4064
14511SOL    HW144974   4.147   6.275   7.002 -0.5487 -0.7615 -0.6086
14511SOL    HW244975   4.115   6.243   7.147  1.2173  0.8052  0.1716
14512SOL     OW44976   6.492   3.338   9.796 -0.4806  0.2340  0.7419
14512SOL    HW144977   6.449   3.283   9.730 -1.5133  1.0413  0.7036
14512SOL    HW244978   6.492   3.426   9.757 -1.6353  0.8414  2.0232
14513SOL     OW44979   2.298   0.603   5.013  0.0843 -0.2160  0.1214
14513SOL    HW144980   2.267   0.515   4.990  1.6636 -1.2817  1.8238
14513SOL    HW244981   2.240   0.662   4.964 -1.4519 -2.1623 -0.5509
14514SOL     OW44982   4.313   4.429  10.217  0.1680 -0.0354 -0.0692
14514SOL    HW144983   4.275   4.411  10.131  0.6834  1.4445 -0.6336
14514SOL    HW244984   4.253   4.491  10.258  1.0618  0.9929 -0.2791
14515SOL     OW44985   1.628   1.023  11.095  0.3977  0.4149  0.0691
14515SOL    HW144986   1.624   1.107  11.141 -1.3147  0.7907 -0.6704
14515SOL    HW244987   1.587   1.041  11.010  1.0551 -0.9034 -0.5571
14516SOL     OW44988   5.061   2.022   1.969  0.2314 -0.5074  0.2042
14516SOL    HW144989   5.007   2.020   2.048 -0.6179  2.6743 -0.1670
14516SOL    HW244990   5.072   2.115   1.949  2.8095 -1.1172 -1.8558
14517SOL     OW44991   1.513   2.995   8.476 -0.0288  0.3140  0.2849
14517SOL    HW144992   1.605   3.001   8.450  0.2329 -0.6189  0.9596
14517SOL    HW244993   1.474   3.076   8.444  1.2316  1.1480  0.7866
14518SOL     OW44994   6.773   5.057   3.465  0.7392  0.0504 -0.3451
14518SOL    HW144995   6.793   5.118   3.395 -1.4808  0.4958 -0.6471
14518SOL    HW244996   6.845   5.067   3.527  1.0192  2.0990 -0.9512
14519SOL     OW44997   5.946   1.338  10.862 -0.1283  0.0229  0.3108
14519SOL    HW144998   5.963   1.412  10.804 -0.7263 -0.1905 -0.1444
14519SOL    HW244999   5.987   1.362  10.945 -2.6146  2.0813  1.0559
14520SOL     OW45000   5.268   2.747   7.145  0.2680  0.4679 -0.2444
14520SOL    HW145001   5.340   2.686   7.156  0.4140  0.8765  1.1622
14520SOL    HW245002   5.191   2.700   7.175 -0.0888  0.0338 -1.7378
14521SOL     OW45003   0.505   7.429   8.699 -0.4070  0.3003 -0.8041
14521SOL    HW145004   0.481   7.502   8.755  0.3217  1.1950 -1.6283
14521SOL    HW245005   0.533   7.360   8.760  0.0823  1.1422 -0.0518
14522SOL     OW45006   7.532   5.045   3.499 -0.1829 -0.0414  0.4745
14522SOL    HW145007   7.600   5.049   3.431 -0.4662  0.1893  0.2028
14522SOL    HW245008   7.533   4.954   3.528  0.0396 -0.1076  0.2635
14523SOL     OW45009   4.781   6.786   9.527 -0.2412  0.0244 -0.0570
14523SOL    HW145010   4.698   6.744   9.547 -1.1199  0.4253 -2.4872
14523SOL    HW245011   4.773   6.812   9.435  2.6975 -0.2232 -0.4852
14524SOL     OW45012   4.265   7.380   2.692 -0.0014 -0.4010  0.3821
14524SOL    HW145013   4.252   7.336   2.776  1.4091  0.0073  0.8434
14524SOL    HW245014   4.190   7.353   2.639 -0.3265 -1.5799  1.3860
14525SOL     OW45015   3.948   6.752   8.654  0.3074  0.3718 -0.0108
14525SOL    HW145016   3.856   6.777   8.664  1.2138  3.3584  2.3508
14525SOL    HW245017   3.980   6.742   8.743  2.5295  0.4442 -0.7442
14526SOL     OW45018   4.726   3.135  10.336 -0.2591 -0.8311 -0.4157
14526SOL    HW145019   4.647   3.086  10.361 -0.3004  0.2194  1.7404
14526SOL    HW245020   4.704   3.173  10.251 -2.4286  0.0998  0.4791
14527SOL     OW45021   0.620   6.480   7.062 -0.4605  0.0433  0.2460
14527SOL    HW145022   0.682   6.552   7.055 -0.1979 -0.1681  0.3892
14527SOL    HW245023   0.554   6.510   7.125 -0.7729  0.4596 -0.2719
14528SOL     OW45024   4.477   6.924   3.461  0.2698  0.0751 -0.0179
14528SOL    HW145025   4.504   6.954   3.374 -0.0719 -0.4410 -0.3108
14528SOL    HW245026   4.397   6.973   3.480  0.5042  0.3975  0.1274
14529SOL     OW45027   4.684   1.222   3.254  0.0602 -0.1704 -0.1210
14529SOL    HW145028   4.770   1.203   3.292  1.2668 -0.5126 -2.8127
14529SOL    HW245029   4.634   1.142   3.266  0.7129 -0.5811 -0.0950
14530SOL     OW45030   1.067   7.265  10.426  0.1444  0.3659 -0.4850
14530SOL    HW145031   1.121   7.197  10.387 -0.3693 -0.6330  0.5014
14530SOL    HW245032   0.987   7.266  10.374 -0.4935 -0.8872  0.4114
14531SOL     OW45033   6.896   6.767   6.325 -0.3680 -0.4771 -0.3247
14531SOL    HW145034   6.831   6.702   6.297 -1.4845  0.1016  0.8395
14531SOL    HW245035   6.859   6.804   6.405  1.0515  0.4168 -0.0640
14532SOL     OW45036   5.159   4.960   6.899 -0.4396 -0.4685 -0.0323
14532SOL    HW145037   5.190   5.007   6.977 -0.9930 -0.2561  0.0603
14532SOL    HW245038   5.240   4.937   6.852 -0.1559  0.8600 -0.2430
14533SOL     OW45039   6.338   0.917  10.781 -0.7540  0.1929 -0.3556
14533SOL    HW145040   6.290   0.899  10.700 -1.0075  1.0988 -0.4223
14533SOL    HW245041   6.269   0.934  10.846 -0.5394  1.1888 -0.3760
14534SOL     OW45042   4.672   0.949   1.105  0.0053  0.2333  0.1826
14534SOL    HW145043   4.672   0.975   1.012 -0.1956  1.6968  0.5635
14534SOL    HW245044   4.630   0.863   1.106 -2.8794  1.4987 -0.7806
14535SOL     OW45045   1.267   3.512   7.905  0.1859 -0.1543 -0.5832
14535SOL    HW145046   1.309   3.463   7.976  0.4173  0.9978  0.1037
14535SOL    HW245047   1.294   3.603   7.919  0.3681  0.0780 -2.2605
14536SOL     OW45048   5.959   4.178   1.757  0.4743  0.2130 -0.3402
14536SOL    HW145049   5.982   4.199   1.667  0.3458 -0.8690 -0.6421
14536SOL    HW245050   5.988   4.087   1.768  0.5301  0.3517  0.7237
14537SOL     OW45051   1.873   4.298   6.131 -0.2511 -0.0563 -0.0948
14537SOL    HW145052   1.897   4.327   6.043  0.9191  0.2919  0.3126
14537SOL    HW245053   1.955   4.302   6.180  0.0237 -4.0589  0.0467
14538SOL     OW45054   2.321   0.177  11.984 -0.1838  0.0729 -0.4920
14538SOL    HW145055   2.323   0.206  12.075 -0.3863 -0.2253 -0.3879
14538SOL    HW245056   2.366   0.092  11.985 -0.2829  0.0165 -0.6490
14539SOL     OW45057   1.051   0.042   7.918  0.3113  0.0473  0.3095
14539SOL    HW145058   1.146   0.028   7.926  0.2422 -1.1100 -0.5422
14539SOL    HW245059   1.012  -0.037   7.956 -0.2595 -0.1869 -0.7319
14540SOL     OW45060   1.859   4.571   4.091  0.1371  0.1371 -0.2819
14540SOL    HW145061   1.906   4.632   4.147 -0.4850  1.6223 -1.2879
14540SOL    HW245062   1.854   4.616   4.006 -1.5904 -0.6745 -0.6665
14541SOL     OW45063   4.989   0.024   9.087  0.1726  0.4282 -0.4825
14541SOL    HW145064   5.047   0.093   9.056 -0.0806  0.4092 -1.0008
14541SOL    HW245065   4.926   0.011   9.016 -0.7399  0.7521  0.2458
14542SOL     OW45066   0.505   6.929  10.029  0.2034 -0.1686  0.4981
14542SOL    HW145067   0.415   6.928   9.995 -0.9098 -0.0089  3.1819
14542SOL    HW245068   0.531   6.837  10.031  0.7451 -0.1102 -1.7090
14543SOL     OW45069   6.348   1.220   2.962  0.3896  0.7599  0.1735
14543SOL    HW145070   6.364   1.248   2.872 -1.8988  0.3108 -0.4290
14543SOL    HW245071   6.339   1.125   2.955  1.5650  0.5530  1.1375
14544SOL     OW45072   7.869   3.775   0.131 -0.2243 -0.3962  0.6107
14544SOL    HW145073   7.796   3.835   0.114 -0.3565 -1.2061 -2.1725
14544SOL    HW245074   7.832   3.688   0.120  1.0515 -0.8301 -0.4702
14545SOL     OW45075   0.371   3.845   3.481  0.0601 -0.1403 -0.2003
14545SOL    HW145076   0.453   3.814   3.442  0.0089 -2.2065  1.2080
14545SOL    HW245077   0.386   3.938   3.497  1.6832 -0.2154 -1.0512
14546SOL     OW45078   3.396   2.337   9.689 -0.0637 -0.1165 -0.1624
14546SOL    HW145079   3.401   2.397   9.614  0.4203 -0.6139 -0.5317
14546SOL    HW245080   3.446   2.382   9.757 -1.9310  1.1580  0.4660
14547SOL     OW45081   7.706   2.751  11.264 -0.0901  0.0220  0.3825
14547SOL    HW145082   7.639   2.683  11.268  0.2633 -0.3320  0.3769
14547SOL    HW245083   7.693   2.792  11.178  0.5434 -0.9389 -0.1988
14548SOL     OW45084   7.374   3.542   9.577 -0.5001 -0.1176  0.1419
14548SOL    HW145085   7.283   3.510   9.576  0.2487 -2.4830  1.0769
14548SOL    HW245086   7.366   3.636   9.565 -3.0943 -0.2283  0.3930
14549SOL     OW45087   4.433   3.097   4.620  0.0595 -0.5609 -0.0290
14549SOL    HW145088   4.464   3.188   4.623  0.9767 -0.9003  1.1369
14549SOL    HW245089   4.343   3.104   4.586 -0.2919  0.8981  1.0978
14550SOL     OW45090   0.626   5.909   1.972 -0.2315 -0.0020  0.0184
14550SOL    HW145091   0.681   5.943   2.042 -0.5394 -0.1966  0.3584
14550SOL    HW245092   0.556   5.861   2.017  0.5978 -1.7291 -0.4388
14551SOL     OW45093   0.008   4.240   5.601  0.5715  0.1702 -0.2760
14551SOL    HW145094  -0.070   4.239   5.546  0.4240  0.0262 -0.0651
14551SOL    HW245095   0.049   4.155   5.588 -0.8777 -0.9607  1.8348
14552SOL     OW45096   1.510   3.477   7.204 -0.7186  0.8768 -0.4624
14552SOL    HW145097   1.522   3.388   7.172 -1.5100  0.4980  0.2271
14552SOL    HW245098   1.497   3.467   7.299  0.0810  1.8135 -0.2349
14553SOL     OW45099   4.833   2.374   7.002 -0.4487 -0.5342  0.4162
14553SOL    HW145100   4.900   2.323   7.047  1.2115  1.9965  0.9528
14553SOL    HW245101   4.795   2.430   7.070 -2.3185 -1.0469 -0.1315
14554SOL     OW45102   2.742   7.276   0.147  0.0142  0.4629  0.4688
14554SOL    HW145103   2.798   7.201   0.168 -2.5692 -2.4797 -2.0404
14554SOL    HW245104   2.689   7.289   0.225  0.1720 -0.6906  0.7893
14555SOL     OW45105   5.300   7.589   4.899  0.0428  0.1844 -0.1020
14555SOL    HW145106   5.298   7.587   4.995 -0.5228 -1.1292 -0.1227
14555SOL    HW245107   5.279   7.500   4.872  0.1151  0.5483 -1.4605
14556SOL     OW45108   2.660   3.381   7.333 -0.4580  0.0833 -0.0586
14556SOL    HW145109   2.678   3.380   7.239 -0.1737  1.2725 -0.0380
14556SOL    HW245110   2.722   3.445   7.368 -1.0141  0.1425  0.8440
14557SOL     OW45111   5.989   2.204  10.441  0.0566 -0.0196  0.0838
14557SOL    HW145112   6.025   2.203  10.529 -0.3163  1.5011  0.2833
14557SOL    HW245113   6.066   2.208  10.383  0.2806  1.1074  0.4312
14558SOL     OW45114   6.927   1.489   7.560  0.2906  0.0240 -0.3391
14558SOL    HW145115   6.915   1.395   7.569  0.4414  0.0837  0.6319
14558SOL    HW245116   7.010   1.507   7.605 -0.7907  0.8909  1.4048
14559SOL     OW45117   1.256   5.454   1.085  0.1548 -0.3772  0.3292
14559SOL    HW145118   1.217   5.521   1.028 -0.6946 -1.8147 -0.8770
14559SOL    HW245119   1.291   5.389   1.024 -0.0476 -1.5714  1.4541
14560SOL     OW45120   6.625   0.970   7.673  0.2371  0.1330  0.3058
14560SOL    HW145121   6.598   1.053   7.633  1.2012  0.2382 -0.1389
14560SOL    HW245122   6.616   0.906   7.603  0.3353  0.0160  0.4007
14561SOL     OW45123   0.387   0.223   7.688  0.6330  0.6000  0.2106
14561SOL    HW145124   0.436   0.194   7.611  2.1855  0.4563  1.2088
14561SOL    HW245125   0.374   0.143   7.740 -0.1171  0.7478  0.2591
14562SOL     OW45126   0.191   0.138   7.008 -0.3075  0.5537 -0.2035
14562SOL    HW145127   0.213   0.077   6.938 -0.7295  1.4042 -1.0982
14562SOL    HW245128   0.273   0.183   7.028  0.0213 -0.3295  0.5076
14563SOL     OW45129   0.881   4.690   1.439 -0.4065 -1.4276  0.1736
14563SOL    HW145130   0.804   4.744   1.453 -1.1186 -1.7798 -1.9894
14563SOL    HW245131   0.937   4.708   1.514 -0.8524  1.8670 -0.1451
14564SOL     OW45132   5.021   5.478  11.708  0.1040 -0.4755  0.5442
14564SOL    HW145133   5.094   5.509  11.655 -0.4929  0.0453  0.0136
14564SOL    HW245134   5.004   5.549  11.770  0.3487 -0.7924  0.9786
14565SOL     OW45135   7.269   7.481   0.581 -0.5103 -0.3823  0.2963
14565SOL    HW145136   7.296   7.394   0.552  1.4156 -0.1256  1.1708
14565SOL    HW245137   7.177   7.488   0.555 -0.6192 -2.5532 -0.0332
14566SOL     OW45138   1.524   5.872   5.571  0.3919  0.5508  0.3253
14566SOL    HW145139   1.576   5.816   5.514  1.0132  1.2834  0.1504
14566SOL    HW245140   1.495   5.815   5.642 -0.7181 -0.4628 -0.9055
14567SOL     OW45141   3.064   6.731   0.389  0.2949  0.0925 -0.2369
14567SOL    HW145142   3.026   6.746   0.475 -0.4783 -2.1596 -0.1160
14567SOL    HW245143   2.988   6.715   0.332  0.8771 -0.7955 -0.7925
14568SOL     OW45144   1.046   4.956   4.050  0.1115  0.4273  0.0061
14568SOL    HW145145   0.957   4.990   4.038 -0.0659 -0.7011 -2.5742
14568SOL    HW245146   1.052   4.936   4.143 -2.9726 -1.0729  0.0072
14569SOL     OW45147   1.180   1.857  10.692 -0.4491  0.4071 -0.4715
14569SOL    HW145148   1.206   1.780  10.743  0.1698  1.5538  1.0605
14569SOL    HW245149   1.098   1.885  10.732 -0.1316  1.1301 -0.3117
14570SOL     OW45150   6.169   5.560   1.759  0.1048  0.3688  0.5202
14570SOL    HW145151   6.220   5.500   1.813 -1.2524 -0.3304  1.0840
14570SOL    HW245152   6.127   5.619   1.821  2.2643  2.6716 -0.0819
14571SOL     OW45153   2.399   2.190   5.665 -0.7739 -0.0051 -0.5652
14571SOL    HW145154   2.431   2.259   5.723 -0.8434 -0.2941 -0.1807
14571SOL    HW245155   2.454   2.198   5.587  0.7758 -0.9728  0.3728
14572SOL     OW45156   2.012   0.352   6.969 -0.5606  0.0163  0.3704
14572SOL    HW145157   2.006   0.445   6.949 -0.5086  0.1763  1.0800
14572SOL    HW245158   2.074   0.317   6.904  0.3691  0.7049  0.8669
14573SOL     OW45159   6.549   1.807   5.292  0.0088 -0.2000 -0.1928
14573SOL    HW145160   6.513   1.781   5.207 -0.7641  0.5204 -0.0944
14573SOL    HW245161   6.612   1.876   5.271 -1.1825  0.9526 -0.0829
14574SOL     OW45162   5.523   6.410   3.003 -0.8310  0.2117 -0.5898
14574SOL    HW145163   5.615   6.411   2.977 -0.3526 -1.0715  0.9277
14574SOL    HW245164   5.510   6.492   3.051 -0.7663  0.8479 -1.6214
14575SOL     OW45165   6.209   0.825   9.535 -0.0774  0.0718  0.2717
14575SOL    HW145166   6.168   0.912   9.530  0.2320  0.1571 -2.6403
14575SOL    HW245167   6.299   0.839   9.506  0.7301 -0.8653  2.1812
14576SOL     OW45168   5.929   7.843  10.165 -0.0790 -0.7654 -0.3731
14576SOL    HW145169   5.990   7.772  10.144  1.0749  0.3316 -0.8788
14576SOL    HW245170   5.845   7.814  10.129  0.7887 -1.0557 -2.2885
14577SOL     OW45171   6.690   5.475   4.211 -0.4949 -0.2377 -0.1190
14577SOL    HW145172   6.656   5.559   4.178 -0.1881 -0.3160 -0.6494
14577SOL    HW245173   6.780   5.494   4.236 -0.3728 -0.4398 -0.3909
14578SOL     OW45174   7.942   2.747   1.240 -0.0422  0.2697  0.1981
14578SOL    HW145175   7.940   2.758   1.145 -2.2555  0.2052  0.1968
14578SOL    HW245176   7.912   2.657   1.254 -1.5149  0.8538  0.9995
14579SOL     OW45177   1.791   4.851   8.008 -0.4905 -0.8529  0.4747
14579SOL    HW145178   1.800   4.903   8.087  1.6467  0.5811 -0.6351
14579SOL    HW245179   1.874   4.804   8.000 -0.2982 -0.2626 -1.3870
14580SOL     OW45180   6.448   0.232  12.178 -0.3369 -0.5656 -0.0626
14580SOL    HW145181   6.359   0.199  12.166 -1.0056  0.6039  1.3460
14580SOL    HW245182   6.471   0.271  12.094 -1.0940 -0.9969 -0.4864
14581SOL     OW45183   4.618   3.921   8.114 -0.1588 -0.5189  0.7446
14581SOL    HW145184   4.689   3.979   8.140  1.3812 -2.0386  0.1034
14581SOL    HW245185   4.635   3.901   8.022 -0.9551 -1.5264  0.7898
14582SOL     OW45186   7.036   5.340   6.183  0.6088 -0.2739 -0.1026
14582SOL    HW145187   7.030   5.334   6.088  2.1585 -0.5278 -0.2166
14582SOL    HW245188   7.125   5.312   6.203  0.4158  0.0884  1.4001
14583SOL     OW45189   6.136   3.654   7.510 -0.3345  0.0074  0.0346
14583SOL    HW145190   6.216   3.636   7.559 -0.3373  1.1654  0.4832
14583SOL    HW245191   6.069   3.669   7.577 -0.7563 -0.1729 -0.3371
14584SOL     OW45192   1.505   7.211   0.346 -0.5272  0.0828 -0.2650
14584SOL    HW145193   1.473   7.157   0.274  0.0107 -1.6320  0.7318
14584SOL    HW245194   1.599   7.192   0.350 -0.7563 -0.9480  1.7143
14585SOL     OW45195   1.255   4.839   5.758 -0.5583 -0.1499  0.4627
14585SOL    HW145196   1.314   4.890   5.812 -0.8401  0.3663  0.2836
14585SOL    HW245197   1.194   4.799   5.821  1.1674 -2.3526  0.8827
14586SOL     OW45198   1.369   2.433   8.480 -0.3051 -0.3291 -0.4669
14586SOL    HW145199   1.420   2.354   8.465  0.2360 -0.2785  0.9729
14586SOL    HW245200   1.335   2.456   8.394  0.9406 -1.1587 -1.2164
14587SOL     OW45201   2.865   7.035   9.534 -0.2250 -0.4307 -0.4235
14587SOL    HW145202   2.957   7.062   9.534 -0.2702 -0.2402  0.6505
14587SOL    HW245203   2.862   6.959   9.591 -0.7967 -0.1986 -0.1360
14588SOL     OW45204   4.020   4.125   5.501 -0.4068 -0.4039  0.2177
14588SOL    HW145205   4.002   4.092   5.589 -2.1606  0.1424  0.1086
14588SOL    HW245206   3.939   4.170   5.476  0.8878  1.5330 -0.7374
14589SOL     OW45207   3.594   1.331   7.566 -0.5648 -0.5491  0.2168
14589SOL    HW145208   3.509   1.325   7.610 -0.6851 -2.1280 -0.2025
14589SOL    HW245209   3.577   1.305   7.476 -0.2015  2.0903 -0.7209
14590SOL     OW45210   5.450   2.582  11.639 -0.0071 -0.7581 -0.0650
14590SOL    HW145211   5.433   2.574  11.732  0.8348 -0.8934  0.0833
14590SOL    HW245212   5.519   2.518  11.621  0.7860  0.1895 -0.5088
14591SOL     OW45213   4.911   1.366   3.973 -0.0624 -0.6177  0.2642
14591SOL    HW145214   4.918   1.421   3.894 -1.1062  0.9921  1.2209
14591SOL    HW245215   4.823   1.328   3.967 -1.2627  1.6279  1.8420
14592SOL     OW45216   5.348   7.203   2.347  0.5466  0.3479  0.4265
14592SOL    HW145217   5.363   7.293   2.317  0.1864  1.1827  2.6007
14592SOL    HW245218   5.255   7.188   2.333  0.8052 -0.1481 -0.9877
14593SOL     OW45219   5.921   2.352  12.048 -0.1971 -0.1972  0.2725
14593SOL    HW145220   6.016   2.363  12.053  0.1144 -2.7724  1.2541
14593SOL    HW245221   5.904   2.329  11.956 -0.0098  1.0050 -0.0825
14594SOL     OW45222   2.246   6.539   1.609 -0.2683  0.4787 -0.2663
14594SOL    HW145223   2.264   6.573   1.696 -0.7429 -0.9721  0.4171
14594SOL    HW245224   2.249   6.617   1.552  1.4497  1.2401  0.7859
14595SOL     OW45225   0.852   3.647   0.241 -0.6079 -0.3193 -0.1491
14595SOL    HW145226   0.898   3.728   0.219 -0.3269 -0.4181  0.0706
14595SOL    HW245227   0.900   3.611   0.316 -2.1194  0.4926  1.2624
14596SOL     OW45228   7.301   7.169   5.715 -0.3915  0.4956  0.4310
14596SOL    HW145229   7.241   7.200   5.783 -1.0769 -0.0258  0.0715
14596SOL    HW245230   7.302   7.073   5.726 -0.1473  0.4471 -0.0064
14597SOL     OW45231   7.027   7.447   1.898 -0.1309 -0.0190  0.0598
14597SOL    HW145232   7.057   7.359   1.876 -1.0156 -0.3829  0.2948
14597SOL    HW245233   7.105   7.491   1.933  0.7003 -0.2139 -1.4448
14598SOL     OW45234   7.181   7.207   0.540 -0.1563 -0.2441 -0.2882
14598SOL    HW145235   7.148   7.133   0.592  2.4320 -1.5906 -0.4357
14598SOL    HW245236   7.188   7.172   0.451  0.8109  0.2566 -0.4194
14599SOL     OW45237   1.505   6.160   0.332 -0.7329  0.2581 -0.4138
14599SOL    HW145238   1.547   6.167   0.418 -0.4341 -1.0084 -0.4365
14599SOL    HW245239   1.470   6.247   0.316 -0.6792  0.5576  0.9353
14600SOL     OW45240   5.725   3.560   1.459  0.5179  0.4064 -0.7189
14600SOL    HW145241   5.763   3.644   1.431  0.4827  1.0847  1.1562
14600SOL    HW245242   5.686   3.578   1.544 -1.3522 -1.0366 -1.2062
14601SOL     OW45243   5.916   2.604   3.262 -0.3492 -0.2278 -0.9454
14601SOL    HW145244   5.933   2.523   3.310 -0.0583 -0.3895 -1.3130
14601SOL    HW245245   5.950   2.673   3.319 -1.5966 -0.2597 -0.1299
14602SOL     OW45246   4.123   2.235   8.035 -0.1593  0.0678 -0.2239
14602SOL    HW145247   4.159   2.207   8.120 -0.9796  1.7353  0.7325
14602SOL    HW245248   4.182   2.196   7.970  2.0526  0.8303  1.1877
14603SOL     OW45249   0.364   0.019   1.271 -0.5298  0.3752  0.7593
14603SOL    HW145250   0.289  -0.029   1.307 -1.8014  0.5978 -1.4020
14603SOL    HW245251   0.354   0.009   1.176  1.5852  1.3564  0.3968
14604SOL     OW45252   6.767   5.936   2.538 -0.4767 -0.3795 -0.5108
14604SOL    HW145253   6.763   5.914   2.632 -0.9825 -3.9712 -1.2123
14604SOL    HW245254   6.687   5.986   2.522 -0.3839  0.3062  0.9430
14605SOL     OW45255   4.250   1.212  10.403 -0.3050  0.3001  0.1648
14605SOL    HW145256   4.242   1.300  10.366 -1.0178 -0.5196 -1.7944
14605SOL    HW245257   4.178   1.204  10.465  0.6837  1.5979  1.5317
14606SOL     OW45258   6.073   3.103   9.841  0.0172 -0.3791 -0.6437
14606SOL    HW145259   6.149   3.102   9.899 -0.0368 -0.2404 -0.5722
14606SOL    HW245260   6.000   3.133   9.895  0.0904  0.3430 -0.9345
14607SOL     OW45261   0.766   1.155   5.033  0.5056  0.0308 -0.2285
14607SOL    HW145262   0.742   1.239   4.993  0.2282  0.6086  1.0833
14607SOL    HW245263   0.682   1.118   5.063  0.7190 -0.2767  0.0001
14608SOL     OW45264   5.194   5.913  11.925 -0.4779  0.5737 -0.2095
14608SOL    HW145265   5.247   5.979  11.971 -0.1549 -0.4672  0.9755
14608SOL    HW245266   5.258   5.849  11.894 -0.6822  1.3168 -2.2945
14609SOL     OW45267   0.587   4.330   0.591  0.3501 -0.5050  0.0942
14609SOL    HW145268   0.642   4.355   0.517 -0.4584 -0.3287 -0.4606
14609SOL    HW245269   0.632   4.366   0.667  0.3102  0.8249 -0.4816
14610SOL     OW45270   2.953   5.599   5.618 -0.0063 -0.3808  0.0623
14610SOL    HW145271   2.965   5.506   5.599 -1.6953 -1.1030  2.2120
14610SOL    HW245272   2.858   5.612   5.618  0.1846  1.3209  0.0617
14611SOL     OW45273   0.231   5.655   3.642 -0.0638 -0.1384  0.1594
14611SOL    HW145274   0.156   5.620   3.594  0.2077 -1.1656  0.4773
14611SOL    HW245275   0.244   5.742   3.604 -0.8521 -0.3014 -0.5202
14612SOL     OW45276   5.130   2.187   7.599 -0.6639 -0.2739  0.1287
14612SOL    HW145277   5.091   2.247   7.664 -1.3249 -0.6537  0.0951
14612SOL    HW245278   5.224   2.191   7.616 -0.7520  0.3270  0.5137
14613SOL     OW45279   4.517   5.421   6.473  0.1005 -0.2556 -0.0758
14613SOL    HW145280   4.612   5.413   6.484  0.3853  1.5332 -0.8622
14613SOL    HW245281   4.507   5.475   6.394 -1.5355  0.8292  0.8298
14614SOL     OW45282   0.828   3.804  11.287  0.2229 -0.1536 -0.0397
14614SOL    HW145283   0.772   3.742  11.240 -0.9347 -0.9153  2.1953
14614SOL    HW245284   0.772   3.881  11.301  0.7370  0.2863 -0.3485
14615SOL     OW45285   0.179   2.703   6.192  0.4086 -0.0786 -0.0501
14615SOL    HW145286   0.109   2.670   6.248  0.5306 -0.8844 -0.3654
14615SOL    HW245287   0.220   2.773   6.243  0.1514 -0.4198  0.6278
14616SOL     OW45288   1.049   5.661   9.353  0.8542 -0.3111 -0.3407
14616SOL    HW145289   0.998   5.580   9.349  1.3731 -0.8075  1.8350
14616SOL    HW245290   0.988   5.730   9.329  0.3790 -1.3098 -2.1565
14617SOL     OW45291   5.885   0.488   9.534  0.3377  0.0401  0.5620
14617SOL    HW145292   5.922   0.439   9.461 -2.1948 -0.7515 -0.2610
14617SOL    HW245293   5.896   0.580   9.509 -1.6923 -0.2059 -1.5237
14618SOL     OW45294   6.665   3.598   2.681  0.1863  0.3729  0.0966
14618SOL    HW145295   6.611   3.531   2.640 -0.1584  2.0119 -2.3698
14618SOL    HW245296   6.613   3.629   2.755  1.0800 -3.0980  2.4095
14619SOL     OW45297   0.570   3.981   8.182  0.1606  0.3986  0.4711
14619SOL    HW145298   0.658   4.013   8.161  0.5258 -0.4429  0.6574
14619SOL    HW245299   0.563   3.994   8.277  0.6348 -0.8112  0.6850
14620SOL     OW45300   2.859   0.630   3.412 -0.1168 -0.0503  0.0949
14620SOL    HW145301   2.850   0.706   3.469  0.5386 -0.0236  0.1731
14620SOL    HW245302   2.943   0.591   3.438  0.7312  0.5835 -1.5935
14621SOL     OW45303   4.931   0.331   2.645 -0.0446 -0.0642 -0.2302
14621SOL    HW145304   4.993   0.277   2.693 -1.7866 -1.6274  0.3810
14621SOL    HW245305   4.910   0.280   2.567 -0.9386  0.1912 -0.1693
14622SOL     OW45306   3.663   0.886   8.189 -0.2790 -0.1132  0.2253
14622SOL    HW145307   3.749   0.867   8.151  0.5164  1.6135  1.0472
14622SOL    HW245308   3.604   0.892   8.113  0.5358 -0.2645 -0.4375
14623SOL     OW45309   0.655   0.346   6.476 -0.6556  0.1629 -0.4190
14623SOL    HW145310   0.664   0.320   6.568 -0.7083  0.2688 -0.3830
14623SOL    HW245311   0.720   0.293   6.430  0.7466  1.4939 -0.0568
14624SOL     OW45312   0.686   6.368  12.193  0.0889 -0.4177 -0.2506
14624SOL    HW145313   0.740   6.314  12.250  2.1531 -0.7890 -2.3741
14624SOL    HW245314   0.648   6.305  12.131  0.2281  0.2341 -1.0182
14625SOL     OW45315   6.490   5.680   8.967 -0.0960 -0.3318 -0.2026
14625SOL    HW145316   6.532   5.686   8.881 -0.3763  1.7251 -0.2450
14625SOL    HW245317   6.481   5.586   8.983  0.6481 -0.7623 -2.0808
14626SOL     OW45318   5.419   2.260  10.904  0.0690  0.0365  0.0870
14626SOL    HW145319   5.379   2.294  10.984 -0.1893  0.7854 -0.3617
14626SOL    HW245320   5.365   2.293  10.833  0.6144 -0.1726 -0.4380
14627SOL     OW45321   7.581   4.852   1.790 -0.4760  0.2972 -0.0409
14627SOL    HW145322   7.667   4.892   1.796 -1.3568  2.2176  0.5138
14627SOL    HW245323   7.522   4.913   1.835 -2.6606  0.7031 -3.1403
14628SOL     OW45324   5.345   2.653   6.696 -0.3978 -0.2844  0.0954
14628SOL    HW145325   5.304   2.731   6.734 -1.0037 -0.7679  0.4642
14628SOL    HW245326   5.439   2.665   6.712 -0.0394  1.9459 -2.7864
14629SOL     OW45327   7.372   3.193  12.357  0.1902  0.1194 -0.0492
14629SOL    HW145328   7.453   3.145  12.344 -0.6019 -1.0354 -0.9973
14629SOL    HW245329   7.387   3.278  12.315  1.4900  0.6273  1.3474
14630SOL     OW45330   1.879   2.690   6.142 -0.1552 -0.5893 -0.0579
14630SOL    HW145331   1.824   2.699   6.219 -0.6537 -0.2299 -0.4480
14630SOL    HW245332   1.959   2.737   6.163 -0.2592 -0.5562  0.2634
14631SOL     OW45333   6.408   0.535   4.535 -0.0011  0.1114  0.1110
14631SOL    HW145334   6.337   0.478   4.505  0.4216 -0.0358 -0.6189
14631SOL    HW245335   6.412   0.606   4.471  1.0032 -0.2856 -0.2975
14632SOL     OW45336   2.759   2.963   7.329 -0.5889 -0.1278  0.1154
14632SOL    HW145337   2.700   3.017   7.382 -0.7814 -0.7111  0.5109
14632SOL    HW245338   2.773   3.014   7.249 -0.4399  0.6815  0.6459
14633SOL     OW45339   6.300   2.218  10.907  0.5928  0.1295 -0.3352
14633SOL    HW145340   6.261   2.141  10.865  0.4333 -0.9949  1.7361
14633SOL    HW245341   6.394   2.204  10.901  0.5618 -0.4215  0.3205
14634SOL     OW45342   2.436   0.294  11.164 -0.3199  0.3467  0.0377
14634SOL    HW145343   2.387   0.374  11.184 -2.1105 -0.6440 -0.1196
14634SOL    HW245344   2.498   0.285  11.237 -1.3385  0.9358  1.0245
14635SOL     OW45345   7.202   1.432   7.033 -0.4751 -0.0285 -0.4696
14635SOL    HW145346   7.128   1.376   7.010 -0.8128 -0.0092  0.5116
14635SOL    HW245347   7.216   1.417   7.127  0.4038  0.3954 -0.5142
14636SOL     OW45348   5.170   6.191   5.983 -0.6936  0.0637  0.3417
14636SOL    HW145349   5.180   6.101   5.952 -2.3718 -0.7155  1.8696
14636SOL    HW245350   5.184   6.186   6.077  0.0570  1.5911  0.3466
14637SOL     OW45351   5.816   6.807   9.163 -0.0986  0.4737  0.0285
14637SOL    HW145352   5.832   6.874   9.229 -0.4317  0.1866  0.4044
14637SOL    HW245353   5.806   6.856   9.081  2.7114  0.7031 -0.2853
14638SOL     OW45354   2.648   2.568   4.484 -0.3021  0.1973  0.1060
14638SOL    HW145355   2.609   2.484   4.460 -1.3024  0.7441 -0.2521
14638SOL    HW245356   2.618   2.583   4.574  1.5636 -0.7706  0.9400
14639SOL     OW45357   5.387   4.870   6.772 -0.4648 -0.1378  0.5268
14639SOL    HW145358   5.479   4.891   6.755  0.8763 -2.4431  3.7940
14639SOL    HW245359   5.382   4.775   6.759 -2.5782  0.0104 -0.0793
14640SOL     OW45360   1.810   2.762   6.712  0.1354  0.5998  0.4593
14640SOL    HW145361   1.744   2.722   6.768 -0.1252 -0.0836 -0.3153
14640SOL    HW245362   1.762   2.830   6.664  0.1366  0.5201  0.3453
14641SOL     OW45363   7.106   7.887   0.482 -0.0793  0.1020 -0.1777
14641SOL    HW145364   7.052   7.958   0.445 -1.0052  0.1588  1.2117
14641SOL    HW245365   7.046   7.837   0.536  0.9744 -0.6867  0.2946
14642SOL     OW45366   3.016   2.069   6.108 -0.3515 -0.2331 -0.0123
14642SOL    HW145367   3.078   2.114   6.166 -0.6106 -0.2804  0.2988
14642SOL    HW245368   2.998   2.133   6.039 -0.1883 -0.1109  0.0569
14643SOL     OW45369   7.200   4.868   1.070  0.3721 -0.0975 -0.2562
14643SOL    HW145370   7.183   4.844   0.979  0.4306 -1.7787  0.1438
14643SOL    HW245371   7.284   4.914   1.067  0.3647 -0.1271 -1.0530
14644SOL     OW45372   6.966   3.500   3.616 -0.3739  0.8813  0.4730
14644SOL    HW145373   6.949   3.510   3.523  0.1366  0.4609  0.3304
14644SOL    HW245374   7.052   3.541   3.629  1.9061 -3.1121 -0.1556
14645SOL     OW45375   5.685   1.334   7.974 -0.2076  0.1877  0.4948
14645SOL    HW145376   5.694   1.427   7.998  0.6198  1.2586 -3.2408
14645SOL    HW245377   5.592   1.323   7.957  0.1013  1.7730 -3.2693
14646SOL     OW45378   0.951   5.165   8.593  0.3652  0.1968 -0.5157
14646SOL    HW145379   0.906   5.106   8.653  1.8133 -0.3284  0.1025
14646SOL    HW245380   1.012   5.215   8.648  0.1079  1.3382 -1.2260
14647SOL     OW45381   6.023   7.354   7.399  0.7826 -0.2808 -0.2868
14647SOL    HW145382   6.049   7.274   7.444  2.7175  1.4939  2.0012
14647SOL    HW245383   6.085   7.361   7.326  1.8222  0.0350  0.6072
14648SOL     OW45384   3.408   0.086   7.835  0.0299 -0.5959 -0.4072
14648SOL    HW145385   3.352   0.039   7.773 -1.3393  0.0389  0.3027
14648SOL    HW245386   3.358   0.164   7.859  0.1889 -1.1502  2.0091
14649SOL     OW45387   7.834   0.230  11.877 -0.4858 -0.2026 -0.0635
14649SOL    HW145388   7.912   0.181  11.853 -0.7688 -0.9549  0.5109
14649SOL    HW245389   7.828   0.300  11.811  0.1946 -0.6413 -0.6032
14650SOL     OW45390   7.411   4.534   0.917  0.1585  0.8242  0.0037
14650SOL    HW145391   7.490   4.552   0.865 -0.5460 -0.0398 -1.4508
14650SOL    HW245392   7.414   4.597   0.988  2.4639  0.4284  0.3399
14651SOL     OW45393   6.587   1.000   0.104 -0.4895  0.7337 -0.1540
14651SOL    HW145394   6.643   0.928   0.076  1.5330  2.0105  0.4172
14651SOL    HW245395   6.499   0.973   0.077  0.4408 -1.0768 -1.6516
14652SOL     OW45396   3.012   1.836   3.245  0.0848 -0.1874 -0.3863
14652SOL    HW145397   3.041   1.785   3.320 -0.8377 -1.5138 -0.8952
14652SOL    HW245398   2.937   1.886   3.277 -2.7548 -3.5434 -1.2043
14653SOL     OW45399   7.883   1.197  10.918  0.7404  0.1362 -0.6234
14653SOL    HW145400   7.942   1.261  10.957  0.9276 -0.5632  0.2542
14653SOL    HW245401   7.853   1.239  10.837 -0.0245  1.8028  0.4723
14654SOL     OW45402   3.831   0.720   1.961  0.0868 -0.4536  0.3159
14654SOL    HW145403   3.841   0.625   1.967  0.3592 -0.3795  1.1455
14654SOL    HW245404   3.919   0.755   1.976 -0.2006 -0.0392  1.1269
14655SOL     OW45405   3.867   1.397   3.328  0.1702  0.2929 -0.7665
14655SOL    HW145406   3.820   1.466   3.280 -1.3126 -0.2828 -0.2199
14655SOL    HW245407   3.806   1.323   3.328  1.5734 -0.9049 -1.0078
14656SOL     OW45408   1.899   7.074   2.601  0.0405  0.0508  0.1843
14656SOL    HW145409   1.812   7.044   2.627 -0.1102  1.7736  1.8138
14656SOL    HW245410   1.894   7.169   2.604  1.6950  0.2085 -0.7654
14657SOL     OW45411   1.496   1.101   5.556 -0.4827  0.5073  0.1631
14657SOL    HW145412   1.563   1.125   5.492 -1.5186 -0.1738 -1.2135
14657SOL    HW245413   1.546   1.072   5.633  1.0283 -3.5396 -2.0225
14658SOL     OW45414   7.056   0.130   7.287 -0.0956  0.0833  0.8130
14658SOL    HW145415   7.023   0.165   7.205 -1.0930 -0.0393  1.1480
14658SOL    HW245416   7.128   0.073   7.262  0.1245  0.6674  0.0945
14659SOL     OW45417   0.346   1.492  10.683 -0.1574  0.2112 -1.2249
14659SOL    HW145418   0.279   1.499  10.614  0.0270 -0.5699 -1.4902
14659SOL    HW245419   0.351   1.398  10.701 -0.5267  0.4425  0.1813
14660SOL     OW45420   5.746   4.653   1.928  0.1765 -0.2005  0.1178
14660SOL    HW145421   5.799   4.648   1.849  0.4028 -0.6933  0.2933
14660SOL    HW245422   5.810   4.664   1.999  0.0986 -1.4369  0.3950
14661SOL     OW45423   0.929   3.573  12.026  0.1419 -0.7145  0.7133
14661SOL    HW145424   0.932   3.481  11.997  0.3191 -0.9440  1.4484
14661SOL    HW245425   0.891   3.570  12.113  1.6499 -0.2663  1.4160
14662SOL     OW45426   6.887   6.004   9.654  0.0399 -0.6258  0.4285
14662SOL    HW145427   6.905   5.910   9.660  0.6308 -0.6454 -1.1843
14662SOL    HW245428   6.894   6.035   9.744 -1.0684 -2.2700  1.1432
14663SOL     OW45429   2.662   2.858  10.239 -0.2709  0.5263  0.3043
14663SOL    HW145430   2.706   2.847  10.155 -0.3816 -0.8925  0.4072
14663SOL    HW245431   2.645   2.952  10.246 -0.8194  0.5923 -1.5339
14664SOL     OW45432   2.901   1.532   9.601 -0.2655 -0.3897  0.2499
14664SOL    HW145433   2.869   1.585   9.529 -0.0001  0.9690  1.0907
14664SOL    HW245434   2.896   1.442   9.569 -0.8165  0.1230 -1.1838
14665SOL     OW45435   0.721   2.131   4.737 -0.6069  0.1035  0.1542
14665SOL    HW145436   0.725   2.047   4.782  1.7869 -0.1669 -0.4191
14665SOL    HW245437   0.764   2.116   4.653 -1.2200  1.6249 -0.4785
14666SOL     OW45438   7.422   3.336   0.459  0.7678 -0.1905  0.3899
14666SOL    HW145439   7.418   3.429   0.440 -1.8625  0.0935  1.8870
14666SOL    HW245440   7.506   3.325   0.505  2.0128  1.0138 -1.4492
14667SOL     OW45441   4.960   4.924   9.595  0.1296 -0.3969  0.1375
14667SOL    HW145442   5.050   4.909   9.567  0.0751 -0.3506 -0.0638
14667SOL    HW245443   4.955   4.888   9.684  0.1881 -0.9150 -0.0720
14668SOL     OW45444   4.586   0.657   3.035  0.4133  0.0320  0.1393
14668SOL    HW145445   4.622   0.679   2.949 -0.1824  0.0160 -0.1253
14668SOL    HW245446   4.600   0.735   3.088 -0.2577  0.4849 -0.3243
14669SOL     OW45447   2.330   1.891   6.433  0.2347  1.0746  0.0054
14669SOL    HW145448   2.414   1.845   6.422  0.7850  1.9403  0.4701
14669SOL    HW245449   2.304   1.914   6.344 -1.5135 -2.5727 -0.6032
14670SOL     OW45450   5.771   7.257   3.913  0.3924 -0.2595  0.3637
14670SOL    HW145451   5.738   7.332   3.963  1.1807 -0.7091  1.6043
14670SOL    HW245452   5.710   7.249   3.839 -0.7341  0.5146  1.1682
14671SOL     OW45453   2.036   3.044   2.687 -0.4824 -0.7458  0.6259
14671SOL    HW145454   2.046   3.058   2.781  0.0820  0.1568  0.4471
14671SOL    HW245455   1.953   3.087   2.665 -0.2868 -0.3738  0.6051
14672SOL     OW45456   4.417   4.318   1.792  0.0242 -0.1177 -0.2975
14672SOL    HW145457   4.465   4.271   1.861  0.9529  0.9949 -0.1597
14672SOL    HW245458   4.391   4.249   1.731  0.7337 -0.9049  0.2519
14673SOL     OW45459   3.239   4.332   4.123  0.6465 -0.0095  0.0193
14673SOL    HW145460   3.196   4.282   4.054 -1.5082 -2.3263  2.7659
14673SOL    HW245461   3.325   4.292   4.133 -0.0771 -1.5429  0.4259
14674SOL     OW45462   4.463   2.722   3.585  0.5546 -0.0329 -0.0851
14674SOL    HW145463   4.370   2.699   3.589  0.6615 -0.4117  0.3042
14674SOL    HW245464   4.496   2.676   3.508  0.8314 -1.4522  0.8485
14675SOL     OW45465   1.063   4.684   9.332  0.3064 -0.2135 -0.5413
14675SOL    HW145466   1.002   4.732   9.275  0.4630 -0.2212 -0.7176
14675SOL    HW245467   1.042   4.715   9.420 -1.0825 -1.4470 -0.4021
14676SOL     OW45468   7.778   3.188   4.977 -0.2582 -0.1059 -0.1471
14676SOL    HW145469   7.690   3.225   4.975 -1.1054 -1.9842 -0.2043
14676SOL    HW245470   7.807   3.190   4.886  0.7384  2.5699  0.1493
14677SOL     OW45471   6.160   7.755   1.654 -0.0890 -0.0316  0.0290
14677SOL    HW145472   6.244   7.753   1.610 -0.4146 -0.9987 -0.5732
14677SOL    HW245473   6.182   7.758   1.748  0.6031  2.1936 -0.1422
14678SOL     OW45474   1.098   6.943   2.078 -0.0776  0.4801  0.0103
14678SOL    HW145475   1.115   6.852   2.102  2.8794  0.7286 -0.7459
14678SOL    HW245476   1.050   6.937   1.995  0.2085 -0.4002 -0.1064
14679SOL     OW45477   5.277   0.431   2.934  0.5456  0.0314  0.5808
14679SOL    HW145478   5.336   0.446   3.008  2.1893 -1.0526 -0.4527
14679SOL    HW245479   5.326   0.461   2.858  0.0417 -1.4791 -0.3799
14680SOL     OW45480   4.968   3.533  11.488 -0.2017 -0.0513  0.4772
14680SOL    HW145481   4.932   3.594  11.423 -0.3905 -0.2015  0.4389
14680SOL    HW245482   4.982   3.587  11.566  1.8797  0.5882 -0.2666
14681SOL     OW45483   1.872   4.795   1.840 -0.0488 -0.7730 -0.0248
14681SOL    HW145484   1.783   4.766   1.855 -0.7487  0.6058 -1.2088
14681SOL    HW245485   1.921   4.764   1.916 -1.5397 -1.5026  0.6757
14682SOL     OW45486   4.300   2.136   0.810 -0.2186  0.2930 -0.0243
14682SOL    HW145487   4.379   2.139   0.864 -0.7914  0.2848  0.8380
14682SOL    HW245488   4.289   2.225   0.777  0.6455  0.0893 -0.9026
14683SOL     OW45489   5.553   5.645  11.030 -0.4895 -0.6460 -0.4073
14683SOL    HW145490   5.636   5.598  11.040 -1.2055 -1.6288  1.5107
14683SOL    HW245491   5.568   5.728  11.074 -1.0818 -1.6495  1.8379
14684SOL     OW45492   4.917   5.352   8.511 -0.2293 -0.9992 -0.1794
14684SOL    HW145493   4.929   5.261   8.535  1.1004 -1.1774 -1.4164
14684SOL    HW245494   4.993   5.397   8.548 -1.4179 -0.1557  1.3767
14685SOL     OW45495   5.386   7.554   1.827 -0.4806  0.4578  0.2397
14685SOL    HW145496   5.330   7.599   1.891 -0.2377  0.0052  0.7800
14685SOL    HW245497   5.462   7.525   1.878 -1.9777 -3.2954  0.6658
14686SOL     OW45498   0.375   1.443   0.556 -0.6442 -0.6071  0.6538
14686SOL    HW145499   0.320   1.366   0.539 -1.9942  0.7462 -1.4972
14686SOL    HW245500   0.399   1.475   0.470  1.1610  0.5634  1.5300
14687SOL     OW45501   1.209   4.041   2.792 -0.0302  0.1315 -0.1990
14687SOL    HW145502   1.163   4.101   2.851 -0.2046  0.1544 -0.3576
14687SOL    HW245503   1.257   4.098   2.732 -0.2032  0.1160 -0.3558
14688SOL     OW45504   0.243   1.398   2.741  0.2160  0.1588 -0.4284
14688SOL    HW145505   0.295   1.453   2.799 -1.4771  1.5350 -0.1472
14688SOL    HW245506   0.185   1.349   2.799  0.0508 -0.1296 -0.8332
14689SOL     OW45507   2.125   2.978  11.958 -0.0864  0.6499  0.2799
14689SOL    HW145508   2.200   2.930  11.994 -0.8349 -0.5895  0.2382
14689SOL    HW245509   2.115   2.943  11.870 -0.4357  1.1428  0.1222
14690SOL     OW45510   5.468   2.801   9.687  0.1915 -0.1302  0.6180
14690SOL    HW145511   5.521   2.755   9.622 -1.5233 -0.7424 -0.4051
14690SOL    HW245512   5.501   2.891   9.687  0.1392 -0.0919 -1.2172
14691SOL     OW45513   7.410   6.251   1.359 -0.3314 -0.0110  0.0627
14691SOL    HW145514   7.354   6.224   1.432  0.5353 -2.1793  0.0150
14691SOL    HW245515   7.497   6.262   1.399 -0.3477  1.2928 -0.2215
14692SOL     OW45516   7.122   6.738   0.570 -0.2118 -0.5275  0.6427
14692SOL    HW145517   7.155   6.732   0.480 -2.1803  1.1268 -0.2454
14692SOL    HW245518   7.071   6.658   0.582 -2.4260  0.5465 -0.8583
14693SOL     OW45519   1.792   0.190   5.534  0.6112  0.8613 -0.0995
14693SOL    HW145520   1.782   0.097   5.557  0.1317  0.7767 -0.6165
14693SOL    HW245521   1.771   0.194   5.441 -2.3227  1.9107  0.5010
14694SOL     OW45522   4.263   3.361  11.820  0.4736  0.1842  0.1713
14694SOL    HW145523   4.318   3.362  11.898  1.7547  0.4444 -0.7153
14694SOL    HW245524   4.282   3.443  11.775 -0.0411 -0.0838 -0.5610
14695SOL     OW45525   6.716   2.617   6.913  0.5788  0.7241 -0.2043
14695SOL    HW145526   6.628   2.647   6.936  0.7656  0.9220  0.2832
14695SOL    HW245527   6.702   2.547   6.850  0.0422  0.3202  0.3453
14696SOL     OW45528   5.003   6.701   1.507 -0.7854 -0.1677  0.0371
14696SOL    HW145529   4.918   6.679   1.545 -1.4053 -1.3789 -1.9174
14696SOL    HW245530   5.049   6.617   1.501 -0.4765  0.0654 -1.2210
14697SOL     OW45531   0.905   4.844   7.195 -0.1035 -0.1780  0.2616
14697SOL    HW145532   0.834   4.877   7.139 -0.4481 -0.4673  0.5209
14697SOL    HW245533   0.938   4.921   7.241 -1.5023 -0.2873  1.5416
14698SOL     OW45534   7.976   7.060  11.868 -0.5104  0.0831  0.1060
14698SOL    HW145535   7.901   7.118  11.851 -2.1251 -1.2947  2.0703
14698SOL    HW245536   8.037   7.114  11.918 -0.8973  0.7626 -0.1376
14699SOL     OW45537   7.590   0.706   0.451 -0.6938 -0.4780  0.1899
14699SOL    HW145538   7.672   0.676   0.410 -0.7732  1.4868 -1.5155
14699SOL    HW245539   7.531   0.722   0.378 -2.2902 -0.8387  1.3499
14700SOL     OW45540   2.595   0.415  12.344 -0.7150 -0.6030 -0.0956
14700SOL    HW145541   2.605   0.371  12.259 -1.4502  0.0765 -0.5526
14700SOL    HW245542   2.636   0.501  12.330  1.5234 -1.3947  1.0561
14701SOL     OW45543   4.705   4.986  11.947 -0.1513 -0.2665 -0.5424
14701SOL    HW145544   4.621   4.977  11.902 -0.2628  0.2071 -0.4354
14701SOL    HW245545   4.682   5.003  12.038  0.0621  0.0715 -0.5519
14702SOL     OW45546   6.117   1.531  11.638 -0.2867 -0.3965 -0.6849
14702SOL    HW145547   6.192   1.507  11.583  0.8886  0.8449  0.3033
14702SOL    HW245548   6.118   1.467  11.710 -0.6172 -0.7992 -1.0299
14703SOL     OW45549   1.699   5.155   5.165 -0.2109 -0.0442 -0.1724
14703SOL    HW145550   1.661   5.236   5.133  0.8424  0.2686 -0.6768
14703SOL    HW245551   1.642   5.086   5.130 -0.7416  0.4508 -0.2808
14704SOL     OW45552   2.052   1.559   4.818 -0.2619 -0.3837 -0.4608
14704SOL    HW145553   2.005   1.560   4.901  0.9653 -0.1826  0.2545
14704SOL    HW245554   2.050   1.468   4.790 -1.5632 -0.2812 -0.7424
14705SOL     OW45555   5.911   7.494  11.903  0.4711  0.1122  0.1845
14705SOL    HW145556   5.948   7.485  11.815  0.9030  0.3305  0.3413
14705SOL    HW245557   5.879   7.406  11.924  1.5975 -0.2678  0.3494
14706SOL     OW45558   0.157   2.257   9.548  0.0486 -0.2578 -0.9529
14706SOL    HW145559   0.174   2.268   9.454  0.1905  0.2462 -0.8713
14706SOL    HW245560   0.235   2.291   9.591 -0.6066  0.8975 -0.6151
14707SOL     OW45561   3.748   7.884   9.010 -0.2567  0.3601  0.4185
14707SOL    HW145562   3.682   7.954   9.014 -2.4094 -1.5658  0.3278
14707SOL    HW245563   3.824   7.920   9.056 -1.2071  2.7982  0.2263
14708SOL     OW45564   4.928   1.602  12.420 -0.1541  0.0313  0.1057
14708SOL    HW145565   4.890   1.515  12.428 -0.5916  0.2758  0.7981
14708SOL    HW245566   4.983   1.612  12.497  0.2899  0.1803 -0.2283
14709SOL     OW45567   4.210   5.901   4.843  0.6120 -0.2453  0.0195
14709SOL    HW145568   4.203   5.948   4.926  0.2904  0.9186 -0.6393
14709SOL    HW245569   4.125   5.860   4.831  0.3192  0.3991 -0.1833
14710SOL     OW45570   6.255   3.203   2.182  0.1818  0.2392  0.1417
14710SOL    HW145571   6.333   3.255   2.161 -0.5080  0.8749 -0.9425
14710SOL    HW245572   6.201   3.208   2.103 -0.1768 -1.6518  0.2369
14711SOL     OW45573   5.431   5.674   0.585  0.3556  0.0894  0.3052
14711SOL    HW145574   5.507   5.619   0.605  0.2080 -0.3573 -0.3215
14711SOL    HW245575   5.394   5.636   0.505  1.1168  1.9796 -1.0217
14712SOL     OW45576   6.301   6.980   5.252  0.1582  0.1387  0.2356
14712SOL    HW145577   6.289   6.995   5.345 -0.1001 -1.7588  0.5421
14712SOL    HW245578   6.223   6.931   5.225  1.8896 -2.6569 -0.1103
14713SOL     OW45579   7.851   0.766   2.945 -0.0451 -0.2888 -0.5400
14713SOL    HW145580   7.870   0.672   2.943 -2.3733 -0.8084 -0.5565
14713SOL    HW245581   7.769   0.775   2.897  0.0388  1.7436 -0.3774
14714SOL     OW45582   2.925   3.752   9.433  0.0250 -0.5624  0.0620
14714SOL    HW145583   3.019   3.767   9.437  0.1014 -1.2471  2.1984
14714SOL    HW245584   2.886   3.839   9.440  0.5194 -0.4336  1.7197
14715SOL     OW45585   6.845   4.287   8.789  0.3710 -0.7491 -0.0821
14715SOL    HW145586   6.887   4.216   8.740  0.6948 -0.3211 -0.4456
14715SOL    HW245587   6.889   4.287   8.874  1.0537 -0.3690 -0.4240
14716SOL     OW45588   0.925   2.432   0.162  0.4350 -0.0645  0.7178
14716SOL    HW145589   0.862   2.364   0.139  1.0322 -0.7822  1.1665
14716SOL    HW245590   0.936   2.424   0.257 -0.3415  1.4166  0.9776
14717SOL     OW45591   1.708   4.983   3.662 -0.3899  0.2698  0.7242
14717SOL    HW145592   1.745   4.960   3.577  0.5262 -0.8833  1.4122
14717SOL    HW245593   1.629   4.929   3.670  0.0601 -0.3497  1.0162
14718SOL     OW45594   6.406   1.196   9.867 -0.3261 -0.5483  0.2722
14718SOL    HW145595   6.469   1.142   9.820 -0.4338 -0.6830  0.2816
14718SOL    HW245596   6.323   1.149   9.859 -0.6866  0.2315 -0.7791
14719SOL     OW45597   6.794   2.914   6.241  0.7029 -0.0158  0.6928
14719SOL    HW145598   6.706   2.919   6.278  1.0346  2.2161  1.3128
14719SOL    HW245599   6.824   3.004   6.238  2.4084 -0.5690 -0.9603
14720SOL     OW45600   7.052   2.103   2.091  0.0734  0.6000  0.4862
14720SOL    HW145601   7.070   2.009   2.094  1.7501  0.9144  1.2023
14720SOL    HW245602   6.963   2.109   2.055  0.9587 -1.1546 -2.3614
14721SOL     OW45603   3.922   0.402   6.994  0.1147 -0.5076  0.2971
14721SOL    HW145604   3.913   0.429   6.902  0.4387 -0.5505  0.2512
14721SOL    HW245605   3.860   0.330   7.003  0.2473 -0.6555  0.0485
14722SOL     OW45606   0.666   6.305   2.273 -0.1541  1.0299 -0.3381
14722SOL    HW145607   0.718   6.382   2.251  0.1067  1.0049  0.1846
14722SOL    HW245608   0.601   6.337   2.335 -0.2299  0.8855 -0.3425
14723SOL     OW45609   0.798   7.780   1.196 -0.2451 -0.2657 -0.3348
14723SOL    HW145610   0.727   7.725   1.164 -2.6186  0.8704  2.4809
14723SOL    HW245611   0.774   7.869   1.168  0.3218  0.0550  0.1698
14724SOL     OW45612   7.582   0.835   7.422 -0.3750  0.5152 -0.3107
14724SOL    HW145613   7.497   0.878   7.430  0.1271  1.3146  1.1085
14724SOL    HW245614   7.645   0.907   7.422  0.3393 -0.0955 -0.7645
14725SOL     OW45615   7.057   4.297   1.438  0.2307 -0.0485  0.0388
14725SOL    HW145616   7.060   4.308   1.343  1.1736  0.0605  0.0685
14725SOL    HW245617   6.993   4.362   1.468 -0.3941 -0.3788 -0.5548
14726SOL     OW45618   6.085   0.875   2.849 -0.4157  0.2053 -0.2487
14726SOL    HW145619   6.044   0.884   2.763 -1.3224  0.6993  0.2230
14726SOL    HW245620   6.043   0.799   2.888  0.0182 -0.0392 -0.2428
14727SOL     OW45621   1.695   7.391   0.048  0.1725  0.1195 -0.8067
14727SOL    HW145622   1.733   7.430  -0.031  0.7804  2.9616  0.7432
14727SOL    HW245623   1.745   7.310   0.060  0.9242  0.2560 -2.6225
14728SOL     OW45624   7.200   6.457   9.096 -0.0768  0.0791 -0.0759
14728SOL    HW145625   7.137   6.422   9.159 -0.2600  1.9993  0.8811
14728SOL    HW245626   7.285   6.428   9.129 -0.2986 -0.5187 -0.0251
14729SOL     OW45627   3.848   7.435   0.966  0.1333  0.1265 -0.2615
14729SOL    HW145628   3.781   7.503   0.968 -0.1490 -0.1292 -0.8000
14729SOL    HW245629   3.930   7.481   0.978 -0.0698  0.5502 -0.4907
14730SOL     OW45630   6.898   2.617   2.328  0.0967 -0.3546 -0.2680
14730SOL    HW145631   6.817   2.666   2.315 -0.5686 -1.1424  0.7446
14730SOL    HW245632   6.871   2.540   2.377  1.7567  0.3376  1.8529
14731SOL     OW45633   1.578   1.589  10.684 -0.2419  0.0318 -0.2488
14731SOL    HW145634   1.512   1.542  10.634 -0.4271  0.4846 -0.4213
14731SOL    HW245635   1.620   1.647  10.621 -0.3583  0.4764  0.0811
14732SOL     OW45636   3.005   0.436   9.045 -0.6053 -0.2722  0.0916
14732SOL    HW145637   3.003   0.516   9.098 -0.2015 -0.8234  0.9615
14732SOL    HW245638   2.978   0.464   8.957  0.0634  0.9187  0.2511
14733SOL     OW45639   2.723   7.837   0.880  0.7900 -0.0200  0.1483
14733SOL    HW145640   2.636   7.867   0.906  0.8391 -0.9595  1.4616
14733SOL    HW245641   2.715   7.742   0.875  1.9147 -0.1746  0.9866
14734SOL     OW45642   2.629   7.417   7.204 -0.3975 -0.1000  0.0706
14734SOL    HW145643   2.546   7.371   7.218 -0.7947  0.8505  1.0248
14734SOL    HW245644   2.696   7.353   7.226 -0.8917 -0.6817 -0.0814
14735SOL     OW45645   7.938   0.391  10.144  0.3424 -0.1867 -0.2127
14735SOL    HW145646   7.972   0.420  10.228 -1.1321  0.5029  0.1926
14735SOL    HW245647   7.909   0.301  10.159  0.0620 -0.0577  0.0316
14736SOL     OW45648   4.719   2.453   5.082 -0.7495 -0.0022  0.3847
14736SOL    HW145649   4.692   2.364   5.103 -2.3565  0.5876  0.9624
14736SOL    HW245650   4.793   2.442   5.022 -2.3688 -1.7594 -1.4494
14737SOL     OW45651   7.442   1.550   7.283  0.3587  0.5563 -0.4087
14737SOL    HW145652   7.398   1.627   7.248  1.0059  1.9459  1.6610
14737SOL    HW245653   7.370   1.489   7.302 -0.4962  1.8745  0.7822
14738SOL     OW45654   1.787   5.149   2.626  0.2641  0.4366  0.4398
14738SOL    HW145655   1.826   5.079   2.678 -0.1693  1.3582  2.0967
14738SOL    HW245656   1.717   5.184   2.682  0.7049  2.4206 -0.1505
14739SOL     OW45657   4.132   4.382   1.338 -0.1915  0.5200  0.0407
14739SOL    HW145658   4.128   4.373   1.433  1.1495 -2.6829 -0.0848
14739SOL    HW245659   4.205   4.327   1.311 -1.2741  0.3412 -2.9616
14740SOL     OW45660   4.328   4.755   1.895 -0.1476 -0.0828  0.7302
14740SOL    HW145661   4.392   4.698   1.937 -0.8546 -1.7957 -0.4501
14740SOL    HW245662   4.369   4.842   1.897  3.1717 -1.3979 -1.7410
14741SOL     OW45663   4.350   6.040   6.706 -0.4251 -0.3909 -0.6348
14741SOL    HW145664   4.284   6.017   6.772 -1.0504 -1.5277 -1.6244
14741SOL    HW245665   4.327   5.987   6.630  2.2484 -1.6358 -0.6835
14742SOL     OW45666   0.097   6.703   2.648  0.4894 -0.1203 -0.4968
14742SOL    HW145667   0.015   6.680   2.692  1.0999 -1.2486  0.0839
14742SOL    HW245668   0.084   6.793   2.620 -1.2893 -0.5519 -1.1951
14743SOL     OW45669   1.242   4.158   4.559 -0.0780 -0.0796  0.5849
14743SOL    HW145670   1.309   4.123   4.499 -1.1694  0.8440 -1.2576
14743SOL    HW245671   1.202   4.080   4.598  0.6529 -0.7063  0.1156
14744SOL     OW45672   3.113   3.322   9.183  0.3612  0.1177 -0.1042
14744SOL    HW145673   3.099   3.303   9.091  1.2039  1.7823 -0.6057
14744SOL    HW245674   3.046   3.387   9.205  0.2371 -0.1806  0.4291
14745SOL     OW45675   4.496   4.638   9.918  0.3203  0.4748  0.1229
14745SOL    HW145676   4.476   4.662   9.827 -0.7273  0.1455  0.2571
14745SOL    HW245677   4.546   4.557   9.911 -1.0356 -0.3748 -0.1263
14746SOL     OW45678   4.256   5.661   0.990  0.1200  0.0099 -0.1746
14746SOL    HW145679   4.262   5.574   1.029  0.2860 -0.1432 -0.5469
14746SOL    HW245680   4.306   5.717   1.050 -1.6020  0.2302  1.1422
14747SOL     OW45681   4.204   5.457   0.208 -0.1345  0.6151  0.0218
14747SOL    HW145682   4.250   5.377   0.182 -0.4584  0.3557  0.2442
14747SOL    HW245683   4.160   5.487   0.128 -0.5262  0.2242  0.0902
14748SOL     OW45684   7.340   6.277   9.920  0.9985  0.0798  0.3995
14748SOL    HW145685   7.246   6.266   9.932  1.1363  0.0338  1.6287
14748SOL    HW245686   7.369   6.194   9.882  0.5238  0.1634 -0.1583
14749SOL     OW45687   1.080   3.378  12.360 -0.7210 -0.1400 -0.0178
14749SOL    HW145688   1.149   3.439  12.387 -1.2194  0.8696 -0.9264
14749SOL    HW245689   1.003   3.434  12.347 -1.5460 -1.1541  0.3353
14750SOL     OW45690   5.365   5.755  10.241  0.4438 -0.0310 -0.5538
14750SOL    HW145691   5.454   5.726  10.220 -0.2507 -1.0931 -2.2225
14750SOL    HW245692   5.366   5.849  10.223  0.8209 -0.3144 -2.2428
14751SOL     OW45693   6.840   6.001   9.003 -0.1796 -0.3317 -0.0430
14751SOL    HW145694   6.892   6.071   9.043  0.0390 -0.7594  0.4299
14751SOL    HW245695   6.905   5.936   8.975 -0.5029 -1.4445  1.6497
14752SOL     OW45696   7.225   7.483   3.430 -0.0213  0.2749 -0.3260
14752SOL    HW145697   7.159   7.449   3.370  2.0522 -0.3693 -2.4041
14752SOL    HW245698   7.302   7.428   3.415  1.3489  1.6513  1.1956
14753SOL     OW45699   1.312   6.252  11.852 -0.5249 -0.4455  0.1915
14753SOL    HW145700   1.272   6.166  11.842  2.2873 -2.2117  2.4569
14753SOL    HW245701   1.268   6.292  11.927 -1.4101 -0.1182 -0.4827
14754SOL     OW45702   2.794   2.618   2.447 -0.4000 -0.2866  0.2318
14754SOL    HW145703   2.742   2.562   2.389 -0.9479 -0.5508  0.9497
14754SOL    HW245704   2.877   2.630   2.402 -0.1631 -1.9311  0.1971
14755SOL     OW45705   0.130   4.414   0.921  0.4765 -0.0634 -0.3395
14755SOL    HW145706   0.200   4.372   0.871 -0.2048 -1.7026  0.0371
14755SOL    HW245707   0.136   4.376   1.008  0.0934  0.9589  0.1571
14756SOL     OW45708   2.716   0.446   0.878 -0.0811 -0.3575  0.1543
14756SOL    HW145709   2.677   0.532   0.867 -0.4243 -0.4600  0.5539
14756SOL    HW245710   2.808   0.464   0.900 -0.0859 -0.1037 -0.0333
14757SOL     OW45711   4.322   1.718   8.407  0.2020 -0.1592 -0.7095
14757SOL    HW145712   4.270   1.670   8.471 -0.9158  0.2387 -1.3000
14757SOL    HW245713   4.405   1.735   8.452 -1.3795  2.2907  1.6124
14758SOL     OW45714   2.027   0.919   4.444  0.0825 -0.0554  0.1662
14758SOL    HW145715   2.070   0.834   4.434 -0.1457 -0.0145 -1.3219
14758SOL    HW245716   1.934   0.900   4.431 -0.1759  0.1455  1.5972
14759SOL     OW45717   0.545   1.969   9.496  0.0468  0.1989  0.3324
14759SOL    HW145718   0.612   2.015   9.547 -1.1970  1.9483  0.4435
14759SOL    HW245719   0.492   1.925   9.562  1.2355 -1.5011  0.2261
14760SOL     OW45720   3.639   5.841  10.337 -0.1544 -0.2252  0.4268
14760SOL    HW145721   3.549   5.807  10.332  0.3393 -1.4373 -1.9157
14760SOL    HW245722   3.689   5.769  10.375 -0.1266  0.4270  1.6669
14761SOL     OW45723   1.282   0.524   2.658 -0.7355 -0.0555  0.2176
14761SOL    HW145724   1.203   0.518   2.604 -0.5726  0.5004 -0.1044
14761SOL    HW245725   1.259   0.483   2.741 -1.7024  1.0140  0.4984
14762SOL     OW45726   4.038   5.533   3.126  0.1937  0.1517 -0.1376
14762SOL    HW145727   4.107   5.590   3.093 -0.2598  1.0396  0.3921
14762SOL    HW245728   4.080   5.448   3.139  1.0069  0.4942 -0.4730
14763SOL     OW45729   0.609   5.225   4.980 -0.0111 -0.6022 -0.0659
14763SOL    HW145730   0.611   5.167   5.056  0.0948 -1.0827 -0.4301
14763SOL    HW245731   0.552   5.180   4.917 -0.5314  0.0481 -0.0713
14764SOL     OW45732   2.455   0.801   7.045  0.2389 -0.2928  0.2295
14764SOL    HW145733   2.398   0.877   7.032  2.0361  1.2501  0.8759
14764SOL    HW245734   2.398   0.726   7.030 -1.3683  1.1613 -1.5548
14765SOL     OW45735   3.193   2.259  12.240 -0.0621 -0.0172  0.0569
14765SOL    HW145736   3.200   2.350  12.270  0.8610  0.4391 -1.3883
14765SOL    HW245737   3.102   2.250  12.213 -0.1293  0.5379  0.0840
14766SOL     OW45738   4.853   4.903   3.444 -0.1552 -0.1120  0.0704
14766SOL    HW145739   4.839   4.815   3.411  0.4907  0.4471 -1.8596
14766SOL    HW245740   4.948   4.914   3.444 -0.2371  0.7287 -0.2000
14767SOL     OW45741   4.292   2.906   4.128 -0.3266 -0.5167  0.6281
14767SOL    HW145742   4.231   2.972   4.162 -0.6167 -0.9362  0.9323
14767SOL    HW245743   4.373   2.922   4.177 -0.6536 -0.9262  1.3244
14768SOL     OW45744   6.552   7.879   7.490 -0.0554 -0.0409  0.5627
14768SOL    HW145745   6.621   7.913   7.546 -0.5188  1.1190  0.4615
14768SOL    HW245746   6.598   7.836   7.418  0.5798  0.7602  0.4701
14769SOL     OW45747   6.915   4.998   5.619 -0.3168 -0.4087 -0.5055
14769SOL    HW145748   6.866   4.921   5.591 -0.7251  0.0908 -1.1798
14769SOL    HW245749   6.971   5.020   5.545 -0.7236  0.3654 -0.5992
14770SOL     OW45750   2.298   6.607   2.279  0.3638 -0.1274 -0.0663
14770SOL    HW145751   2.346   6.659   2.215  0.5576 -0.3644 -0.1134
14770SOL    HW245752   2.235   6.668   2.317  1.3747  0.4497  0.7257
14771SOL     OW45753   4.141   3.737   7.466 -0.0614  0.4258 -0.1617
14771SOL    HW145754   4.179   3.738   7.378 -1.1617  0.6307 -0.6525
14771SOL    HW245755   4.106   3.649   7.476 -0.3561  0.5457 -0.1227
14772SOL     OW45756   2.196   4.917   6.452 -0.7101  0.0622  0.0114
14772SOL    HW145757   2.171   4.983   6.387 -0.2147 -0.2152 -0.4668
14772SOL    HW245758   2.126   4.851   6.448 -1.2735  0.6044  0.5801
14773SOL     OW45759   5.929   4.555   9.925 -0.4503 -0.0190 -0.0587
14773SOL    HW145760   5.863   4.491   9.952 -0.2311 -1.0465 -1.8203
14773SOL    HW245761   5.970   4.517   9.848  2.8541  0.1562  1.4104
14774SOL     OW45762   7.245   1.621   2.794 -0.2128  0.5003  0.3317
14774SOL    HW145763   7.294   1.703   2.786  1.7937 -0.6870 -0.3067
14774SOL    HW245764   7.172   1.631   2.732 -0.1512  1.8664  0.4377
14775SOL     OW45765   2.028   6.512  10.070 -0.2704 -0.0081 -0.3956
14775SOL    HW145766   2.122   6.492  10.065  0.1981  1.2848  1.9782
14775SOL    HW245767   2.009   6.559   9.989  1.4922  1.0236 -0.2536
14776SOL     OW45768   0.479   5.038   0.632  0.9026  0.2435 -0.4084
14776SOL    HW145769   0.445   5.067   0.547  1.5733  1.0020 -0.4277
14776SOL    HW245770   0.402   5.033   0.688  0.4506 -0.2681 -1.0603
14777SOL     OW45771   0.157   3.000   6.772 -0.1131 -0.3456 -0.6689
14777SOL    HW145772   0.143   3.012   6.678 -1.2185 -1.0909 -0.6207
14777SOL    HW245773   0.113   2.917   6.792  0.2371 -0.2688  0.4781
14778SOL     OW45774   4.966   7.886  10.363  0.8976  0.0332  0.6401
14778SOL    HW145775   4.963   7.928  10.277 -0.8055 -0.7698  0.2704
14778SOL    HW245776   4.968   7.959  10.425  1.5880  0.6196 -0.0410
14779SOL     OW45777   2.479   5.930   9.814  0.5001  0.2146 -0.1580
14779SOL    HW145778   2.572   5.917   9.800  0.5364 -0.5117  0.6263
14779SOL    HW245779   2.442   5.841   9.810  0.4285 -0.0395  3.2833
14780SOL     OW45780   5.966   0.405   0.070  0.2967  0.2712  0.3776
14780SOL    HW145781   5.995   0.459   0.144 -0.9943  0.3051  0.8835
14780SOL    HW245782   5.974   0.315   0.102  2.2701  0.1196 -0.4009
14781SOL     OW45783   0.115   0.947   3.780  0.0999  0.2587  0.1503
14781SOL    HW145784   0.150   1.029   3.816 -0.7128 -0.1491  1.9626
14781SOL    HW245785   0.026   0.941   3.815  0.0244 -1.2148 -0.2367
14782SOL     OW45786   4.810   3.060   2.820  0.6489 -0.3629 -0.4212
14782SOL    HW145787   4.873   3.106   2.876 -2.2208  1.2407  1.7374
14782SOL    HW245788   4.811   3.109   2.738  1.0803  0.6363  0.1546
14783SOL     OW45789   7.246   0.329   5.030 -0.5217 -0.0296  0.1538
14783SOL    HW145790   7.332   0.344   5.070  0.3749 -1.1506 -1.2308
14783SOL    HW245791   7.211   0.253   5.077  0.1421 -0.8032 -0.5712
14784SOL     OW45792   7.966   3.746  10.156 -0.4241  0.1033  0.0077
14784SOL    HW145793   8.032   3.713  10.218 -0.9426  0.6855  0.8950
14784SOL    HW245794   7.975   3.841  10.160  1.2385  0.1621 -2.7262
14785SOL     OW45795   2.717   4.790   7.584  0.2831  0.2632  0.1385
14785SOL    HW145796   2.705   4.800   7.489 -1.3332  0.9802  0.3868
14785SOL    HW245797   2.776   4.861   7.608  0.1491  0.5025 -0.2327
14786SOL     OW45798   4.272   5.367   0.521  0.4685  0.0401  0.1874
14786SOL    HW145799   4.334   5.439   0.528 -0.8279  1.2060  0.2338
14786SOL    HW245800   4.326   5.289   0.512  1.9286  0.8734  1.3672
14787SOL     OW45801   5.583   5.754   1.211 -0.1276 -0.0715  0.0378
14787SOL    HW145802   5.625   5.764   1.296 -1.4208  1.1297  0.5743
14787SOL    HW245803   5.652   5.772   1.147  0.9249 -1.2588  0.7990
14788SOL     OW45804   1.953   2.091   1.063 -0.2000  0.8170  0.1325
14788SOL    HW145805   2.027   2.149   1.082 -1.4067  2.4104  0.2361
14788SOL    HW245806   1.980   2.006   1.096  1.5239  1.3859  0.2938
14789SOL     OW45807   6.628   0.271   7.195  0.0664  0.6669 -0.2260
14789SOL    HW145808   6.565   0.251   7.126  0.3814  0.8707 -0.5723
14789SOL    HW245809   6.702   0.214   7.177  0.0764  0.5939  0.0482
14790SOL     OW45810   2.510   4.959   4.782 -0.0339 -0.0878 -0.2950
14790SOL    HW145811   2.433   4.988   4.733 -0.1237  0.4657  0.1666
14790SOL    HW245812   2.555   5.040   4.807  0.6008 -0.3997 -0.3977
14791SOL     OW45813   4.433   6.403   8.657 -0.9734 -0.2103  0.6758
14791SOL    HW145814   4.403   6.330   8.603 -0.1741 -1.0393  1.3032
14791SOL    HW245815   4.428   6.370   8.747 -2.9105  1.3699  1.2150
14792SOL     OW45816   4.845   2.643   4.298  0.5240  0.0044  0.6376
14792SOL    HW145817   4.803   2.722   4.265  0.8303  0.0814  0.4296
14792SOL    HW245818   4.831   2.646   4.393 -1.9476 -1.1269  0.3918
14793SOL     OW45819   3.022   4.994   8.539 -0.0472 -0.0673 -0.3857
14793SOL    HW145820   3.107   4.951   8.534 -1.3605 -2.9800 -0.0539
14793SOL    HW245821   2.972   4.940   8.600 -2.3470  1.1683 -1.0685
14794SOL     OW45822   7.325   6.592   9.604 -0.1161  0.1703 -0.1753
14794SOL    HW145823   7.371   6.578   9.687  1.8361 -0.2956 -1.2670
14794SOL    HW245824   7.256   6.526   9.602 -0.0189  0.0234  0.9558
14795SOL     OW45825   5.651   1.766   0.667 -0.5167  0.1024  0.1553
14795SOL    HW145826   5.629   1.714   0.590  0.1216 -1.2790  0.8719
14795SOL    HW245827   5.569   1.770   0.717 -1.3919  2.3748 -1.2892
14796SOL     OW45828   0.666   7.285   8.257 -0.2838 -0.2075  0.3787
14796SOL    HW145829   0.622   7.218   8.309 -0.5786 -0.0748  0.3025
14796SOL    HW245830   0.647   7.368   8.301  0.5399 -0.2241  0.7835
14797SOL     OW45831   1.796   7.147   0.325  0.1269  0.0438  0.2673
14797SOL    HW145832   1.884   7.139   0.289  0.5518  0.1611  1.2540
14797SOL    HW245833   1.757   7.061   0.311  0.1860  0.1634 -0.6927
14798SOL     OW45834   3.431   4.794  11.606 -0.0119  0.2176 -0.4752
14798SOL    HW145835   3.350   4.844  11.599  0.1662  0.7484  0.9575
14798SOL    HW245836   3.409   4.720  11.663 -0.0867 -0.9880 -1.9990
14799SOL     OW45837   6.758   1.374   2.226  0.2467 -0.4725  0.2851
14799SOL    HW145838   6.743   1.448   2.167  0.5193  0.5559  1.4602
14799SOL    HW245839   6.853   1.374   2.239  0.2951 -1.2910 -0.0048
14800SOL     OW45840   6.980   5.603  10.196  0.0868 -0.0116 -0.0223
14800SOL    HW145841   7.001   5.509  10.193  1.2784  0.2633 -1.2866
14800SOL    HW245842   6.921   5.612  10.271 -0.1971 -1.8007  0.0164
14801SOL     OW45843   1.351   4.544  11.724  0.3904  0.3732 -0.0630
14801SOL    HW145844   1.384   4.500  11.803 -1.7509 -1.5236 -0.0942
14801SOL    HW245845   1.396   4.501  11.652  2.5719  2.3109  0.0283
14802SOL     OW45846   2.487   4.350   4.044 -0.4003 -0.4096  0.5858
14802SOL    HW145847   2.552   4.303   4.097 -0.3804 -0.1382  0.8071
14802SOL    HW245848   2.496   4.441   4.072  1.3643  0.1695 -1.6471
14803SOL     OW45849   0.722   6.817   5.812 -0.4979 -0.1577 -0.4084
14803SOL    HW145850   0.766   6.798   5.894 -0.0929 -3.0772 -1.1546
14803SOL    HW245851   0.678   6.900   5.826  0.8444  0.2025  2.1919
14804SOL     OW45852   2.445   5.714   5.371  0.0484 -0.2529  0.2374
14804SOL    HW145853   2.529   5.753   5.347 -0.5934  1.1200  0.1101
14804SOL    HW245854   2.393   5.787   5.403 -0.8028 -1.2315  1.1892
14805SOL     OW45855   2.684   4.654   2.577 -0.4448 -0.4910 -0.1464
14805SOL    HW145856   2.773   4.683   2.557 -0.5609 -0.9036 -1.3841
14805SOL    HW245857   2.652   4.716   2.643  1.0441 -0.8576  0.9588
14806SOL     OW45858   7.786   3.538   9.374  0.3507 -0.5820  0.5946
14806SOL    HW145859   7.829   3.462   9.412  1.0660 -1.1937 -1.3162
14806SOL    HW245860   7.780   3.601   9.446 -0.8134 -2.6220  2.4038
14807SOL     OW45861   3.500   2.124   1.781 -0.8801 -0.0163  0.2733
14807SOL    HW145862   3.495   2.034   1.747  0.5161 -0.5544  1.3999
14807SOL    HW245863   3.594   2.142   1.787 -1.0305  0.1880  3.4106
14808SOL     OW45864   3.081   1.397   7.231 -0.0966 -0.3899 -0.7079
14808SOL    HW145865   3.094   1.475   7.177 -0.0549  0.7895  0.9275
14808SOL    HW245866   3.016   1.423   7.296  0.7257 -1.3289  0.5555
14809SOL     OW45867   2.939   0.211   9.716 -0.1852 -0.2791 -0.1963
14809SOL    HW145868   2.933   0.239   9.625 -0.5701 -1.6537 -0.6179
14809SOL    HW245869   2.977   0.286   9.762 -0.3509  0.5767 -1.4113
14810SOL     OW45870   2.800   7.253   8.705  0.0648  0.4494  0.4346
14810SOL    HW145871   2.738   7.189   8.672  0.8540 -0.1439  0.0544
14810SOL    HW245872   2.885   7.224   8.670  0.7342  0.5668  1.8927
14811SOL     OW45873   1.586   1.849   5.187  0.1886 -0.2059 -0.2972
14811SOL    HW145874   1.585   1.819   5.278 -0.1640  1.6617  0.3591
14811SOL    HW245875   1.667   1.813   5.151  0.8266 -0.1698  1.0417
14812SOL     OW45876   2.629   3.295   7.934  0.0249  0.2295 -0.6882
14812SOL    HW145877   2.694   3.365   7.941  0.1031  0.0895  0.0689
14812SOL    HW245878   2.555   3.325   7.988 -0.4226  0.2551 -1.3056
14813SOL     OW45879   0.503   7.479   2.447 -0.0539  0.1084  0.1236
14813SOL    HW145880   0.485   7.432   2.528  0.0178 -0.9485 -0.4520
14813SOL    HW245881   0.593   7.455   2.425  1.3600  3.3910  1.6801
14814SOL     OW45882   0.677   3.382   3.194 -0.3485 -0.4630  0.1774
14814SOL    HW145883   0.619   3.416   3.261 -0.8185  1.6961 -1.2127
14814SOL    HW245884   0.672   3.446   3.123  1.9909 -1.3790 -0.9326
14815SOL     OW45885   0.862   1.080   0.673  0.2018 -0.0675 -0.0666
14815SOL    HW145886   0.804   1.005   0.659  1.1941 -0.8801  0.0636
14815SOL    HW245887   0.939   1.061   0.619  1.8193 -0.6992  2.3207
14816SOL     OW45888   0.272   0.877   0.779  0.3384 -0.6756 -0.1352
14816SOL    HW145889   0.352   0.879   0.831  0.5521  1.3534 -0.4732
14816SOL    HW245890   0.219   0.808   0.820  0.9139  0.1470  2.1281
14817SOL     OW45891   2.401   1.636   0.719  0.1855  0.1451  0.1724
14817SOL    HW145892   2.355   1.670   0.642 -0.6704 -0.6308  0.3291
14817SOL    HW245893   2.407   1.712   0.778  0.0978  0.5320 -0.3056
14818SOL     OW45894   0.393   7.716   2.497 -0.1070 -0.1863 -0.0561
14818SOL    HW145895   0.450   7.756   2.563  1.1764 -2.8736  0.6361
14818SOL    HW245896   0.440   7.637   2.470 -1.4327 -0.1289 -2.9337
14819SOL     OW45897   3.444   3.314   8.929  0.5149  0.3572 -0.0093
14819SOL    HW145898   3.368   3.291   8.876  0.2755 -0.2837  0.5979
14819SOL    HW245899   3.519   3.281   8.879  0.1722 -2.2404  1.0280
14820SOL     OW45900   3.268   1.464   3.059  0.4167  0.0422  0.1764
14820SOL    HW145901   3.248   1.388   3.113  1.2986 -0.5067 -0.2308
14820SOL    HW245902   3.265   1.431   2.969  0.1190  0.6599 -0.0468
14821SOL     OW45903   1.967   7.601   0.729  0.0873  0.0264  0.1536
14821SOL    HW145904   1.886   7.645   0.703 -0.5546 -1.6207 -0.8252
14821SOL    HW245905   1.938   7.528   0.783  0.6101 -2.0321 -2.1448
14822SOL     OW45906   4.712   6.040   3.309  0.7863  0.1106 -0.2207
14822SOL    HW145907   4.792   6.008   3.351  0.1584 -0.1895  0.7791
14822SOL    HW245908   4.707   5.993   3.226  1.6924  0.2019 -0.3331
14823SOL     OW45909   3.501   5.299  12.290 -0.4503  0.3792 -0.1902
14823SOL    HW145910   3.528   5.265  12.376 -0.7811  1.7699  0.4917
14823SOL    HW245911   3.550   5.246  12.227  0.5997  0.0146  0.8891
14824SOL     OW45912   2.366   2.320   4.565 -0.1875 -0.0986  0.0034
14824SOL    HW145913   2.424   2.248   4.541 -0.4935 -0.2876 -0.1654
14824SOL    HW245914   2.389   2.339   4.657  0.2331 -0.0799 -0.1010
14825SOL     OW45915   4.850   4.125   1.553  0.5603 -0.3398 -0.1780
14825SOL    HW145916   4.820   4.215   1.541  0.4584 -0.3015  0.3831
14825SOL    HW245917   4.770   4.072   1.551  0.5835 -0.3781 -0.0773
14826SOL     OW45918   1.810   2.324   5.695 -0.1939 -0.2090  0.4065
14826SOL    HW145919   1.882   2.384   5.716  0.3141 -0.3313 -0.8914
14826SOL    HW245920   1.762   2.368   5.626 -0.6049 -0.7085  0.3718
14827SOL     OW45921   7.745   1.593   7.431 -0.4339  0.0824  0.3591
14827SOL    HW145922   7.799   1.561   7.359  0.6698 -0.7967  1.5291
14827SOL    HW245923   7.659   1.554   7.416 -0.3841  0.3718 -0.7731
14828SOL     OW45924   0.524   4.276   8.352  0.0725 -0.0867 -0.1576
14828SOL    HW145925   0.591   4.315   8.297  0.0986 -1.1337 -0.8935
14828SOL    HW245926   0.450   4.337   8.347  0.0646 -0.1723 -1.3883
14829SOL     OW45927   4.984   0.766  10.326  0.3058 -0.1790 -0.8069
14829SOL    HW145928   4.997   0.845  10.273  0.1559 -0.0594 -0.6682
14829SOL    HW245929   4.890   0.749  10.321 -0.0575  0.9767  1.0089
14830SOL     OW45930   2.291   2.252   2.120 -0.4031  0.2167 -0.3315
14830SOL    HW145931   2.218   2.304   2.154  1.3815  1.6222  1.5468
14830SOL    HW245932   2.320   2.200   2.195  1.4136  0.7748 -0.5971
14831SOL     OW45933   3.921   2.367   7.914  0.2536 -0.4325 -0.1258
14831SOL    HW145934   3.859   2.315   7.966 -0.3866  1.7210  1.3662
14831SOL    HW245935   4.006   2.328   7.933 -0.2513 -1.2548  0.5494
14832SOL     OW45936   1.659   0.022   3.580  0.4183 -0.2045  0.1832
14832SOL    HW145937   1.723  -0.048   3.573  1.9481  1.1878 -0.1673
14832SOL    HW245938   1.708   0.102   3.566 -1.5573  0.8829 -1.1360
14833SOL     OW45939   7.927   5.744   9.101  0.1813  0.0345  0.7817
14833SOL    HW145940   7.945   5.742   9.007  0.3282 -2.1449  0.8155
14833SOL    HW245941   8.012   5.766   9.140 -0.1873  2.4165  0.4031
14834SOL     OW45942   5.445   2.419   5.139 -0.1641  0.4592  0.4751
14834SOL    HW145943   5.439   2.386   5.049  1.2120 -1.7614  1.1150
14834SOL    HW245944   5.362   2.464   5.153  0.7173  3.6614 -2.8679
14835SOL     OW45945   2.486   2.003   0.270  0.1039 -0.2761  0.5409
14835SOL    HW145946   2.480   2.099   0.273  0.6405 -0.1404 -1.2022
14835SOL    HW245947   2.552   1.982   0.336  0.5954  0.6415  0.3666
14836SOL     OW45948   3.756   7.912   5.124  0.2214 -0.1537  0.2693
14836SOL    HW145949   3.720   7.871   5.203  1.8839 -0.4580  0.8909
14836SOL    HW245950   3.841   7.946   5.150 -0.3131  2.1384 -0.7264
14837SOL     OW45951   4.356   6.925   7.300 -0.1651 -0.3527  0.0288
14837SOL    HW145952   4.372   6.995   7.364 -0.1254 -0.5612  0.2482
14837SOL    HW245953   4.442   6.887   7.284  0.0387  0.5975 -1.1975
14838SOL     OW45954   0.196   7.229   5.908  0.1191 -0.2382  0.2123
14838SOL    HW145955   0.124   7.176   5.873  0.4883 -1.1542  0.8076
14838SOL    HW245956   0.202   7.203   6.000  0.1295  1.0555  0.5882
14839SOL     OW45957   4.458   2.247   2.776  0.3417  0.2743 -0.0910
14839SOL    HW145958   4.476   2.190   2.702  2.1682  2.0622 -1.1188
14839SOL    HW245959   4.501   2.330   2.754 -0.2291  1.3112  2.3509
14840SOL     OW45960   1.923   5.913   7.177  0.8496 -0.3005 -0.3791
14840SOL    HW145961   1.937   5.980   7.109  2.3272 -2.3910 -2.2808
14840SOL    HW245962   2.010   5.878   7.195  0.3331 -0.5691  1.8816
14841SOL     OW45963   3.715   1.408   1.955 -0.3624 -0.3460 -0.1066
14841SOL    HW145964   3.643   1.367   1.906 -0.0955 -1.2238  0.2056
14841SOL    HW245965   3.676   1.486   1.994 -0.7326  0.0494 -1.2375
14842SOL     OW45966   1.902   0.454   6.402 -0.0344 -0.4634  0.1622
14842SOL    HW145967   1.851   0.513   6.348 -1.0719 -1.9398 -0.5521
14842SOL    HW245968   1.992   0.466   6.373 -0.3658  0.0272 -0.6828
14843SOL     OW45969   2.891   4.496   8.583  0.0949  0.4600 -0.1277
14843SOL    HW145970   2.968   4.486   8.526 -0.0695 -0.3409 -0.2207
14843SOL    HW245971   2.899   4.425   8.646 -0.4688  0.4894 -0.0227
14844SOL     OW45972   6.765   7.364   9.615 -0.4068 -0.5215 -0.1944
14844SOL    HW145973   6.672   7.358   9.595 -0.3826 -0.9000 -0.2131
14844SOL    HW245974   6.807   7.310   9.547 -0.2637 -1.2337  0.4426
14845SOL     OW45975   5.538   4.404   3.391 -0.2812 -0.1415 -0.1155
14845SOL    HW145976   5.487   4.454   3.327 -0.8786 -1.0569 -0.3849
14845SOL    HW245977   5.624   4.394   3.352 -1.0465 -1.9414 -1.5180
14846SOL     OW45978   0.078   6.307  11.492 -0.3450 -0.7238 -0.0259
14846SOL    HW145979   0.009   6.297  11.427 -1.2988  2.2172  0.3804
14846SOL    HW245980   0.032   6.322  11.574  0.7416  0.8957  0.3280
14847SOL     OW45981   5.518   0.152   1.897  0.0259  0.9755  0.0986
14847SOL    HW145982   5.576   0.158   1.821  0.7077  1.1926  0.6297
14847SOL    HW245983   5.479   0.239   1.904 -0.1742  0.9032 -0.1073
14848SOL     OW45984   4.888   0.295  10.022 -0.2822  0.3000  0.3074
14848SOL    HW145985   4.916   0.360   9.958  0.8703 -0.8834 -0.4532
14848SOL    HW245986   4.948   0.305  10.095  1.4158 -1.3639 -0.7722
14849SOL     OW45987   5.288   4.981  12.149  0.0482 -0.3132 -0.1253
14849SOL    HW145988   5.230   5.032  12.092  1.7864  2.1358  0.1511
14849SOL    HW245989   5.343   4.932  12.089 -0.7096 -0.8214 -0.4276
14850SOL     OW45990   0.901   5.065   9.260 -0.1880  0.4302 -0.5541
14850SOL    HW145991   0.850   4.986   9.245  0.5391  0.0754 -1.2272
14850SOL    HW245992   0.874   5.125   9.191  0.0436  0.3754 -0.6915
14851SOL     OW45993   6.804   4.335  12.195 -0.2886  0.1541  0.1248
14851SOL    HW145994   6.832   4.297  12.278  1.0037  0.8082  0.0072
14851SOL    HW245995   6.709   4.335  12.199 -0.3172 -1.9766  0.6327
14852SOL     OW45996   3.958   4.397   6.910 -0.0580 -0.3822 -0.6825
14852SOL    HW145997   3.903   4.404   6.832  0.2927 -0.3588 -0.9307
14852SOL    HW245998   3.994   4.485   6.923 -0.9487 -0.1213  0.1279
14853SOL     OW45999   5.818   1.169  10.681  0.1380 -0.3629 -0.0223
14853SOL    HW146000   5.847   1.252  10.719  1.3266 -1.8307  2.5060
14853SOL    HW246001   5.764   1.129  10.749 -0.4097 -1.6772 -1.1864
14854SOL     OW46002   1.016   2.100  10.248 -0.2121 -0.2509 -0.3541
14854SOL    HW146003   1.025   2.116  10.341 -1.2513  1.2526 -0.4841
14854SOL    HW246004   1.042   2.009  10.237  0.5849 -0.2495  1.2891
14855SOL     OW46005   4.946   3.348   4.341  0.3349  0.1762  0.8326
14855SOL    HW146006   4.965   3.257   4.364  0.4942  0.0616  0.2691
14855SOL    HW246007   4.853   3.359   4.362  0.6848  0.3574  2.3775
14856SOL     OW46008   6.909   6.451   8.958  0.6936  0.3685 -0.2686
14856SOL    HW146009   6.827   6.499   8.951  0.3108  0.1309  1.8746
14856SOL    HW246010   6.974   6.517   8.979  0.1277  0.0900  2.9093
14857SOL     OW46011   0.655   4.713  11.253  0.3027  0.3236 -0.5772
14857SOL    HW146012   0.653   4.733  11.160 -2.1788  1.3373 -0.3935
14857SOL    HW246013   0.612   4.789  11.294 -0.6499 -1.0818  1.1385
14858SOL     OW46014   3.123   1.099  12.226 -1.2708  0.0707  0.4074
14858SOL    HW146015   3.125   1.149  12.144 -1.8827  1.6962  1.3343
14858SOL    HW246016   3.162   1.015  12.203 -0.6585  0.7739 -1.3556
14859SOL     OW46017   2.258   4.553   5.244 -0.4938 -0.2746 -0.0844
14859SOL    HW146018   2.205   4.632   5.244 -1.1520 -0.7010  0.5748
14859SOL    HW246019   2.246   4.516   5.331  3.8213  1.5203  1.5562
14860SOL     OW46020   5.828   6.296   5.649  0.7538  0.2922  0.0731
14860SOL    HW146021   5.737   6.292   5.619  0.2566  2.0169  1.2467
14860SOL    HW246022   5.879   6.302   5.568 -0.2192  0.1442 -0.5677
14861SOL     OW46023   0.894   3.270   0.639  0.2252 -0.0421 -0.5598
14861SOL    HW146024   0.938   3.195   0.599 -1.2395 -1.7383  0.8048
14861SOL    HW246025   0.954   3.299   0.708  0.7775  0.0249 -1.0600
14862SOL     OW46026   2.124   6.335   6.907  0.2895  0.0816 -0.5320
14862SOL    HW146027   2.105   6.423   6.940  2.2324  0.9394 -1.5631
14862SOL    HW246028   2.202   6.308   6.955  1.1369 -0.0538 -1.9585
14863SOL     OW46029   3.495   0.974   9.841  0.1247 -0.0072  0.2032
14863SOL    HW146030   3.539   1.060   9.843 -1.8485  1.0709 -0.2832
14863SOL    HW246031   3.407   0.992   9.874 -0.1005 -2.0390  0.8415
14864SOL     OW46032   0.830   5.936   1.737  0.0152 -0.5761  0.0470
14864SOL    HW146033   0.915   5.954   1.777 -0.0230 -0.3942  0.0486
14864SOL    HW246034   0.766   5.959   1.804 -0.2259  3.0007 -1.1422
14865SOL     OW46035   7.086   2.048   7.218 -0.0907  0.0232 -0.0026
14865SOL    HW146036   7.068   2.111   7.288  0.8701 -0.2222  0.4948
14865SOL    HW246037   7.134   1.977   7.262  0.3072 -0.2578 -0.8665
14866SOL     OW46038   6.734   3.198  12.324  0.1872  0.6252 -0.2807
14866SOL    HW146039   6.741   3.292  12.310  2.9301  0.9606  2.2906
14866SOL    HW246040   6.824   3.166  12.322 -0.5907 -1.8246 -0.2463
14867SOL     OW46041   2.111   5.897   0.632 -0.1551 -0.9553  0.1936
14867SOL    HW146042   2.186   5.933   0.586 -0.2277  0.3430  1.0362
14867SOL    HW246043   2.067   5.973   0.669 -0.1075 -1.9172  2.3837
14868SOL     OW46044   7.469   2.923   2.184  0.3636  0.5201 -0.2389
14868SOL    HW146045   7.503   3.009   2.159  0.3561  0.3306 -0.9224
14868SOL    HW246046   7.475   2.870   2.104  0.1566 -0.0490  0.1130
14869SOL     OW46047   5.404   2.481   2.279  0.3340 -0.1492  0.0795
14869SOL    HW146048   5.454   2.465   2.199  0.8338  1.0017  0.1430
14869SOL    HW246049   5.315   2.451   2.259 -0.0303  1.8535 -1.6002
14870SOL     OW46050   7.271   1.630   2.501  0.0790  0.4266  0.0443
14870SOL    HW146051   7.215   1.703   2.476  0.3937  0.4123 -0.7080
14870SOL    HW246052   7.346   1.671   2.545 -0.3809  0.4634  0.8026
14871SOL     OW46053   6.535   3.828   1.045 -0.9247 -0.5863  0.2078
14871SOL    HW146054   6.480   3.870   0.979  0.8520 -1.2681 -1.8591
14871SOL    HW246055   6.555   3.742   1.007  1.4628 -0.3942  0.8410
14872SOL     OW46056   0.620   3.285   5.648 -0.3669  0.1593 -0.0254
14872SOL    HW146057   0.615   3.215   5.583 -2.0593  1.4206 -1.3701
14872SOL    HW246058   0.545   3.269   5.706  0.6540 -0.4854  1.1550
14873SOL     OW46059   1.212   3.483   6.366  0.6058  0.5337 -0.2087
14873SOL    HW146060   1.133   3.523   6.328  0.8595  0.5423 -0.7288
14873SOL    HW246061   1.219   3.399   6.322  0.3020  0.0806  0.5950
14874SOL     OW46062   6.926   4.877   7.178  0.5243 -0.3090  1.2093
14874SOL    HW146063   6.835   4.888   7.150  0.1729 -1.1314  1.9554
14874SOL    HW246064   6.974   4.856   7.098 -0.2513 -1.4765  1.0173
14875SOL     OW46065   1.141   1.784   0.212 -0.3667  0.9615 -1.0054
14875SOL    HW146066   1.080   1.734   0.267  0.5519  0.8710 -0.0368
14875SOL    HW246067   1.096   1.793   0.128 -0.8548 -0.8910 -0.9812
14876SOL     OW46068   3.276   5.166  11.085  0.2159 -0.3278  0.0187
14876SOL    HW146069   3.224   5.239  11.050  2.1913  1.5875  0.8177
14876SOL    HW246070   3.212   5.106  11.122 -1.4848  1.8712  0.8742
14877SOL     OW46071   3.398   5.584  11.298 -0.8003  0.1922 -0.1542
14877SOL    HW146072   3.312   5.579  11.338 -1.2729  0.5011 -1.0912
14877SOL    HW246073   3.384   5.631  11.215  0.2249  0.0696 -0.4236
14878SOL     OW46074   1.115   4.313  11.515 -0.1266 -0.2294  0.3076
14878SOL    HW146075   1.203   4.296  11.482 -0.9315 -1.3497 -1.3513
14878SOL    HW246076   1.122   4.297  11.609  1.7356  0.9999  0.4353
14879SOL     OW46077   6.014   1.890  10.260 -0.3071  0.7400  0.0233
14879SOL    HW146078   5.997   1.972  10.214 -1.1900  1.0488  0.8578
14879SOL    HW246079   6.103   1.900  10.294 -0.8031  1.8564  1.0821
14880SOL     OW46080   2.865   2.720   4.415 -0.4087  0.0441 -0.1336
14880SOL    HW146081   2.935   2.657   4.434 -1.5483 -0.5014  2.8223
14880SOL    HW246082   2.785   2.677   4.446 -1.6484  1.8042 -0.7245
14881SOL     OW46083   3.016   1.473   4.549  0.3709 -0.4926  0.3129
14881SOL    HW146084   2.950   1.426   4.600 -0.7879  0.7911  0.0525
14881SOL    HW246085   2.983   1.470   4.459  0.7795 -0.0101  0.1458
14882SOL     OW46086   0.613   6.001  12.306  0.1275 -0.6705 -0.1474
14882SOL    HW146087   0.699   5.959  12.312  0.3743 -0.2072 -0.3971
14882SOL    HW246088   0.551   5.933  12.334  0.5111 -1.2408 -0.6698
14883SOL     OW46089   1.650   2.896  12.459  0.0930 -0.0369 -0.2466
14883SOL    HW146090   1.723   2.884  12.399  0.2738 -0.7672  0.1099
14883SOL    HW246091   1.576   2.853  12.416  0.3511 -1.0372  0.2877
14884SOL     OW46092   2.392   7.910  10.888  0.3418  0.0531 -0.2687
14884SOL    HW146093   2.411   8.003  10.904 -1.4506  0.7348 -1.7511
14884SOL    HW246094   2.369   7.906  10.795  1.5650 -2.1171 -0.5312
14885SOL     OW46095   5.378   1.513  12.259 -0.0791  0.2040  0.0947
14885SOL    HW146096   5.398   1.482  12.171 -0.8586 -2.0204  0.6301
14885SOL    HW246097   5.305   1.458  12.288 -0.9694  2.0280  1.5145
14886SOL     OW46098   4.360   5.254   8.145  0.3396 -0.1814  0.1698
14886SOL    HW146099   4.377   5.319   8.077 -1.4636 -0.3688 -0.5260
14886SOL    HW246100   4.274   5.218   8.122  0.0257 -0.7955  2.1224
14887SOL     OW46101   1.445   1.216   6.047  0.8534 -0.1258 -0.3434
14887SOL    HW146102   1.495   1.211   6.129  0.6833  0.9263 -0.1514
14887SOL    HW246103   1.376   1.280   6.065 -1.1151 -2.1429 -0.3395
14888SOL     OW46104   5.114   2.056   9.243  0.0542 -0.0189 -0.2847
14888SOL    HW146105   5.065   2.065   9.324 -0.7992  2.8966 -1.0278
14888SOL    HW246106   5.106   1.963   9.221 -0.8265 -0.6121  2.2330
14889SOL     OW46107   7.376   6.843   4.485  0.0316 -0.0797  0.5657
14889SOL    HW146108   7.322   6.836   4.407  1.8532  0.3466 -0.8044
14889SOL    HW246109   7.314   6.856   4.557 -1.7923 -1.8834 -0.5790
14890SOL     OW46110   7.217   3.419   5.177 -0.5765 -0.2911  0.4757
14890SOL    HW146111   7.134   3.460   5.153 -0.3959  0.3301  0.9079
14890SOL    HW246112   7.239   3.365   5.101 -1.2272 -0.2322  0.2372
14891SOL     OW46113   2.950   4.957   7.594  0.4489 -0.4604  0.0336
14891SOL    HW146114   2.917   4.958   7.684  0.1848 -2.3312 -0.0015
14891SOL    HW246115   3.033   5.004   7.598 -1.0518  2.4481  0.5596
14892SOL     OW46116   3.663   3.237   8.836 -0.0032  0.8973 -0.1276
14892SOL    HW146117   3.691   3.231   8.745 -1.5393 -0.9322 -0.5470
14892SOL    HW246118   3.740   3.270   8.883  0.8888  1.6645 -2.0247
14893SOL     OW46119   1.734   5.088   4.064 -0.1543 -0.5568  0.3137
14893SOL    HW146120   1.810   5.111   4.118 -0.7820  2.1429  0.2022
14893SOL    HW246121   1.664   5.146   4.095 -0.9187  0.1545 -2.4807
14894SOL     OW46122   7.611   6.900   2.184 -1.0510  0.1945 -0.1998
14894SOL    HW146123   7.705   6.889   2.167 -0.7854  0.0694  1.2558
14894SOL    HW246124   7.579   6.811   2.198 -1.1528  0.3296  0.4441
14895SOL     OW46125   6.387   2.542   2.436 -0.5145  0.0194  0.1762
14895SOL    HW146126   6.294   2.563   2.428 -0.5249  0.0846  0.4431
14895SOL    HW246127   6.411   2.504   2.352 -0.9479 -0.6485  0.3455
14896SOL     OW46128   2.570   3.844  10.231 -0.1013 -0.2284  0.6908
14896SOL    HW146129   2.634   3.804  10.290  0.3109 -0.8137 -0.1291
14896SOL    HW246130   2.617   3.854  10.148 -0.8985 -0.1137  0.2426
14897SOL     OW46131   1.290   0.603   9.172  0.3739 -0.6326 -0.1626
14897SOL    HW146132   1.230   0.557   9.114 -0.3401 -0.5596  0.4897
14897SOL    HW246133   1.364   0.628   9.117 -0.6801  0.2184 -1.2506
14898SOL     OW46134   2.828   5.171   8.391 -0.0594  0.0945 -0.3146
14898SOL    HW146135   2.877   5.245   8.355  1.0073  0.0477  0.9549
14898SOL    HW246136   2.895   5.115   8.430 -0.9719 -0.8977 -0.1393
14899SOL     OW46137   4.988   4.322   9.472 -0.9125 -0.3778  0.4040
14899SOL    HW146138   5.064   4.341   9.528 -0.6101 -1.4532  0.3856
14899SOL    HW246139   5.026   4.296   9.388 -1.3503  0.4792 -0.0690
14900SOL     OW46140   4.201   7.576   8.505  0.1873 -0.3508  0.5854
14900SOL    HW146141   4.135   7.620   8.451  1.4066 -0.5754 -1.1700
14900SOL    HW246142   4.193   7.616   8.591 -0.4380  1.5250 -0.3052
14901SOL     OW46143   2.396   1.911   1.117 -0.3364  0.0742 -0.0457
14901SOL    HW146144   2.361   1.856   1.187 -1.0835 -0.3865 -0.7681
14901SOL    HW246145   2.436   1.850   1.055  0.0674  0.4540 -0.1713
14902SOL     OW46146   6.336   7.357   6.936 -0.0523  0.3074 -0.1705
14902SOL    HW146147   6.263   7.348   6.875 -1.9152  1.3437  1.7650
14902SOL    HW246148   6.349   7.452   6.944  0.6709  0.1704  0.4613
14903SOL     OW46149   4.544   6.849   5.663 -0.1288 -0.0101  0.2783
14903SOL    HW146150   4.504   6.762   5.663  0.8565 -0.6557 -3.6291
14903SOL    HW246151   4.638   6.832   5.673  0.0091  0.6830  0.2282
14904SOL     OW46152   0.748   3.260   5.922 -0.7528  0.3139  1.1726
14904SOL    HW146153   0.732   3.294   5.834  0.2158  2.4425  1.7639
14904SOL    HW246154   0.676   3.199   5.937 -0.8726 -0.1844 -1.1165
14905SOL     OW46155   7.602   3.413   2.539 -0.1857  0.6681  0.0310
14905SOL    HW146156   7.542   3.474   2.580 -1.5005 -0.3244 -0.3416
14905SOL    HW246157   7.640   3.461   2.465  0.1944  1.5994  0.8145
14906SOL     OW46158   5.488   5.150   8.213 -0.1319 -0.1725  0.1492
14906SOL    HW146159   5.482   5.105   8.297  1.1535  0.7666  0.7738
14906SOL    HW246160   5.557   5.104   8.166 -0.7456 -0.6016 -0.3485
14907SOL     OW46161   0.456   5.037   6.435  0.0312  0.1993 -0.3981
14907SOL    HW146162   0.369   5.006   6.459 -0.2039  0.4467 -0.9103
14907SOL    HW246163   0.452   5.132   6.446  0.5589  0.1245  0.5698
14908SOL     OW46164   4.811   1.911   2.638 -0.4021 -0.2071 -0.2150
14908SOL    HW146165   4.871   1.845   2.603 -0.7160 -0.3086 -0.5714
14908SOL    HW246166   4.736   1.861   2.669 -0.1245 -0.1173  0.6269
14909SOL     OW46167   7.316   6.883   5.725 -0.2216 -0.3886 -0.2645
14909SOL    HW146168   7.376   6.808   5.736  0.4983  0.0100 -1.2751
14909SOL    HW246169   7.230   6.848   5.747  0.1912 -1.3530 -0.1186
14910SOL     OW46170   5.667   7.010   1.380  0.6314 -0.4311  0.2766
14910SOL    HW146171   5.602   7.017   1.450 -0.3165 -0.7734 -0.5620
14910SOL    HW246172   5.661   7.093   1.332  0.9657 -0.3790  0.3190
14911SOL     OW46173   5.322   3.237   0.306 -0.0645 -0.1681  0.3391
14911SOL    HW146174   5.356   3.229   0.395 -0.9681 -2.1693  0.5713
14911SOL    HW246175   5.351   3.157   0.262  0.3671  0.7827 -1.1970
14912SOL     OW46176   3.695   6.831  11.191  0.0734 -0.3463  0.4076
14912SOL    HW146177   3.603   6.834  11.166 -0.3418 -1.0420  1.7587
14912SOL    HW246178   3.719   6.922  11.207 -0.3948 -0.1699  0.1365
14913SOL     OW46179   2.268   1.499  10.420 -0.0042  0.2351  0.1134
14913SOL    HW146180   2.270   1.502  10.516  2.5361 -0.8321  0.1804
14913SOL    HW246181   2.283   1.589  10.393  0.0889  0.4132  0.7398
14914SOL     OW46182   7.645   5.265   8.400  0.3895 -0.0601 -0.3945
14914SOL    HW146183   7.640   5.193   8.463 -0.6457 -0.3429 -0.7786
14914SOL    HW246184   7.670   5.341   8.452  1.1111 -0.6057  0.0794
14915SOL     OW46185   5.539   3.628   5.925  0.0149  0.0887 -0.2422
14915SOL    HW146186   5.515   3.571   5.998  1.1111  0.8686  0.7561
14915SOL    HW246187   5.457   3.646   5.880 -0.7162 -0.1576  0.9736
14916SOL     OW46188   5.130   1.488   6.198  0.4684  0.3029 -1.0485
14916SOL    HW146189   5.149   1.582   6.187 -0.5988  0.6619 -0.0325
14916SOL    HW246190   5.105   1.480   6.290  0.6465 -1.0175 -1.0971
14917SOL     OW46191   4.926   6.312   8.253 -0.4998 -0.1500  0.0250
14917SOL    HW146192   4.893   6.330   8.340  0.8901 -3.0237  1.2906
14917SOL    HW246193   4.848   6.283   8.204 -0.9942 -0.3480  0.8970
14918SOL     OW46194   0.124   1.733   6.398  0.4542 -0.2605 -0.4543
14918SOL    HW146195   0.091   1.799   6.337 -0.1540 -0.1213  0.0129
14918SOL    HW246196   0.116   1.774   6.484 -0.4000 -1.1095 -0.1057
14919SOL     OW46197   6.938   6.477  10.511 -0.2041  0.1911  0.0860
14919SOL    HW146198   6.851   6.457  10.547 -0.2204 -1.8557 -0.9273
14919SOL    HW246199   6.993   6.489  10.589 -0.8157 -1.3351  0.8061
14920SOL     OW46200   5.952   1.407  11.343  0.5953 -0.2037 -0.1535
14920SOL    HW146201   6.003   1.442  11.416 -0.8680  0.2232  0.7124
14920SOL    HW246202   5.936   1.316  11.366 -2.1665  0.5712  1.5236
14921SOL     OW46203   7.833   6.895   4.541  0.4710 -0.6719  0.1708
14921SOL    HW146204   7.846   6.990   4.541  0.3445 -0.6524 -0.4452
14921SOL    HW246205   7.886   6.863   4.469 -2.2368 -0.6559 -2.0052
14922SOL     OW46206   4.369   7.437   4.989 -0.0898  0.1377  0.0346
14922SOL    HW146207   4.406   7.363   4.942  0.1304 -0.0236  0.4609
14922SOL    HW246208   4.385   7.418   5.081  0.4973  0.9884  0.1199
14923SOL     OW46209   1.492   2.056   6.752 -0.3469 -0.1786 -0.4544
14923SOL    HW146210   1.413   2.037   6.804 -0.5038  0.8116 -0.3101
14923SOL    HW246211   1.563   2.016   6.802 -0.8825 -2.3186 -1.2895
14924SOL     OW46212   6.473   6.605  10.444 -0.5324 -0.0325  0.1291
14924SOL    HW146213   6.414   6.602  10.520 -0.1802  0.1331  0.4128
14924SOL    HW246214   6.414   6.605  10.368 -0.8841 -0.3535  0.3969
14925SOL     OW46215   1.861   6.267   6.250  0.5982  0.0254 -0.0491
14925SOL    HW146216   1.915   6.192   6.224  0.5436  0.3758 -1.2438
14925SOL    HW246217   1.856   6.321   6.171  1.2686  1.6793  0.9941
14926SOL     OW46218   3.001   7.608   0.381 -0.2947  0.3080  0.6975
14926SOL    HW146219   2.924   7.665   0.372 -0.4917 -0.0202  0.2846
14926SOL    HW246220   3.074   7.669   0.398 -0.3106  0.7976 -0.8459
14927SOL     OW46221   7.543   4.085   4.709 -0.3145  0.0063 -0.0366
14927SOL    HW146222   7.611   4.058   4.647  0.2722  3.2385 -0.9735
14927SOL    HW246223   7.469   4.109   4.654 -0.5541  0.8872  0.6531
14928SOL     OW46224   7.813   2.464   2.960  0.0129  0.1465  0.2297
14928SOL    HW146225   7.906   2.450   2.978 -0.4136 -1.7715  1.2091
14928SOL    HW246226   7.812   2.518   2.881  1.9677 -0.8053 -0.5175
14929SOL     OW46227   1.951   4.895  10.343  0.2234 -0.4514 -0.1343
14929SOL    HW146228   1.938   4.912  10.250 -0.9065  0.1476  0.1113
14929SOL    HW246229   1.884   4.948  10.386  0.4796 -1.0266  0.9961
14930SOL     OW46230   6.402   2.285   8.954 -0.5142  0.2054 -0.1754
14930SOL    HW146231   6.332   2.318   8.897 -0.2682  1.5707  0.2955
14930SOL    HW246232   6.478   2.340   8.934  0.4712 -1.2689 -0.6922
14931SOL     OW46233   7.018   4.229   0.866  0.0339  0.9545  0.2114
14931SOL    HW146234   6.980   4.158   0.815 -0.0746  1.1426  0.0319
14931SOL    HW246235   6.961   4.304   0.850 -0.4279  0.8320  1.1792
14932SOL     OW46236   5.528   5.486   6.024 -0.6112 -0.7456 -0.4814
14932SOL    HW146237   5.598   5.522   6.079 -1.9941  0.7438  0.3724
14932SOL    HW246238   5.461   5.457   6.085 -1.2573 -1.0636 -1.3207
14933SOL     OW46239   0.953   1.498  10.684  0.2441 -0.1935 -0.2244
14933SOL    HW146240   1.041   1.477  10.651  0.5129  1.7292 -0.8521
14933SOL    HW246241   0.963   1.497  10.780  0.5866 -1.3104 -0.2508
14934SOL     OW46242   4.050   1.901   8.441 -1.1595  0.4961 -0.4606
14934SOL    HW146243   4.120   1.836   8.430 -0.1968  1.7920 -2.7628
14934SOL    HW246244   4.047   1.916   8.535  1.5260  0.1929 -0.2356
14935SOL     OW46245   7.550   2.471   7.536  0.1676  0.1865  0.5200
14935SOL    HW146246   7.488   2.410   7.496 -0.3404  1.3786 -0.5947
14935SOL    HW246247   7.496   2.529   7.589  0.8620 -1.5515  3.3225
14936SOL     OW46248   1.083   2.921   1.082 -0.0640 -0.2069  0.2688
14936SOL    HW146249   1.027   2.979   1.030 -1.5668 -0.8840  1.0709
14936SOL    HW246250   1.157   2.902   1.025 -1.1150 -0.0533 -1.2084
14937SOL     OW46251   0.285   7.859   9.497 -0.3738  0.5145 -0.2522
14937SOL    HW146252   0.340   7.893   9.426 -1.1337  1.9629 -0.1844
14937SOL    HW246253   0.236   7.935   9.528 -0.6582 -0.2542  1.2937
14938SOL     OW46254   3.811   2.463   3.175  0.1299  0.2242  0.3258
14938SOL    HW146255   3.749   2.460   3.248 -0.9945 -0.1623 -0.6236
14938SOL    HW246256   3.765   2.512   3.106  1.2343  0.7252 -0.0803
14939SOL     OW46257   6.507   2.174   6.443 -0.0965  0.6498  0.2524
14939SOL    HW146258   6.467   2.092   6.471 -0.9078  0.6972 -0.7276
14939SOL    HW246259   6.512   2.226   6.523  0.1018 -0.2056  0.8218
14940SOL     OW46260   0.054   1.352   3.220 -0.3198  0.1587  0.5407
14940SOL    HW146261  -0.035   1.347   3.255 -0.2966  1.1385  0.7461
14940SOL    HW246262   0.104   1.292   3.276 -1.1543 -1.6872 -0.6104
14941SOL     OW46263   7.315   3.826   1.208  0.3061  0.3032  0.2310
14941SOL    HW146264   7.274   3.770   1.142 -1.0286  0.1352  1.1741
14941SOL    HW246265   7.284   3.914   1.187  1.7690  0.6258 -0.7623
14942SOL     OW46266   4.468   0.915   4.771  0.1773  0.0438  0.2309
14942SOL    HW146267   4.398   0.956   4.721 -1.1726 -0.3062  1.7571
14942SOL    HW246268   4.535   0.983   4.777  1.0890 -0.3567 -3.1958
14943SOL     OW46269   7.723   6.742   0.909  0.1061 -0.4126 -0.3645
14943SOL    HW146270   7.816   6.749   0.890 -0.2762 -0.7115 -2.7273
14943SOL    HW246271   7.715   6.670   0.971  1.3578 -1.1918 -1.0823
14944SOL     OW46272   4.485   1.291  10.035  0.4331  0.0929  0.1905
14944SOL    HW146273   4.443   1.375  10.017  1.0635  0.0937 -1.4039
14944SOL    HW246274   4.574   1.313  10.061  0.5438 -0.0664 -0.0477
14945SOL     OW46275   5.828   6.266   3.367 -0.3886  0.5348 -0.0254
14945SOL    HW146276   5.913   6.303   3.390 -0.8385  0.9804  1.0078
14945SOL    HW246277   5.802   6.311   3.287 -0.0244  0.9892  0.1119
14946SOL     OW46278   4.141   1.563   0.851 -0.1695  0.6295  0.0557
14946SOL    HW146279   4.173   1.475   0.871  0.0580  0.5788 -0.5130
14946SOL    HW246280   4.210   1.603   0.798 -0.7190  0.7769 -0.5698
14947SOL     OW46281   2.467   7.395  12.408  0.1226 -1.2545  0.1850
14947SOL    HW146282   2.526   7.323  12.384  0.6212 -1.4393  1.8295
14947SOL    HW246283   2.481   7.407  12.501  0.1356  1.0685 -0.0547
14948SOL     OW46284   5.016   2.216   4.427 -0.3268 -0.1261  0.0907
14948SOL    HW146285   5.070   2.163   4.486  0.8584  1.4742  0.5027
14948SOL    HW246286   4.965   2.272   4.486  0.5739  1.2032 -0.3317
14949SOL     OW46287   1.431   6.659   5.704 -0.2578  0.1178 -0.3771
14949SOL    HW146288   1.518   6.648   5.666 -0.5051  1.2228 -1.3333
14949SOL    HW246289   1.397   6.570   5.713  0.2798 -0.2401 -1.6837
14950SOL     OW46290   1.566   0.275   1.763 -0.8305 -0.2945  0.0075
14950SOL    HW146291   1.491   0.282   1.703 -1.7199  1.8109  1.2583
14950SOL    HW246292   1.642   0.281   1.706 -1.6460  0.9408 -1.0083
14951SOL     OW46293   5.017   6.969  10.456 -0.0957 -0.1582  0.3240
14951SOL    HW146294   5.018   7.044  10.514  0.4391  1.1754 -1.3102
14951SOL    HW246295   5.059   7.001  10.375  0.1987 -2.2199 -0.4068
14952SOL     OW46296   1.266   6.861  12.084 -0.4929  0.1528  0.7066
14952SOL    HW146297   1.322   6.806  12.140 -1.2474 -1.3033  0.0988
14952SOL    HW246298   1.322   6.884  12.010 -0.5443 -1.0000  0.2782
14953SOL     OW46299   0.021   3.958   7.504  0.3259  0.0018 -0.0201
14953SOL    HW146300   0.060   3.970   7.591  0.6556  1.4158 -0.3381
14953SOL    HW246301   0.052   4.032   7.453 -0.0662 -0.6754 -1.2914
14954SOL     OW46302   0.967   6.608   9.938 -0.1659  0.0179  0.0507
14954SOL    HW146303   0.963   6.589   9.844  0.8924 -1.6936  0.2993
14954SOL    HW246304   0.950   6.523   9.979 -0.7371  0.7788  1.4223
14955SOL     OW46305   0.707   1.410   6.261  0.0157 -0.2660  0.2142
14955SOL    HW146306   0.773   1.375   6.202 -0.2865  0.6784 -0.7095
14955SOL    HW246307   0.676   1.489   6.218 -1.6376 -0.6244  0.6991
14956SOL     OW46308   1.621   7.460   5.638 -0.0931 -0.2740  0.6974
14956SOL    HW146309   1.530   7.444   5.663 -0.1753 -0.7379  0.1260
14956SOL    HW246310   1.618   7.476   5.544  0.4476 -0.5649  0.6244
14957SOL     OW46311   4.959   7.605   2.644 -0.1218 -0.2625  0.2293
14957SOL    HW146312   4.906   7.682   2.665  1.1227  0.1336  2.0803
14957SOL    HW246313   5.037   7.639   2.601  0.7797 -0.3761  1.7136
14958SOL     OW46314   7.219   0.774   5.270 -0.0217  0.0725 -0.3851
14958SOL    HW146315   7.180   0.812   5.349  1.6854  2.1828 -0.4600
14958SOL    HW246316   7.154   0.789   5.202 -0.7749 -0.1814  0.2602
14959SOL     OW46317   6.875   6.626   2.121 -0.5815  0.0389 -0.3993
14959SOL    HW146318   6.885   6.609   2.027  3.0631 -1.8396  0.1541
14959SOL    HW246319   6.893   6.541   2.162 -1.4786  0.9630  2.0246
14960SOL     OW46320   0.189   5.735   9.267 -0.1966  0.1574  0.0605
14960SOL    HW146321   0.260   5.729   9.331 -0.5151 -1.4373  0.3112
14960SOL    HW246322   0.172   5.828   9.259  0.2276  0.4304  1.8802
14961SOL     OW46323   5.773   7.872   5.688  0.4944 -0.0510  0.1249
14961SOL    HW146324   5.678   7.867   5.699  0.3542  0.8372 -0.5601
14961SOL    HW246325   5.803   7.925   5.762  0.6912 -1.7560  1.3230
14962SOL     OW46326   3.482   6.859  10.837  0.7534  0.2773 -0.5123
14962SOL    HW146327   3.466   6.931  10.777  1.9413  0.5763 -0.4957
14962SOL    HW246328   3.514   6.788  10.782 -0.7628 -0.3853 -0.5790
14963SOL     OW46329   5.443   4.945   1.495 -0.6390 -0.2538 -0.5046
14963SOL    HW146330   5.532   4.909   1.486 -0.1434  0.8535 -0.1847
14963SOL    HW246331   5.443   5.023   1.439 -0.6699  1.0402  1.2294
14964SOL     OW46332   2.751   7.683   3.262  0.1891 -0.1639 -0.2800
14964SOL    HW146333   2.664   7.681   3.303 -0.2991 -1.9215 -1.3172
14964SOL    HW246334   2.803   7.622   3.314  0.6203  0.3558 -0.0915
14965SOL     OW46335   4.335   6.707   4.142 -0.0450 -0.1879 -0.4669
14965SOL    HW146336   4.240   6.714   4.133 -0.0945  0.0987  0.2269
14965SOL    HW246337   4.367   6.795   4.121  0.0523 -0.2321 -0.5018
14966SOL     OW46338   5.828   4.235   5.361  0.0730  0.0022  0.2151
14966SOL    HW146339   5.887   4.281   5.302  0.8183  1.5496  2.0379
14966SOL    HW246340   5.865   4.148   5.371 -1.1622 -1.0385 -3.0516
14967SOL     OW46341   0.606   0.406   5.799  0.3943 -0.7708 -0.1888
14967SOL    HW146342   0.540   0.453   5.750  1.5456 -0.0773 -1.1270
14967SOL    HW246343   0.605   0.317   5.762  1.4794 -0.1713 -1.7705
14968SOL     OW46344   5.809   1.359   0.013 -0.8538  0.2468 -0.1421
14968SOL    HW146345   5.851   1.445   0.013 -0.1565 -0.0692 -1.2167
14968SOL    HW246346   5.858   1.309   0.079  0.4484 -0.0879 -1.3161
14969SOL     OW46347   0.980   3.315  11.422 -1.1870 -0.6146  0.3608
14969SOL    HW146348   0.969   3.401  11.464 -1.8056 -1.2386  1.5093
14969SOL    HW246349   0.919   3.316  11.349  0.2839  0.6950 -0.9243
14970SOL     OW46350   0.798   5.387   2.674  0.1444  0.8867  0.4381
14970SOL    HW146351   0.872   5.326   2.663 -1.0487 -0.8243  1.4284
14970SOL    HW246352   0.794   5.403   2.768 -0.1539  1.7744  0.2824
14971SOL     OW46353   3.725   2.252   2.387  0.0500 -0.4704 -0.5128
14971SOL    HW146354   3.671   2.319   2.430  0.1702 -0.5401 -0.2532
14971SOL    HW246355   3.693   2.169   2.422  0.4747 -0.4988 -0.1912
14972SOL     OW46356   2.571   6.199   0.588 -0.5934 -0.0706 -0.3509
14972SOL    HW146357   2.483   6.182   0.622 -0.2202 -0.2552  0.5547
14972SOL    HW246358   2.577   6.144   0.509 -1.4973  0.4171 -0.7778
14973SOL     OW46359   2.905   3.439   2.006  0.2247 -0.0887 -0.0401
14973SOL    HW146360   2.935   3.442   1.916  1.1121 -0.4005  0.2394
14973SOL    HW246361   2.893   3.346   2.025 -1.3186  0.0439 -0.2670
14974SOL     OW46362   3.876   2.883  11.206 -0.3954  0.0055  0.1526
14974SOL    HW146363   3.917   2.871  11.120  0.9408 -1.9807  1.0114
14974SOL    HW246364   3.809   2.815  11.210 -1.7054  1.2322  0.0286
14975SOL     OW46365   5.696   4.607  11.977 -0.1092 -0.3732 -0.2213
14975SOL    HW146366   5.763   4.635  11.915  0.0615  0.1341  0.1899
14975SOL    HW246367   5.739   4.612  12.062 -0.1186 -1.7165 -0.1060
14976SOL     OW46368   3.882   3.894   1.809  0.2450  0.0474  0.1530
14976SOL    HW146369   3.798   3.886   1.853  0.1184  1.7278  0.2953
14976SOL    HW246370   3.860   3.910   1.717  0.3698  0.9993  0.2768
14977SOL     OW46371   3.836   3.619   7.635 -0.3087 -0.0428 -0.2452
14977SOL    HW146372   3.774   3.579   7.574 -0.1872  0.1427 -0.4900
14977SOL    HW246373   3.801   3.706   7.651 -1.6110 -0.8537  1.7536
14978SOL     OW46374   6.849   7.238   1.455 -0.2253  0.1698  0.3058
14978SOL    HW146375   6.756   7.220   1.444 -1.0097  3.0890  1.0668
14978SOL    HW246376   6.867   7.307   1.391  0.8109  1.2223  1.6748
14979SOL     OW46377   5.157   0.353   5.433 -1.1209  0.4310  0.1358
14979SOL    HW146378   5.152   0.417   5.504 -0.3660  0.2060  0.3998
14979SOL    HW246379   5.200   0.400   5.361  1.9575 -0.4935  1.2166
14980SOL     OW46380   5.739   6.547   7.959  0.2884 -0.1569  0.9591
14980SOL    HW146381   5.667   6.570   7.901 -0.5260 -0.0240  1.9966
14980SOL    HW246382   5.757   6.627   8.008  1.3112 -0.1203  0.5452
14981SOL     OW46383   6.410   3.727   6.898  0.2677 -0.3519 -0.2884
14981SOL    HW146384   6.378   3.750   6.811 -0.6105 -0.8210 -0.0956
14981SOL    HW246385   6.343   3.670   6.935  0.0951  0.7006  1.1253
14982SOL     OW46386   5.930   7.135   2.452 -0.3513 -0.4491  0.2864
14982SOL    HW146387   5.918   7.217   2.500  1.1976 -0.2739  0.4052
14982SOL    HW246388   5.909   7.158   2.361 -2.3764 -0.5590  0.6719
14983SOL     OW46389   0.263   1.946   9.632  0.2745  0.0778 -0.0168
14983SOL    HW146390   0.332   1.892   9.671  1.6291  1.8978  0.2188
14983SOL    HW246391   0.286   2.036   9.654 -2.6612  0.7556  0.8060
14984SOL     OW46392   7.348   1.529   9.954 -0.9968  0.3905 -0.0113
14984SOL    HW146393   7.356   1.573   9.869 -1.4975  0.3753 -0.0693
14984SOL    HW246394   7.325   1.439   9.932  0.9657 -0.1696  0.0741
14985SOL     OW46395   4.183   1.883   6.608  0.0279 -0.5914 -0.3037
14985SOL    HW146396   4.121   1.945   6.569  0.0724  0.8446  1.7426
14985SOL    HW246397   4.217   1.929   6.685  4.1617 -1.0329 -1.6380
14986SOL     OW46398   1.474   6.046   9.718 -0.1542 -0.4622 -0.4391
14986SOL    HW146399   1.412   5.973   9.705  1.2209 -1.3404 -2.8626
14986SOL    HW246400   1.523   6.050   9.635  3.3498 -0.1458  1.4423
14987SOL     OW46401   1.393   5.359   9.737  0.2698  0.6404 -0.8806
14987SOL    HW146402   1.404   5.431   9.674  2.7029 -0.6868 -2.0964
14987SOL    HW246403   1.300   5.362   9.760  0.2156  3.9822 -1.0578
14988SOL     OW46404   4.452   5.082   4.828 -0.5369  0.4660 -0.7750
14988SOL    HW146405   4.441   5.055   4.737  0.4075  0.4906 -0.9034
14988SOL    HW246406   4.365   5.070   4.867 -0.3837 -1.9255 -1.0407
14989SOL     OW46407   4.299   3.935   1.193  0.0684  0.2413  0.2432
14989SOL    HW146408   4.329   3.964   1.107  1.4987 -1.1284  0.2208
14989SOL    HW246409   4.208   3.911   1.181 -0.4718  2.3709 -0.2738
14990SOL     OW46410   0.939   0.245   2.197 -0.0339  0.1259 -0.3363
14990SOL    HW146411   0.954   0.196   2.278 -0.4145 -1.3760 -1.1266
14990SOL    HW246412   1.026   0.254   2.158  0.0218 -0.0952 -0.2661
14991SOL     OW46413   6.004   6.994   4.285  0.0020 -0.2002  0.0083
14991SOL    HW146414   6.073   7.057   4.268 -0.7437  1.0005  1.1976
14991SOL    HW246415   6.046   6.924   4.335  0.4367  0.3300  0.3863
14992SOL     OW46416   5.112   0.656   2.983 -0.7270 -0.4349  0.1950
14992SOL    HW146417   5.181   0.717   2.958  0.5254 -1.5555  0.8118
14992SOL    HW246418   5.150   0.569   2.970 -1.4434 -1.0786  2.0452
14993SOL     OW46419   7.391   7.594  10.809  0.0126 -0.7691 -0.0745
14993SOL    HW146420   7.381   7.520  10.868 -0.2016  0.5379  1.6033
14993SOL    HW246421   7.443   7.658  10.858 -1.5728  1.0382 -0.6280
14994SOL     OW46422   2.055   6.491   8.010  0.6298  0.1983  0.1184
14994SOL    HW146423   2.108   6.412   8.001  1.1974  0.1450  3.0179
14994SOL    HW246424   2.079   6.545   7.935  0.3732 -2.2319 -1.8537
14995SOL     OW46425   3.654   2.068   9.337  0.3932 -0.1137  0.0363
14995SOL    HW146426   3.690   2.059   9.426  0.1831 -2.0609 -0.0352
14995SOL    HW246427   3.726   2.041   9.280  0.1700  0.0736 -0.3321
14996SOL     OW46428   5.954   2.611   7.379 -0.2382 -0.2132  0.1154
14996SOL    HW146429   5.902   2.680   7.337  1.4945  0.0779 -1.7647
14996SOL    HW246430   5.891   2.557   7.425 -2.0088  0.9188 -0.8750
14997SOL     OW46431   2.181   5.687   1.809  0.0773  0.0215  0.4314
14997SOL    HW146432   2.199   5.602   1.768  0.4980 -0.0736  0.8107
14997SOL    HW246433   2.262   5.710   1.854 -0.2053  0.3833  0.7639
14998SOL     OW46434   6.718   1.157   6.306 -0.7064 -0.4494  0.6281
14998SOL    HW146435   6.728   1.062   6.302 -1.2879 -0.5111  0.5969
14998SOL    HW246436   6.748   1.188   6.221  4.4579 -0.1118  2.2354
14999SOL     OW46437   7.862   2.858   5.761 -0.3299 -0.2653 -0.1054
14999SOL    HW146438   7.926   2.836   5.829 -0.5109 -1.3180 -0.2519
14999SOL    HW246439   7.906   2.836   5.679  0.2939  2.0006 -0.4461
15000SOL     OW46440   6.818   5.137   8.978  0.1767 -0.1370  0.2182
15000SOL    HW146441   6.886   5.073   8.999  1.1401  1.0056  0.6958
15000SOL    HW246442   6.840   5.215   9.029 -1.0243  0.5580 -0.2494
15001SOL     OW46443   6.712   6.189   7.727  0.2282 -0.0190  0.0117
15001SOL    HW146444   6.802   6.159   7.742  0.1856 -0.3908 -0.4524
15001SOL    HW246445   6.696   6.172   7.634 -1.0465 -2.0182  0.5160
15002SOL     OW46446   2.285   2.476  11.946 -0.0530 -0.0340  0.0898
15002SOL    HW146447   2.380   2.466  11.949 -0.0697 -0.3575 -0.4046
15002SOL    HW246448   2.258   2.467  12.038  0.5053  1.3331  0.4127
15003SOL     OW46449   0.021   7.250   9.267 -0.1285  0.2796 -1.2358
15003SOL    HW146450  -0.017   7.330   9.304 -1.1691 -1.2892  1.2956
15003SOL    HW246451   0.017   7.264   9.172  0.0206  3.3276 -0.9033
15004SOL     OW46452   2.648   4.382  10.513 -0.3098  0.5249  0.4530
15004SOL    HW146453   2.741   4.401  10.504 -0.5639  1.2713 -0.7969
15004SOL    HW246454   2.635   4.300  10.465 -0.3054  0.4256  0.6194
15005SOL     OW46455   5.778   1.303   5.951  0.2708  0.0616 -0.5654
15005SOL    HW146456   5.717   1.322   5.880  0.8198 -0.5735 -1.2197
15005SOL    HW246457   5.725   1.259   6.017 -0.6309  2.1599  0.2131
15006SOL     OW46458   7.053   6.986   1.765 -0.6175 -0.1661 -0.0647
15006SOL    HW146459   7.076   6.944   1.682  0.2026  1.7535 -0.8654
15006SOL    HW246460   7.022   6.914   1.820  2.0834 -2.0945 -0.8257
15007SOL     OW46461   7.189   6.274   2.513  0.4872  0.3656 -0.5510
15007SOL    HW146462   7.111   6.325   2.493  0.0892 -0.0814 -0.1922
15007SOL    HW246463   7.237   6.326   2.577  1.6422  1.6842 -2.4283
15008SOL     OW46464   5.409   5.392   7.417  0.3875 -0.1905 -0.6128
15008SOL    HW146465   5.448   5.323   7.364  1.7714  0.1737 -0.1234
15008SOL    HW246466   5.423   5.472   7.366 -1.1728 -0.2411 -1.1627
15009SOL     OW46467   1.215   1.051   7.176 -0.0854 -0.0060 -0.2843
15009SOL    HW146468   1.241   1.019   7.262 -0.7045  0.1555 -0.0348
15009SOL    HW246469   1.120   1.049   7.177 -0.1000  0.1060 -0.9261
15010SOL     OW46470   7.320   6.774   6.330  0.0200 -0.0167 -0.1171
15010SOL    HW146471   7.405   6.733   6.349  1.2122  2.3264  0.0553
15010SOL    HW246472   7.307   6.835   6.403 -0.8858  0.9879 -1.0922
15011SOL     OW46473   5.698   5.415  11.738  0.5902  0.2640  0.1444
15011SOL    HW146474   5.680   5.333  11.693  1.5498  0.7074 -1.1538
15011SOL    HW246475   5.716   5.391  11.829 -1.0332 -0.7170  0.2300
15012SOL     OW46476   3.842   4.761   2.329  0.0519  0.1695  0.3157
15012SOL    HW146477   3.786   4.756   2.252  0.9139  1.1035 -0.4074
15012SOL    HW246478   3.868   4.671   2.346  1.0110  0.0699 -1.4148
15013SOL     OW46479   5.617   0.906   8.710 -0.4883 -0.1450 -0.2369
15013SOL    HW146480   5.572   0.946   8.785 -0.6163  1.1930 -0.9949
15013SOL    HW246481   5.552   0.846   8.674 -1.1126  0.5615 -0.3397
15014SOL     OW46482   2.176   4.169   9.723  0.1156 -0.8123 -0.1364
15014SOL    HW146483   2.167   4.128   9.636 -0.5431  0.1873 -0.5479
15014SOL    HW246484   2.271   4.174   9.736  0.2288 -0.6430 -0.9582
15015SOL     OW46485   5.826   7.609  10.023 -0.3447 -0.1526  0.2218
15015SOL    HW146486   5.876   7.534  10.053  0.4594  0.1296 -0.3559
15015SOL    HW246487   5.867   7.634   9.940 -0.5473  0.9584  0.4299
15016SOL     OW46488   5.404   7.065   2.647  0.2165 -0.6474  0.4398
15016SOL    HW146489   5.458   7.126   2.596  0.2299 -0.3870  0.7581
15016SOL    HW246490   5.417   6.980   2.605  2.5543 -1.0323  1.7265
15017SOL     OW46491   5.963   5.679   6.339 -0.0181 -0.0049 -0.5743
15017SOL    HW146492   5.930   5.769   6.339 -0.4057 -0.1297  0.4546
15017SOL    HW246493   6.025   5.677   6.412  1.4697 -0.0766 -1.7876
15018SOL     OW46494   0.257   6.824   4.320 -0.7716  0.7124  0.2289
15018SOL    HW146495   0.279   6.915   4.343  1.5279  0.1604  0.4457
15018SOL    HW246496   0.301   6.810   4.236  1.7666 -1.1368  1.7298
15019SOL     OW46497   5.951   2.877  11.218  0.4337  0.8434 -0.2329
15019SOL    HW146498   5.933   2.852  11.128  1.7542 -0.2877 -0.2113
15019SOL    HW246499   6.047   2.874  11.225  0.3122 -0.7252  1.6386
15020SOL     OW46500   3.755   6.513   7.046  0.3266 -0.0173 -0.1630
15020SOL    HW146501   3.663   6.536   7.057  0.5319 -0.1639  2.3127
15020SOL    HW246502   3.767   6.508   6.951 -2.2879 -0.3701 -0.5374
15021SOL     OW46503   3.030   0.416   9.895  0.8906 -0.1025  0.1371
15021SOL    HW146504   3.113   0.460   9.912  0.9939  0.0184 -0.6438
15021SOL    HW246505   2.989   0.406   9.981  1.9102 -0.5656  0.5800
15022SOL     OW46506   0.933   1.216   1.187  0.3070 -0.3507 -0.0795
15022SOL    HW146507   0.976   1.144   1.141  0.3182  0.4678 -1.4004
15022SOL    HW246508   0.961   1.206   1.278 -0.2039 -2.3712 -0.0970
15023SOL     OW46509   5.511   0.459  11.634 -0.3648  0.4112  0.1566
15023SOL    HW146510   5.585   0.515  11.657  0.0379  0.5949 -1.4439
15023SOL    HW246511   5.466   0.506  11.564 -0.1612 -1.0862 -1.0588
15024SOL     OW46512   4.043   5.631  10.646  0.1820  0.3599 -0.5292
15024SOL    HW146513   4.108   5.613  10.578  2.3196  1.1282  1.1946
15024SOL    HW246514   4.037   5.727  10.648 -0.8248  0.3085 -0.4577
15025SOL     OW46515   2.041   7.360   7.425 -0.1222  0.0347  0.2730
15025SOL    HW146516   2.056   7.268   7.405 -0.8751  0.1846 -1.1393
15025SOL    HW246517   1.946   7.371   7.417 -0.1799  0.7010  1.5555
15026SOL     OW46518   4.209   5.779   2.432 -0.1852  0.2119 -0.3682
15026SOL    HW146519   4.152   5.701   2.432 -0.2224  0.2349 -1.0080
15026SOL    HW246520   4.191   5.822   2.348 -0.2049  0.9467  0.0052
15027SOL     OW46521   4.833   5.191   5.515 -0.0860  0.1509  0.4076
15027SOL    HW146522   4.904   5.131   5.535  0.3169  0.1930 -0.8310
15027SOL    HW246523   4.756   5.135   5.504 -0.3161  0.1213  1.9238
15028SOL     OW46524   1.072   5.364   1.267 -0.0373  0.1741  0.2214
15028SOL    HW146525   1.151   5.381   1.214 -1.2992 -0.6382 -2.0513
15028SOL    HW246526   1.103   5.309   1.338  1.7235  1.2028  0.3201
15029SOL     OW46527   7.116   2.419   9.109  0.1468  0.1568  0.3445
15029SOL    HW146528   7.040   2.427   9.166  0.0992 -0.0278  0.3074
15029SOL    HW246529   7.092   2.349   9.047  0.7329 -0.5960  0.9452
15030SOL     OW46530   3.050   6.036   9.482  0.1546 -0.3375 -0.0827
15030SOL    HW146531   3.106   5.994   9.416  0.7274 -0.5582  0.5370
15030SOL    HW246532   3.101   6.111   9.512  0.0301 -0.4219  0.3365
15031SOL     OW46533   0.781   1.781  12.135 -0.1087 -0.1758 -0.2157
15031SOL    HW146534   0.690   1.785  12.105 -1.0183  0.8187  2.3942
15031SOL    HW246535   0.814   1.870  12.124  0.9329 -0.7368 -2.0458
15032SOL     OW46536   6.193   4.282   6.168  0.2976 -0.4453  0.0980
15032SOL    HW146537   6.132   4.324   6.228 -0.8319 -0.9751 -0.6505
15032SOL    HW246538   6.157   4.195   6.154  0.2567 -0.1680 -1.7227
15033SOL     OW46539   4.745   7.533  10.660 -0.6629  0.5355 -0.0001
15033SOL    HW146540   4.734   7.440  10.640  1.9197  0.1735 -0.0156
15033SOL    HW246541   4.758   7.536  10.754 -0.6964  0.8966 -0.0050
15034SOL     OW46542   5.399   0.494   3.359 -0.0437  0.2006 -0.3721
15034SOL    HW146543   5.325   0.470   3.304  0.9021  1.7077 -2.4435
15034SOL    HW246544   5.389   0.589   3.372  0.1880  0.0090  1.4560
15035SOL     OW46545   2.761   0.323  12.066 -0.6935  0.0955 -0.1607
15035SOL    HW146546   2.841   0.343  12.114  0.4028 -0.6725 -1.6101
15035SOL    HW246547   2.735   0.236  12.096 -0.5156 -0.0017 -0.2867
15036SOL     OW46548   2.368   2.503  11.330 -0.2999 -0.0386  0.5833
15036SOL    HW146549   2.396   2.423  11.285  1.1419  0.5336  0.4355
15036SOL    HW246550   2.318   2.471  11.406 -0.7457 -1.0454 -0.1157
15037SOL     OW46551   3.734   0.450   0.022 -0.5906 -0.3791 -0.3243
15037SOL    HW146552   3.802   0.422   0.083  0.2266  0.4120 -0.8460
15037SOL    HW246553   3.773   0.438  -0.065 -0.1994  2.2335 -0.5822
15038SOL     OW46554   7.467   5.629   5.334  0.1902 -0.0457 -0.4789
15038SOL    HW146555   7.557   5.624   5.302  0.5406  0.6408  0.3731
15038SOL    HW246556   7.432   5.709   5.295  0.1577  0.0306 -0.2942
15039SOL     OW46557   4.540   0.751  10.558  0.2781 -0.0922 -0.0756
15039SOL    HW146558   4.558   0.657  10.563 -2.1213 -0.6414 -0.3045
15039SOL    HW246559   4.489   0.770  10.637 -0.7766  0.6076 -0.8966
15040SOL     OW46560   7.975   2.435  11.945 -0.0336 -0.0381 -0.0740
15040SOL    HW146561   8.006   2.438  11.855 -0.7320 -0.4751 -0.3383
15040SOL    HW246562   7.885   2.468  11.941 -0.3324 -0.7560  0.3315
15041SOL     OW46563   1.712   1.433   4.144  0.7545  0.0886  0.4689
15041SOL    HW146564   1.790   1.401   4.190 -0.0271 -0.4548  1.4516
15041SOL    HW246565   1.704   1.525   4.171 -0.1060 -0.4168  2.0422
15042SOL     OW46566   7.467   0.070  11.032  0.2223  0.0705  0.1580
15042SOL    HW146567   7.403   0.070  11.102 -0.3327 -1.6069 -0.3009
15042SOL    HW246568   7.477   0.162  11.009 -2.0904  0.3974  0.1891
15043SOL     OW46569   7.481   2.380   7.841  0.0906 -0.2598  0.0399
15043SOL    HW146570   7.492   2.305   7.899  1.0753 -0.9354 -0.9590
15043SOL    HW246571   7.570   2.401   7.812 -0.1766  1.2797  0.2700
15044SOL     OW46572   4.626   5.247  11.858  0.5467 -0.7985  0.0113
15044SOL    HW146573   4.555   5.299  11.822  2.0932  1.2384 -0.2897
15044SOL    HW246574   4.600   5.156  11.843 -1.8326 -0.1155 -0.2917
15045SOL     OW46575   2.954   7.901   4.639  0.6331 -0.2458  0.1215
15045SOL    HW146576   2.866   7.918   4.672  0.1835 -0.2381 -1.0629
15045SOL    HW246577   3.006   7.975   4.671 -0.3064  0.9923 -1.0949
15046SOL     OW46578   4.247   0.830   3.111 -0.5428 -0.1789 -0.3353
15046SOL    HW146579   4.320   0.860   3.056 -1.0024 -0.2204 -0.9798
15046SOL    HW246580   4.184   0.794   3.049 -1.6810  0.9979  0.0843
15047SOL     OW46581   5.022   2.217   6.493  0.1147 -0.4414 -0.6967
15047SOL    HW146582   5.032   2.305   6.458 -1.2844 -0.8258 -2.1621
15047SOL    HW246583   4.930   2.196   6.480  0.7879 -2.8403 -2.1285
15048SOL     OW46584   1.316   1.373   0.701 -0.0429  0.1876 -0.0344
15048SOL    HW146585   1.344   1.433   0.631 -3.0487  2.2441  0.3549
15048SOL    HW246586   1.398   1.346   0.743  1.6282  1.6686 -2.0924
15049SOL     OW46587   4.380   5.306   6.669 -0.1892 -0.1065 -0.4753
15049SOL    HW146588   4.425   5.325   6.586  1.2152 -0.1519  0.2410
15049SOL    HW246589   4.420   5.224   6.698  1.5609  1.3901  1.7011
15050SOL     OW46590   5.362   6.492  10.192 -0.6211  0.2987  0.0670
15050SOL    HW146591   5.326   6.413  10.232 -1.5817  0.5944 -0.1884
15050SOL    HW246592   5.442   6.509  10.241 -0.2467 -0.9932 -0.0661
15051SOL     OW46593   2.972   7.313   5.624  0.2145 -0.9357  0.2894
15051SOL    HW146594   2.960   7.237   5.680 -1.3551 -2.6198 -2.1292
15051SOL    HW246595   2.982   7.277   5.536 -1.4060  1.6563 -1.0820
15052SOL     OW46596   5.546   6.148   8.099  0.1211 -0.3678  0.0201
15052SOL    HW146597   5.620   6.208   8.092  0.4971 -0.7645  0.5662
15052SOL    HW246598   5.515   6.138   8.009 -1.0056  1.9429  0.0725
15053SOL     OW46599   0.164   4.216   1.091  0.7017  0.0935 -0.4079
15053SOL    HW146600   0.160   4.153   1.018 -1.7856 -1.1350  0.6823
15053SOL    HW246601   0.249   4.198   1.132 -0.4968 -3.9212  0.8586
15054SOL     OW46602   0.926   3.786   7.521  0.5801  0.4569 -0.2610
15054SOL    HW146603   0.888   3.798   7.608  1.4081 -0.4001  0.2361
15054SOL    HW246604   1.005   3.839   7.522 -0.7467  2.6388 -1.4644
15055SOL     OW46605   0.562   7.189   0.949 -0.0748 -0.1850 -0.1519
15055SOL    HW146606   0.523   7.253   1.009  1.6483  0.5021  0.2955
15055SOL    HW246607   0.655   7.211   0.948  0.0981 -0.7875 -2.3623
15056SOL     OW46608   4.320   6.326   2.988  0.6796  0.0217  0.4205
15056SOL    HW146609   4.397   6.325   2.931 -0.3025  0.7870 -0.9904
15056SOL    HW246610   4.339   6.393   3.054  0.0820  2.4520 -1.6978
15057SOL     OW46611   4.653   0.058   3.409  0.1388  0.1588  0.4523
15057SOL    HW146612   4.691   0.064   3.322  0.7010  0.6399  0.7259
15057SOL    HW246613   4.728   0.046   3.468 -0.2254 -0.0709  0.8843
15058SOL     OW46614   3.616   2.064   3.296  0.4213  0.2451  0.1866
15058SOL    HW146615   3.699   2.065   3.343 -0.6427  0.0338  2.1617
15058SOL    HW246616   3.619   1.985   3.242  1.5240  0.2857  0.1714
15059SOL     OW46617   3.770   5.660   9.379  0.3190 -0.6048 -0.4911
15059SOL    HW146618   3.692   5.665   9.434  0.8861  1.0169  0.2513
15059SOL    HW246619   3.741   5.695   9.295  1.0027  3.9566  0.8643
15060SOL     OW46620   6.657   1.732   1.806 -0.6138 -0.2663 -0.4760
15060SOL    HW146621   6.609   1.807   1.842 -0.8565 -0.6970  0.0949
15060SOL    HW246622   6.742   1.770   1.780 -1.0138  0.3631 -0.9161
15061SOL     OW46623   4.565   5.528   7.248 -0.2117 -0.5938 -0.9840
15061SOL    HW146624   4.595   5.484   7.328  0.6737 -0.5948 -1.3049
15061SOL    HW246625   4.635   5.513   7.185 -0.8264 -0.4487 -1.7186
15062SOL     OW46626   4.673   7.376   9.945  0.0273 -0.0065  0.3629
15062SOL    HW146627   4.716   7.317   9.884  0.8331  0.0235  0.8944
15062SOL    HW246628   4.674   7.330  10.029  1.3529  1.0535  0.9675
15063SOL     OW46629   7.595   2.638  10.672 -0.2749  0.2996 -0.3062
15063SOL    HW146630   7.650   2.619  10.748 -0.7867  1.1507  0.2912
15063SOL    HW246631   7.588   2.555  10.626 -0.4799 -0.3865  0.9274
15064SOL     OW46632   3.463   6.716   4.677 -0.1395 -0.2808  0.3003
15064SOL    HW146633   3.471   6.732   4.771 -2.6459  0.2487  0.4900
15064SOL    HW246634   3.547   6.678   4.652  0.8713  0.2742  2.5884
15065SOL     OW46635   4.099   4.884  12.416  0.7277 -0.2214  0.7211
15065SOL    HW146636   4.091   4.796  12.379  0.0820 -0.2323  0.8810
15065SOL    HW246637   4.037   4.937  12.365  1.9091  0.3951 -0.1290
15066SOL     OW46638   3.865   6.874   7.214 -0.2001  0.3154 -0.3497
15066SOL    HW146639   3.821   6.792   7.192 -1.7053  1.5883 -2.4388
15066SOL    HW246640   3.799   6.923   7.263 -0.1671  1.1639 -1.1290
15067SOL     OW46641   0.897   6.007   6.013 -0.5925 -0.9080 -0.2641
15067SOL    HW146642   0.857   5.978   5.931 -0.6277  1.4956 -1.1850
15067SOL    HW246643   0.991   6.003   5.996 -0.5698 -1.4121 -0.0322
15068SOL     OW46644   7.906   7.079   2.821  0.2399  0.1187  0.3814
15068SOL    HW146645   7.886   7.146   2.755  0.2450  0.8081  1.0683
15068SOL    HW246646   7.983   7.112   2.867  1.5456 -1.3733 -0.6398
15069SOL     OW46647   7.878   4.525   2.175 -0.1084  0.1891  0.6312
15069SOL    HW146648   7.972   4.542   2.171  0.2255 -1.4747  0.6213
15069SOL    HW246649   7.839   4.600   2.130  1.2684  0.4387 -0.2312
15070SOL     OW46650   1.000   1.886   6.825 -0.0968  0.4028 -0.2440
15070SOL    HW146651   1.012   1.827   6.901  1.7076 -0.0143 -0.7879
15070SOL    HW246652   1.015   1.829   6.749  0.0386  1.2191 -0.8327
15071SOL     OW46653   1.367   7.960   0.399 -0.0550 -0.2647  0.6949
15071SOL    HW146654   1.441   8.020   0.393 -0.3068  0.1123  1.2048
15071SOL    HW246655   1.397   7.889   0.456  0.9251 -1.6946 -1.4721
15072SOL     OW46656   4.150   1.485   2.218 -0.7798 -0.3425 -0.0448
15072SOL    HW146657   4.178   1.575   2.200  0.1087 -0.3876  1.0290
15072SOL    HW246658   4.066   1.494   2.262 -0.3484  0.0092  0.7243
15073SOL     OW46659   1.293   4.732   1.554 -0.7290  0.1904  0.2932
15073SOL    HW146660   1.333   4.685   1.627 -0.8071 -0.0413  0.1904
15073SOL    HW246661   1.222   4.674   1.524 -0.3782  0.0485 -0.2845
15074SOL     OW46662   2.054   1.255   4.786 -0.1157  0.3738 -0.3158
15074SOL    HW146663   2.033   1.167   4.817  2.8057 -0.3403 -0.0808
15074SOL    HW246664   2.040   1.251   4.691 -1.0144 -0.0021 -0.1777
15075SOL     OW46665   5.224   2.745   3.011 -0.1316 -0.0451  0.4635
15075SOL    HW146666   5.190   2.755   3.100 -1.3970  0.1129 -0.0251
15075SOL    HW246667   5.315   2.718   3.024 -0.7768 -1.7615  1.8164
15076SOL     OW46668   2.132   3.889  12.406 -0.1045  0.2689 -0.0525
15076SOL    HW146669   2.200   3.869  12.341 -0.0740 -1.0329  0.3455
15076SOL    HW246670   2.058   3.833  12.381 -1.5813  2.5431 -1.2268
15077SOL     OW46671   5.572   4.647   9.924  0.3466 -0.2959  0.4212
15077SOL    HW146672   5.644   4.591   9.951  1.5110  1.5985  1.5108
15077SOL    HW246673   5.512   4.589   9.876  0.8531 -2.6825  2.4720
15078SOL     OW46674   0.917   3.563   6.866  0.3329 -0.1172 -0.2591
15078SOL    HW146675   0.937   3.589   6.956  0.0223 -3.0095  0.7421
15078SOL    HW246676   0.992   3.594   6.815  0.8557  0.9455  1.1096
15079SOL     OW46677   6.749   4.807  10.979  0.2760  0.0356 -0.0359
15079SOL    HW146678   6.801   4.859  11.040  1.0271 -2.4799  1.6547
15079SOL    HW246679   6.809   4.785  10.908  0.5868 -0.2650  0.3175
15080SOL     OW46680   1.668   7.751   4.984 -0.3879 -0.4539 -0.2065
15080SOL    HW146681   1.681   7.835   5.028 -0.1010  0.1820 -1.4721
15080SOL    HW246682   1.639   7.773   4.896  2.4149 -1.5475 -1.5187
15081SOL     OW46683   5.416   4.681   8.325 -0.2320  0.0961  0.7639
15081SOL    HW146684   5.448   4.721   8.244 -1.7045  0.2072  0.2107
15081SOL    HW246685   5.396   4.590   8.301  1.5134 -0.5517  1.6023
15082SOL     OW46686   6.904   7.606   7.684  0.0400 -0.1254 -0.8604
15082SOL    HW146687   6.943   7.665   7.619 -3.0149  3.1104 -0.0079
15082SOL    HW246688   6.857   7.541   7.631  0.7413  0.1294 -1.8352
15083SOL     OW46689   0.121   3.506  10.696  0.4579  0.0999 -0.1968
15083SOL    HW146690   0.075   3.513  10.613 -0.3232  1.3165  0.3020
15083SOL    HW246691   0.213   3.512  10.674  0.2429  0.6584 -0.9572
15084SOL     OW46692   5.746   0.626   8.183  0.5301  0.1528  0.1757
15084SOL    HW146693   5.719   0.631   8.275  2.0371  0.0745  0.6483
15084SOL    HW246694   5.780   0.713   8.163 -2.4857  1.1542 -1.2703
15085SOL     OW46695   3.492   7.443   8.997  0.2811  0.0110 -0.1856
15085SOL    HW146696   3.507   7.402   9.082 -2.5037  1.9215  1.3606
15085SOL    HW246697   3.464   7.371   8.940  0.0151 -0.9523  1.1187
15086SOL     OW46698   0.511   0.098   2.556 -0.2595  0.1673  0.2714
15086SOL    HW146699   0.549   0.018   2.593  0.1828  0.4192  0.3786
15086SOL    HW246700   0.421   0.100   2.589  0.4867  1.0268  2.3959
15087SOL     OW46701   3.929   0.692   2.770  0.2476  0.4240  0.2761
15087SOL    HW146702   3.889   0.607   2.786  0.4255  0.3126  0.1412
15087SOL    HW246703   3.858   0.755   2.780  0.0056  0.2161 -0.1001
15088SOL     OW46704   4.213   0.124   2.694  0.0110  0.1291 -0.5477
15088SOL    HW146705   4.256   0.039   2.702 -0.2918  0.0065 -0.2459
15088SOL    HW246706   4.258   0.180   2.757 -1.0080 -0.2943  0.5773
15089SOL     OW46707   2.107   3.419   2.320  0.1679  0.1885  0.0423
15089SOL    HW146708   2.142   3.367   2.392 -1.1374  0.9042  1.2394
15089SOL    HW246709   2.033   3.369   2.286 -0.0829  0.4979  0.1235
15090SOL     OW46710   1.909   0.970   5.784 -0.1552 -0.1968  0.1381
15090SOL    HW146711   1.851   1.026   5.733  0.8751  1.1720  0.4085
15090SOL    HW246712   1.969   0.932   5.719 -0.3102 -0.3041  0.0574
15091SOL     OW46713   2.860   3.974  11.642  0.3461  0.0179 -1.1121
15091SOL    HW146714   2.876   3.919  11.565  0.5289 -2.4132  0.5560
15091SOL    HW246715   2.945   4.013  11.661  0.9656 -1.5209 -0.5999
15092SOL     OW46716   0.445   6.999   1.933  0.3649  0.4069 -0.5388
15092SOL    HW146717   0.473   6.926   1.989 -0.4079  0.0926 -0.5488
15092SOL    HW246718   0.389   7.052   1.990  0.1398  0.4642 -0.8121
15093SOL     OW46719   5.463   0.713   6.142  0.0825  0.0647 -0.3291
15093SOL    HW146720   5.461   0.755   6.228 -0.9240 -0.9207  0.1554
15093SOL    HW246721   5.545   0.663   6.141  1.2398  1.8501 -0.8670
15094SOL     OW46722   7.576   0.071   9.336 -0.8177 -0.4959  0.5590
15094SOL    HW146723   7.663   0.073   9.377  0.3547  1.7175 -1.7578
15094SOL    HW246724   7.569  -0.017   9.299  0.7153 -0.5156  0.2512
15095SOL     OW46725   6.546   5.324   4.021 -0.2911 -0.0485 -0.3228
15095SOL    HW146726   6.590   5.366   4.095 -1.0111 -0.9492  0.6615
15095SOL    HW246727   6.495   5.254   4.061 -2.6244  0.9374 -1.3787
15096SOL     OW46728   7.118   5.313   7.392  0.4422  0.4084 -0.2303
15096SOL    HW146729   7.055   5.245   7.416  1.1355 -1.1144 -2.3916
15096SOL    HW246730   7.149   5.287   7.305  2.4824  2.2505 -0.1384
15097SOL     OW46731   1.840   5.306   6.786  0.0982  0.4622  0.2690
15097SOL    HW146732   1.804   5.364   6.719 -0.6707  0.8852  1.0275
15097SOL    HW246733   1.874   5.365   6.854  1.9273  0.0717 -0.2396
15098SOL     OW46734   6.928   4.791   3.819  0.3302  0.6334  0.4172
15098SOL    HW146735   6.933   4.697   3.800  0.2826  0.7532 -0.1996
15098SOL    HW246736   6.957   4.799   3.910 -2.5101 -0.3497  1.5416
15099SOL     OW46737   6.617   3.747  11.700 -0.1639  0.1904  0.8169
15099SOL    HW146738   6.598   3.655  11.721 -0.8503  0.2019  0.2387
15099SOL    HW246739   6.560   3.768  11.627  2.3081  0.0873 -1.3110
15100SOL     OW46740   1.933   2.373   6.590 -0.3609 -0.1082 -0.0911
15100SOL    HW146741   1.958   2.287   6.625 -1.1594 -0.5850 -0.6864
15100SOL    HW246742   1.843   2.363   6.562 -0.1361  0.6378 -1.1309
15101SOL     OW46743   6.027   0.160   7.226  0.1221  0.3588 -0.4263
15101SOL    HW146744   5.978   0.082   7.203  0.9752  0.2943 -2.2048
15101SOL    HW246745   5.980   0.231   7.182 -0.9138  0.9638  1.5474
15102SOL     OW46746   3.900   7.203   3.233 -0.1818 -0.4200 -0.0227
15102SOL    HW146747   3.871   7.151   3.308  0.6067  0.1523  0.7023
15102SOL    HW246748   3.828   7.197   3.170 -0.6938 -1.2295  0.6128
15103SOL     OW46749   5.229   6.942   4.399  0.0873  0.2365  0.5129
15103SOL    HW146750   5.289   6.880   4.440 -0.2242 -0.4861 -0.1143
15103SOL    HW246751   5.280   7.022   4.389  0.3523  0.2430  1.7534
15104SOL     OW46752   3.696   0.196  12.058 -0.3657 -0.1249  0.2477
15104SOL    HW146753   3.710   0.109  12.095 -1.9711  0.1337  1.6249
15104SOL    HW246754   3.764   0.250  12.098 -0.2043 -0.4811  0.4545
15105SOL     OW46755   2.926   2.780   7.474  0.7611 -0.5615 -0.2129
15105SOL    HW146756   3.019   2.800   7.481  0.5678  0.0571  0.8620
15105SOL    HW246757   2.892   2.843   7.410  1.0692 -0.7634 -0.5761
15106SOL     OW46758   4.007   7.454   6.082  0.4301 -0.5296 -0.2384
15106SOL    HW146759   3.988   7.461   5.989  1.6839  0.2005 -0.4631
15106SOL    HW246760   3.924   7.429   6.122 -0.5442  0.8170 -1.3409
15107SOL     OW46761   3.546   3.215   5.948 -0.2042 -0.2418 -0.0353
15107SOL    HW146762   3.580   3.304   5.957 -0.5880 -0.2128  1.2375
15107SOL    HW246763   3.606   3.161   6.000 -0.0601 -0.7202 -0.6783
15108SOL     OW46764   1.299   1.212   2.280 -0.8752 -0.0655  0.5940
15108SOL    HW146765   1.346   1.293   2.257 -2.2127  0.0319 -2.1207
15108SOL    HW246766   1.354   1.142   2.245 -0.2955 -0.3192  1.9354
15109SOL     OW46767   7.638   7.087  10.700  0.6355  0.3424 -0.0369
15109SOL    HW146768   7.637   7.026  10.773  1.6773 -1.1525 -1.2271
15109SOL    HW246769   7.725   7.127  10.704  0.5829  0.4796 -0.2926
15110SOL     OW46770   0.265   4.080   2.597 -0.0726  0.0752 -0.7288
15110SOL    HW146771   0.239   3.994   2.564 -1.9341  0.6653 -0.9293
15110SOL    HW246772   0.185   4.116   2.635  1.1292  0.9520  1.0870
15111SOL     OW46773   2.617   3.281   0.780  0.0949  0.0331  0.1669
15111SOL    HW146774   2.564   3.202   0.785  0.1011  0.0530  0.5095
15111SOL    HW246775   2.561   3.345   0.736  0.3010 -0.3378 -0.6654
15112SOL     OW46776   6.683   3.884  11.190  0.3741 -0.0392  0.0276
15112SOL    HW146777   6.621   3.949  11.223  0.6478 -0.5447  1.6116
15112SOL    HW246778   6.679   3.812  11.253  2.4714 -0.1410  0.1212
15113SOL     OW46779   7.279   5.807   8.773  0.1016 -0.1809  0.3218
15113SOL    HW146780   7.263   5.734   8.713  1.8245 -0.0936 -0.3112
15113SOL    HW246781   7.211   5.800   8.839 -0.8596 -1.2730 -0.7373
15114SOL     OW46782   5.981   2.959   0.903 -0.1619  0.1841 -0.1454
15114SOL    HW146783   6.047   2.890   0.892  1.5435  2.0150 -2.4371
15114SOL    HW246784   5.991   2.989   0.993  0.8288 -0.8285  0.1030
15115SOL     OW46785   1.165   5.534   5.592 -0.0961 -0.1181 -0.2026
15115SOL    HW146786   1.112   5.567   5.664  0.5100 -1.1637  0.7383
15115SOL    HW246787   1.102   5.490   5.534 -0.4048 -0.4133  0.3555
15116SOL     OW46788   7.642   6.760   8.525  0.3153  0.2523  0.1873
15116SOL    HW146789   7.567   6.709   8.555  0.2987  0.5058  0.5878
15116SOL    HW246790   7.615   6.851   8.538 -0.4001  0.4670 -2.2158
15117SOL     OW46791   4.925   7.642   8.195  0.1638 -0.4216 -0.0495
15117SOL    HW146792   4.980   7.565   8.181 -0.0361 -0.5140 -0.3388
15117SOL    HW246793   4.884   7.626   8.279  0.2260 -0.5705 -0.0464
15118SOL     OW46794   1.283   2.674   8.544  0.5152 -0.5652  0.6678
15118SOL    HW146795   1.253   2.674   8.635 -2.9837 -0.8006 -0.3386
15118SOL    HW246796   1.276   2.583   8.516  1.8389 -0.5449  0.1813
15119SOL     OW46797   0.803   5.229   6.198  0.1038  0.0211 -0.0446
15119SOL    HW146798   0.718   5.186   6.208  0.6255 -1.0578 -0.1028
15119SOL    HW246799   0.806   5.251   6.105  0.4264 -1.1593 -0.3375
15120SOL     OW46800   4.937   5.318   1.957  0.3177 -0.4760  0.0721
15120SOL    HW146801   5.005   5.353   2.015  1.6492  0.5755 -1.9695
15120SOL    HW246802   4.971   5.233   1.929  1.0238  0.1614 -1.1533
15121SOL     OW46803   2.522   1.936   0.573  0.2799 -0.0561 -0.2080
15121SOL    HW146804   2.459   1.969   0.637 -0.5803  0.9447 -1.5016
15121SOL    HW246805   2.603   1.984   0.591 -0.6756  2.2056 -1.4298
15122SOL     OW46806   3.197   4.000  12.223  0.6152 -0.0425  0.2520
15122SOL    HW146807   3.164   4.045  12.301  1.6020 -0.0479  0.6885
15122SOL    HW246808   3.280   3.961  12.251  0.4481 -0.9858 -0.4987
15123SOL     OW46809   2.166   4.805   3.089 -0.3152 -0.8033  0.8694
15123SOL    HW146810   2.172   4.894   3.123  3.6912  0.1160 -1.5792
15123SOL    HW246811   2.152   4.816   2.995  0.2797 -2.7239  0.5065
15124SOL     OW46812   1.916   6.129   2.496  0.2134 -0.0022 -0.6553
15124SOL    HW146813   1.964   6.210   2.480 -1.6031  0.9557 -1.5510
15124SOL    HW246814   1.981   6.060   2.481  1.6192  1.2558 -0.5705
15125SOL     OW46815   2.848   1.142   1.506  0.3261  0.6377 -0.2537
15125SOL    HW146816   2.790   1.165   1.578  0.6083 -0.8164  0.4773
15125SOL    HW246817   2.815   1.058   1.475  1.8020 -0.0443 -0.0590
15126SOL     OW46818   0.419   3.576   7.221  0.0775  0.1541 -0.3103
15126SOL    HW146819   0.457   3.570   7.308 -0.7354 -1.5352 -0.0211
15126SOL    HW246820   0.330   3.607   7.235  0.4491  1.4504 -0.7167
15127SOL     OW46821   7.916   2.777   0.181 -0.3380  0.7266 -0.3006
15127SOL    HW146822   7.873   2.805   0.262 -0.5659  1.1907 -0.5807
15127SOL    HW246823   7.928   2.682   0.192 -1.5611  0.5543 -0.2801
15128SOL     OW46824   1.689   1.106   5.364  0.2340  0.0136 -0.2531
15128SOL    HW146825   1.765   1.146   5.406 -1.4386  2.9048  0.2445
15128SOL    HW246826   1.671   1.161   5.288 -0.6221 -1.3906 -1.1261
15129SOL     OW46827   2.844   4.359   7.835  0.5124  0.7917  0.4822
15129SOL    HW146828   2.814   4.442   7.799 -0.2220  0.2487 -0.1905
15129SOL    HW246829   2.859   4.304   7.759 -1.6618 -0.5807  0.9534
15130SOL     OW46830   0.112   2.764  10.445  0.0838 -0.1283  0.5200
15130SOL    HW146831   0.081   2.826  10.379  2.7157  0.5860 -0.1778
15130SOL    HW246832   0.172   2.706  10.398 -1.0644 -2.2470  1.4969
15131SOL     OW46833   5.615   3.438   7.955  0.2123 -0.1625 -0.0023
15131SOL    HW146834   5.556   3.377   7.911  0.4746  0.2240 -0.9330
15131SOL    HW246835   5.609   3.416   8.048 -0.1425 -1.2048 -0.2600
15132SOL     OW46836   6.532   1.983   1.179 -0.4335 -0.1789  0.2191
15132SOL    HW146837   6.583   1.905   1.157 -0.2151 -0.2801  1.0857
15132SOL    HW246838   6.549   2.043   1.106 -0.5954 -0.9243 -0.4534
15133SOL     OW46839   0.666   0.319   6.777  0.3753 -0.1675  0.1356
15133SOL    HW146840   0.683   0.412   6.791  0.9759 -0.5649  2.3641
15133SOL    HW246841   0.740   0.274   6.816 -0.0939 -1.6268 -0.5565
15134SOL     OW46842   1.595   7.791   0.106  0.1638 -0.3301 -0.1628
15134SOL    HW146843   1.525   7.850   0.132  0.7606  0.0328  0.6627
15134SOL    HW246844   1.551   7.707   0.091 -0.6807  0.2791 -1.2785
15135SOL     OW46845   5.696   0.610   0.086 -0.2160  0.6544  0.3924
15135SOL    HW146846   5.646   0.576   0.160  1.1841 -2.0368  0.2116
15135SOL    HW246847   5.645   0.685   0.055 -3.0108 -0.6875  1.4568
15136SOL     OW46848   2.294   6.941  12.179  0.5805  0.2861  0.2322
15136SOL    HW146849   2.380   6.929  12.139 -0.1888 -2.4872 -0.8957
15136SOL    HW246850   2.311   6.972  12.267  2.5885  1.9771 -0.6759
15137SOL     OW46851   6.786   2.405   2.460  0.4614 -0.2446 -0.4684
15137SOL    HW146852   6.857   2.373   2.404  0.3269 -1.2601 -0.0768
15137SOL    HW246853   6.739   2.326   2.486  0.4230  0.2289  0.9632
15138SOL     OW46854   4.622   4.396  12.023  0.2629 -0.2118  0.4491
15138SOL    HW146855   4.706   4.413  12.065  0.1904  1.6727 -0.1194
15138SOL    HW246856   4.559   4.400  12.095  0.4507  0.1559  0.5920
15139SOL     OW46857   5.243   0.448  12.222 -0.0400 -0.0858 -0.3096
15139SOL    HW146858   5.176   0.442  12.290 -0.1128  1.8250 -0.1596
15139SOL    HW246859   5.265   0.357  12.202 -1.9943 -0.7330  0.2897
15140SOL     OW46860   3.381   3.514   7.164  0.6510 -0.4152 -0.3048
15140SOL    HW146861   3.427   3.433   7.143  2.0741  0.1834  0.3543
15140SOL    HW246862   3.341   3.542   7.081  1.6289 -0.8827 -0.9503
15141SOL     OW46863   6.586   2.036   7.174  0.0735  0.3829 -0.2791
15141SOL    HW146864   6.583   2.090   7.253 -1.9086 -0.1128  0.0228
15141SOL    HW246865   6.505   2.058   7.127 -0.3101 -1.6101 -0.6188
15142SOL     OW46866   0.770   7.044   1.102  0.1230  0.1445 -0.0687
15142SOL    HW146867   0.771   6.950   1.084  1.6340  0.4287 -1.7229
15142SOL    HW246868   0.686   7.075   1.068  0.0821 -0.4331 -0.4883
15143SOL     OW46869   0.424   5.239   1.181  0.4609  0.2057 -0.1098
15143SOL    HW146870   0.476   5.298   1.127  0.3950 -2.3255 -3.2139
15143SOL    HW246871   0.333   5.261   1.162  0.4288  0.1147 -0.0649
15144SOL     OW46872   3.124   6.728   7.752  0.4551 -0.1073 -0.2920
15144SOL    HW146873   3.143   6.719   7.845  0.1930 -0.6808 -0.2885
15144SOL    HW246874   3.135   6.640   7.716  2.3787  0.4363 -1.1674
15145SOL     OW46875   2.317   5.141   0.595  0.3650  0.4897 -0.6497
15145SOL    HW146876   2.342   5.079   0.663 -1.4663 -0.4432 -0.7715
15145SOL    HW246877   2.379   5.214   0.605  1.4429 -0.5479  0.6384
15146SOL     OW46878   7.243   6.169  10.439 -0.6596 -0.5733 -0.3391
15146SOL    HW146879   7.256   6.237  10.505  1.7889  0.6911 -1.9768
15146SOL    HW246880   7.318   6.111  10.449 -1.6743 -1.9120 -0.2918
15147SOL     OW46881   1.681   0.612   6.827  0.0103  0.1546 -0.0611
15147SOL    HW146882   1.719   0.547   6.768  1.5492  0.1764  0.8520
15147SOL    HW246883   1.706   0.696   6.789 -0.2478  0.1927 -0.1502
15148SOL     OW46884   0.101   6.281  10.770  0.0433 -0.2334 -0.3487
15148SOL    HW146885   0.170   6.341  10.740 -0.9971  1.6699  0.8572
15148SOL    HW246886   0.076   6.314  10.856 -0.4725 -2.5633  0.4844
15149SOL     OW46887   4.016   7.373   8.382  0.4662  0.8025  0.3117
15149SOL    HW146888   4.043   7.465   8.379  1.1918  0.5857  0.1488
15149SOL    HW246889   4.002   7.356   8.475  0.7217  0.9619  0.3810
15150SOL     OW46890   2.866   0.381   5.493  0.4687  0.0402 -0.0202
15150SOL    HW146891   2.947   0.350   5.532  1.4135 -0.2705 -2.0766
15150SOL    HW246892   2.804   0.308   5.504  0.5887  0.0933  1.1226
15151SOL     OW46893   1.018   1.735   6.588  0.0135 -0.2486  0.1942
15151SOL    HW146894   1.099   1.718   6.539 -0.0362  1.2415 -0.4340
15151SOL    HW246895   0.948   1.713   6.527 -0.0577 -0.7171  0.4427
15152SOL     OW46896   1.070   2.762   7.465 -0.2955  0.1535 -0.2561
15152SOL    HW146897   1.109   2.800   7.386 -1.3232  0.4136 -0.6537
15152SOL    HW246898   0.988   2.809   7.477 -0.2941 -0.0799  0.8189
15153SOL     OW46899   4.933   1.658  10.963  0.1408  0.2548 -0.5718
15153SOL    HW146900   4.939   1.751  10.988 -1.3433  0.2406 -0.0617
15153SOL    HW246901   4.839   1.642  10.955  0.3996 -1.1290 -1.0036
15154SOL     OW46902   1.472   4.095  10.293  0.2188 -0.3355 -0.4693
15154SOL    HW146903   1.487   4.030  10.362 -1.8342 -0.4802 -0.0908
15154SOL    HW246904   1.540   4.076  10.228  0.5768 -1.9198  0.2971
15155SOL     OW46905   0.714   7.783   7.732  0.5544  0.0683  0.0302
15155SOL    HW146906   0.773   7.816   7.800  0.8797  0.7944 -0.5822
15155SOL    HW246907   0.734   7.690   7.725  0.0447 -0.1698  1.3884
15156SOL     OW46908   2.693   2.683   6.946  0.0869  0.1148 -0.1280
15156SOL    HW146909   2.671   2.651   7.034 -0.9345  0.1227 -0.3684
15156SOL    HW246910   2.784   2.657   6.933 -0.0200 -0.6559  0.5942
15157SOL     OW46911   5.682   7.587  12.039 -0.2959 -0.3936  0.6500
15157SOL    HW146912   5.749   7.557  11.978 -0.1089 -0.8022  1.0578
15157SOL    HW246913   5.650   7.669  12.000 -1.2938 -1.4260 -0.8221
15158SOL     OW46914   7.908   7.676   9.710 -0.0398 -0.2249  0.3509
15158SOL    HW146915   7.815   7.692   9.697 -0.1307 -1.4098 -0.6007
15158SOL    HW246916   7.924   7.590   9.672  1.3939 -0.1733  0.7560
15159SOL     OW46917   3.565   2.245   0.474  0.1721 -0.3628 -0.1628
15159SOL    HW146918   3.656   2.220   0.460 -0.7641 -3.5842 -1.2670
15159SOL    HW246919   3.524   2.240   0.388 -0.9790  1.6874  0.1900
15160SOL     OW46920   7.172   7.778   6.318  0.4989  0.1303 -0.1093
15160SOL    HW146921   7.210   7.701   6.276 -0.6477 -1.3707  1.4387
15160SOL    HW246922   7.127   7.743   6.395  1.5317  2.5766  1.7570
15161SOL     OW46923   1.683   2.766   1.363  0.4354 -0.3862  0.5970
15161SOL    HW146924   1.774   2.796   1.361  1.3882 -2.8736  2.4106
15161SOL    HW246925   1.678   2.700   1.294  0.5941 -1.6129  1.7162
15162SOL     OW46926   3.242   3.807   4.431 -0.1122  0.5554  0.7468
15162SOL    HW146927   3.217   3.785   4.341  1.8529 -0.4282  0.3863
15162SOL    HW246928   3.184   3.755   4.486  0.7002 -1.2711 -0.0331
15163SOL     OW46929   0.039   0.874   9.675 -0.5590 -0.3214 -0.3412
15163SOL    HW146930   0.127   0.840   9.691 -1.3897 -1.9039  1.2925
15163SOL    HW246931   0.052   0.947   9.615  1.8578 -0.4836 -0.1285
15164SOL     OW46932   2.569   5.585   9.609  0.1175 -0.5449  0.0136
15164SOL    HW146933   2.619   5.519   9.659  0.5639  0.7561  1.3733
15164SOL    HW246934   2.617   5.594   9.527 -0.6179 -2.7328 -0.7181
15165SOL     OW46935   7.887   4.702  11.321  0.7141  0.3025  0.4544
15165SOL    HW146936   7.836   4.621  11.319  1.1452  0.0449 -0.7042
15165SOL    HW246937   7.976   4.675  11.299  0.9166  1.0566  0.3261
15166SOL     OW46938   3.559   6.263   8.676 -0.0750  0.0365  0.0560
15166SOL    HW146939   3.571   6.357   8.664  1.8671 -0.1649  0.1056
15166SOL    HW246940   3.604   6.243   8.759  0.7382 -1.1174 -0.6276
15167SOL     OW46941   6.530   7.742   6.652 -0.4679 -0.6446 -0.2090
15167SOL    HW146942   6.608   7.751   6.598 -0.8821 -0.9078 -0.8546
15167SOL    HW246943   6.510   7.831   6.682 -2.0634  0.0468 -3.0486
15168SOL     OW46944   0.353   1.468   7.021 -0.1748 -0.2083 -0.6568
15168SOL    HW146945   0.438   1.493   7.057 -0.1624 -0.3010 -0.6213
15168SOL    HW246946   0.337   1.532   6.951  0.0350 -0.3361 -0.8221
15169SOL     OW46947   5.998   4.194   9.284  0.5439 -0.2362  0.4441
15169SOL    HW146948   5.932   4.248   9.327  0.4841 -0.5496  0.7559
15169SOL    HW246949   5.948   4.126   9.239  0.6491 -0.4884  0.6989
15170SOL     OW46950   3.283   2.757   8.597  0.2503 -0.0668 -0.0538
15170SOL    HW146951   3.251   2.751   8.507  1.6793  2.5182 -0.8256
15170SOL    HW246952   3.359   2.698   8.599 -0.8547 -1.5441  0.0511
15171SOL     OW46953   2.978   0.171   4.118  0.5511  0.1206  0.5717
15171SOL    HW146954   2.954   0.079   4.116  1.9930 -0.2954 -1.6619
15171SOL    HW246955   2.955   0.204   4.031 -0.5421  2.0643  1.5417
15172SOL     OW46956   2.193   3.385   8.709 -0.7628 -0.2083  0.2764
15172SOL    HW146957   2.196   3.451   8.778  0.5996  0.4346 -0.3619
15172SOL    HW246958   2.172   3.434   8.629 -1.6753 -0.8459  0.1016
15173SOL     OW46959   5.642   0.352   0.639  0.2820  0.1339  0.4145
15173SOL    HW146960   5.568   0.291   0.638  0.6400 -0.3307 -1.0466
15173SOL    HW246961   5.652   0.376   0.731 -2.4090  1.1089  0.5612
15174SOL     OW46962   0.055   0.064  11.820 -0.1521  0.6804  0.1776
15174SOL    HW146963   0.098   0.101  11.743  0.4292  2.4232  1.2707
15174SOL    HW246964   0.125   0.055  11.884 -0.6002 -0.8873  0.4824
15175SOL     OW46965   1.030   5.347   0.864 -0.1678 -0.2213 -0.6443
15175SOL    HW146966   0.957   5.308   0.911  1.0251 -1.2037  0.4736
15175SOL    HW246967   1.035   5.436   0.897  0.5944 -0.8656  1.1254
15176SOL     OW46968   5.925   7.551   8.629  0.0021 -0.3110 -0.3416
15176SOL    HW146969   5.864   7.519   8.562 -0.8150  1.3017 -0.4326
15176SOL    HW246970   5.988   7.604   8.579  0.9080 -1.1685 -0.1248
15177SOL     OW46971   3.886   7.368   4.682  0.2048  0.1885  0.5786
15177SOL    HW146972   3.957   7.398   4.739  1.5920  0.9559 -1.4256
15177SOL    HW246973   3.820   7.437   4.688  0.8819  0.8766  0.3241
15178SOL     OW46974   4.055   7.702   9.124 -0.0634 -0.8419 -0.0187
15178SOL    HW146975   4.072   7.624   9.177 -1.7696  0.3610  2.5082
15178SOL    HW246976   4.129   7.759   9.141 -0.0043 -0.9495  0.0837
15179SOL     OW46977   2.141   7.842   5.177 -0.2153 -0.4454  0.2688
15179SOL    HW146978   2.096   7.878   5.253  0.3589  0.2606  0.2833
15179SOL    HW246979   2.071   7.809   5.121 -0.8209  1.2533 -0.0211
15180SOL     OW46980   0.215   5.408   8.733  0.5772  0.1109  0.5228
15180SOL    HW146981   0.211   5.356   8.653  1.9527 -1.7696  1.5713
15180SOL    HW246982   0.242   5.495   8.704  0.4427 -0.3594 -1.1095
15181SOL     OW46983   6.097   7.951   2.722  0.2500  0.4409 -0.1518
15181SOL    HW146984   6.004   7.939   2.741  0.0823 -0.0698 -1.2438
15181SOL    HW246985   6.134   7.983   2.805 -0.4869 -1.4806  0.9796
15182SOL     OW46986   6.710   2.298   9.004  0.2341 -0.4964  0.1672
15182SOL    HW146987   6.664   2.262   8.928  2.6974 -0.8202 -1.2881
15182SOL    HW246988   6.738   2.385   8.975 -0.0135 -0.0304  1.2689
15183SOL     OW46989   2.400   7.320   5.337  0.2832  0.9565 -0.1738
15183SOL    HW146990   2.398   7.285   5.426 -0.9425 -2.3743 -1.3891
15183SOL    HW246991   2.314   7.361   5.326 -1.6053 -2.8138 -1.1771
15184SOL     OW46992   1.807   4.141   0.742 -0.4085 -0.3886  0.1922
15184SOL    HW146993   1.749   4.161   0.669  1.6371  1.6226 -1.0050
15184SOL    HW246994   1.760   4.173   0.819 -0.9610  1.1003 -0.7218
15185SOL     OW46995   6.357   3.258   5.833 -0.3339  0.1786  0.2966
15185SOL    HW146996   6.318   3.243   5.747 -0.1420  0.2603  0.1959
15185SOL    HW246997   6.297   3.320   5.875 -0.3729  0.2201  0.1813
15186SOL     OW46998   4.317   0.631   5.403 -0.0087  0.5164  0.0661
15186SOL    HW146999   4.357   0.652   5.318  0.5209 -2.2084 -0.4625
15186SOL    HW247000   4.384   0.583   5.450 -0.9112  0.4157  1.2985
15187SOL     OW47001   7.471   0.454   9.567  0.4490 -0.4533  0.0616
15187SOL    HW147002   7.430   0.395   9.503  0.1530  0.4115 -0.5620
15187SOL    HW247003   7.407   0.525   9.579  1.4435  0.5495 -0.3858
15188SOL     OW47004   0.874   6.379   4.534  0.1120 -0.0004  0.2628
15188SOL    HW147005   0.954   6.338   4.566  0.5674 -0.0888 -0.9570
15188SOL    HW247006   0.816   6.306   4.514  0.2941 -0.0066 -0.2770
15189SOL     OW47007   6.405   3.924   6.276  0.1535  0.8608  0.0434
15189SOL    HW147008   6.353   3.977   6.336  0.6608  0.9720  0.3912
15189SOL    HW247009   6.484   3.903   6.325  0.1847  0.2101 -0.2787
15190SOL     OW47010   2.502   5.340   6.911 -0.0566  0.3972 -0.2922
15190SOL    HW147011   2.577   5.296   6.871 -0.4130 -1.6078  1.1315
15190SOL    HW247012   2.540   5.389   6.984 -0.2121 -1.7524  1.3174
15191SOL     OW47013   6.982   3.965   4.991  0.3914 -0.0722 -0.0861
15191SOL    HW147014   6.985   3.870   5.007 -1.6699 -0.2625 -0.6369
15191SOL    HW247015   7.028   3.976   4.908 -1.9507 -1.0387 -1.6010
15192SOL     OW47016   5.884   5.704   1.692  0.0502  0.2856 -0.4506
15192SOL    HW147017   5.959   5.711   1.751  0.4141 -0.0565 -0.8634
15192SOL    HW247018   5.898   5.773   1.627  1.2182 -1.1947 -1.8459
15193SOL     OW47019   0.436   6.134  12.449 -0.7094  0.6671  0.5485
15193SOL    HW147020   0.358   6.084  12.426  0.1395 -0.3776 -0.1462
15193SOL    HW247021   0.503   6.104  12.388  0.3883  1.1674  1.4637
15194SOL     OW47022   3.674   5.294   0.209  0.1002  0.1096 -0.1696
15194SOL    HW147023   3.696   5.376   0.253  1.8934 -0.1739 -0.4798
15194SOL    HW247024   3.617   5.249   0.271  1.2081  0.4558  1.1462
15195SOL     OW47025   0.453   0.843   2.060  0.3391 -0.4135  0.2247
15195SOL    HW147026   0.490   0.813   2.143  0.5874 -1.2612 -0.1791
15195SOL    HW247027   0.359   0.829   2.069  0.3120 -0.0129  0.5589
15196SOL     OW47028   2.323   0.899   0.819  0.0263  0.2798  0.0947
15196SOL    HW147029   2.408   0.922   0.782  0.1331  0.4102  0.4235
15196SOL    HW247030   2.280   0.984   0.835 -1.1952  0.2498 -2.4066
15197SOL     OW47031   0.230   5.309   5.392 -0.2093 -0.1866 -0.0786
15197SOL    HW147032   0.202   5.234   5.339  0.1677 -0.6233  0.3340
15197SOL    HW247033   0.149   5.351   5.420 -0.4289  0.5886 -1.7352
15198SOL     OW47034   2.176   1.590   6.784  0.1318 -0.3280  0.3247
15198SOL    HW147035   2.106   1.574   6.848  0.0954  0.5477  0.5196
15198SOL    HW247036   2.139   1.655   6.724  0.9677  0.5955  0.7717
15199SOL     OW47037   1.974   5.453   0.274 -0.3246 -0.1563 -0.3744
15199SOL    HW147038   1.964   5.530   0.329 -3.5948  0.2425 -1.3397
15199SOL    HW247039   1.902   5.395   0.299  1.0883 -2.2433 -0.7933
15200SOL     OW47040   7.377   6.608   5.894 -0.1669 -0.1746 -0.1648
15200SOL    HW147041   7.381   6.684   5.952 -0.4578  1.0979 -1.7319
15200SOL    HW247042   7.284   6.594   5.878 -0.0756 -0.3236 -0.5762
15201SOL     OW47043   1.381   6.926   7.442  0.0898 -0.5534 -0.1936
15201SOL    HW147044   1.376   7.021   7.444 -2.1452 -0.6331  1.1258
15201SOL    HW247045   1.427   6.903   7.523 -0.8954 -0.6048  0.3746
15202SOL     OW47046   0.838   2.698   9.943  0.2497  0.3828 -0.4661
15202SOL    HW147047   0.882   2.623   9.905 -0.0597 -0.0594  0.0296
15202SOL    HW247048   0.746   2.672   9.948 -0.0984  1.3226 -1.5549
15203SOL     OW47049   0.243   0.338  11.800 -0.3169 -0.3339 -0.3381
15203SOL    HW147050   0.303   0.264  11.789 -0.4943 -0.4713 -0.4056
15203SOL    HW247051   0.288   0.398  11.859 -0.2557 -0.5904 -0.1245
15204SOL     OW47052   2.276   1.039   4.506  0.7947 -0.0764  0.0308
15204SOL    HW147053   2.188   1.003   4.515 -0.3006  2.0826 -1.1732
15204SOL    HW247054   2.295   1.031   4.412  2.2420 -1.2049  0.3821
15205SOL     OW47055   6.051   2.925   4.254 -0.0430  0.2762  0.4969
15205SOL    HW147056   6.018   3.008   4.289 -2.8749  0.9335 -3.1387
15205SOL    HW247057   6.124   2.951   4.197 -1.1536  0.4259 -0.9189
15206SOL     OW47058   7.432   2.589  11.398  0.5375  0.8721  0.4651
15206SOL    HW147059   7.359   2.542  11.439  1.1471 -1.2400 -0.7052
15206SOL    HW247060   7.392   2.633  11.323  0.2797  0.5647  0.4161
15207SOL     OW47061   3.720   2.847   2.549 -0.0084 -0.0881  0.1060
15207SOL    HW147062   3.801   2.818   2.592 -0.0436 -0.8979 -0.3561
15207SOL    HW247063   3.726   2.943   2.548  1.5279 -0.1710 -1.0375
15208SOL     OW47064   3.783   1.536   7.623 -0.5035  0.2937 -0.5893
15208SOL    HW147065   3.726   1.525   7.699 -0.6937  0.8901 -0.6383
15208SOL    HW247066   3.749   1.476   7.557 -0.5112 -0.0188 -0.2969
15209SOL     OW47067   3.349   6.754   9.709  0.2784  0.2187 -0.3516
15209SOL    HW147068   3.328   6.661   9.719  0.5914  0.1241 -0.5719
15209SOL    HW247069   3.275   6.790   9.660 -0.8137  0.4912  1.3949
15210SOL     OW47070   5.612   1.100   7.378 -0.4055 -0.1949 -0.0482
15210SOL    HW147071   5.653   1.114   7.463 -3.1742  2.1735  1.0827
15210SOL    HW247072   5.643   1.172   7.323 -0.2298 -0.5053 -0.3568
15211SOL     OW47073   5.031   2.999   1.887 -0.1296  0.4163  0.6310
15211SOL    HW147074   5.011   3.075   1.833 -2.2987 -0.8870 -0.5378
15211SOL    HW247075   4.958   2.993   1.949  0.6066 -0.0683  1.4841
15212SOL     OW47076   6.077   6.706   6.705  0.1194 -0.4427  0.0164
15212SOL    HW147077   5.991   6.665   6.702  0.8222 -2.0136  0.0724
15212SOL    HW247078   6.070   6.781   6.646 -1.6744  0.3005  1.1122
15213SOL     OW47079   7.019   5.612   2.949 -0.0113 -0.0114  0.1965
15213SOL    HW147080   7.003   5.569   2.865  1.4096 -2.6693  1.1805
15213SOL    HW247081   6.952   5.680   2.953 -0.4460 -0.0963 -2.8384
15214SOL     OW47082   5.004   5.793   6.797 -0.2591 -0.4750  0.2511
15214SOL    HW147083   4.925   5.757   6.755 -1.2182 -0.4359  1.9332
15214SOL    HW247084   5.034   5.723   6.855  0.7370 -0.3393 -0.0891
15215SOL     OW47085   6.790   0.023   1.401  0.1534 -0.4497 -0.3255
15215SOL    HW147086   6.875   0.067   1.397  1.0867 -2.1919 -0.6555
15215SOL    HW247087   6.757   0.042   1.489  0.3018  1.2110 -0.5953
15216SOL     OW47088   0.804   4.823   8.505  0.0636 -0.4846  0.0678
15216SOL    HW147089   0.857   4.749   8.534 -0.1954 -0.8086 -0.2739
15216SOL    HW247090   0.727   4.783   8.465 -0.4039 -0.0175  0.4922
15217SOL     OW47091   6.570   0.534  10.295 -0.0439  0.1568  0.2039
15217SOL    HW147092   6.602   0.624  10.301 -0.0469  0.1301  0.6644
15217SOL    HW247093   6.606   0.501  10.213 -0.7200  0.8376 -0.3798
15218SOL     OW47094   0.558   2.264   0.436 -0.1438  0.2406  0.3122
15218SOL    HW147095   0.601   2.178   0.445 -0.8424 -0.0722  0.7374
15218SOL    HW247096   0.512   2.259   0.352  1.2317  0.8559 -0.5230
15219SOL     OW47097   3.628   1.278   9.452 -0.3911  0.2780  0.4385
15219SOL    HW147098   3.547   1.320   9.479  0.1227  0.9885  0.8892
15219SOL    HW247099   3.663   1.238   9.532  0.6928  1.6517  0.6820
15220SOL     OW47100   7.341   7.599   6.159  0.2474  0.5679 -0.3154
15220SOL    HW147101   7.431   7.619   6.186  0.7813  1.0649 -2.3222
15220SOL    HW247102   7.328   7.649   6.079 -1.8390  0.4936 -0.0863
15221SOL     OW47103   5.338   0.174   9.789  0.2496 -0.3567  0.0740
15221SOL    HW147104   5.320   0.217   9.873 -0.8022 -1.1289  0.2802
15221SOL    HW247105   5.296   0.230   9.724 -1.9591 -1.4673  0.4303
15222SOL     OW47106   4.771   1.977   1.379  0.0828 -0.0056 -0.1756
15222SOL    HW147107   4.718   1.973   1.458 -1.3715 -2.3603 -1.1311
15222SOL    HW247108   4.836   1.908   1.390 -1.6714 -2.1203 -1.8954
15223SOL     OW47109   4.342   3.890  10.630  0.1838  0.4127 -0.6374
15223SOL    HW147110   4.273   3.914  10.569 -0.6387  0.4230  0.2695
15223SOL    HW247111   4.322   3.799  10.655  0.6948  0.2978 -0.6301
15224SOL     OW47112   0.917   6.111   4.719  0.7988  0.5303  0.2787
15224SOL    HW147113   0.987   6.131   4.657  1.2751 -1.3007  0.1452
15224SOL    HW247114   0.866   6.042   4.676  0.6230 -0.1579  1.5538
15225SOL     OW47115   5.426   7.069   5.279  0.1318  0.2392  0.7755
15225SOL    HW147116   5.389   7.157   5.285  1.3771  0.7870  0.7556
15225SOL    HW247117   5.379   7.019   5.346 -0.0359  1.1335  1.3445
15226SOL     OW47118   3.645   4.481  10.943  0.0628 -0.2677  0.1926
15226SOL    HW147119   3.563   4.454  10.984 -0.0829 -0.9744 -0.5510
15226SOL    HW247120   3.623   4.562  10.896  0.2126  0.5097  1.3987
15227SOL     OW47121   2.507   0.720   1.663 -0.7979 -0.1865  0.3780
15227SOL    HW147122   2.531   0.781   1.733  0.1841 -1.1166  0.8796
15227SOL    HW247123   2.439   0.665   1.701 -1.8047  0.6677 -0.1296
15228SOL     OW47124   4.208   7.660  11.548 -0.1760 -0.2436  0.0237
15228SOL    HW147125   4.125   7.661  11.595 -0.6198 -0.7846 -0.7221
15228SOL    HW247126   4.209   7.575  11.504  0.7302 -0.1967 -0.0551
15229SOL     OW47127   1.991   6.074   5.395 -0.3218  0.2458  0.0981
15229SOL    HW147128   1.993   6.161   5.436 -1.2693 -1.5058  4.3564
15229SOL    HW247129   2.075   6.067   5.349  0.9655  2.4328  1.9210
15230SOL     OW47130   0.551   1.837   7.686  0.2098 -0.5941 -0.1647
15230SOL    HW147131   0.508   1.782   7.752 -0.0484 -0.1595  0.0347
15230SOL    HW247132   0.555   1.923   7.727 -1.2528  0.0334 -1.2812
15231SOL     OW47133   1.772   6.632   1.371  0.1611 -0.6349 -0.2688
15231SOL    HW147134   1.798   6.647   1.462  0.8355 -2.2029 -0.1843
15231SOL    HW247135   1.685   6.673   1.365  0.8929  1.1570  0.5274
15232SOL     OW47136   4.234   0.547   8.151 -0.3201  0.3752 -0.2137
15232SOL    HW147137   4.149   0.546   8.196 -0.1472 -0.8445  0.1330
15232SOL    HW247138   4.257   0.454   8.142  1.2921  0.6827  0.3313
15233SOL     OW47139   5.407   2.318   8.593  0.0820 -0.2212  0.5545
15233SOL    HW147140   5.356   2.336   8.672  0.4039  2.2268  0.2880
15233SOL    HW247141   5.359   2.362   8.523  0.5452 -1.1565 -0.3760
15234SOL     OW47142   5.064   7.385   7.196 -0.3837 -0.2015 -0.1572
15234SOL    HW147143   5.145   7.402   7.147  1.0275  0.8557  2.3776
15234SOL    HW247144   5.066   7.291   7.213  0.3864 -0.1753 -0.0374
15235SOL     OW47145   3.535   7.545   7.244 -0.1954 -0.0337  0.1754
15235SOL    HW147146   3.472   7.521   7.176  1.0197  0.9633 -1.3661
15235SOL    HW247147   3.613   7.571   7.196  1.2116 -0.6518  2.0103
15236SOL     OW47148   4.595   6.278   7.614  0.1472  0.7161 -0.0057
15236SOL    HW147149   4.672   6.239   7.574  0.9372  2.1711  0.0341
15236SOL    HW247150   4.627   6.314   7.697 -1.3093 -1.6789  1.7503
15237SOL     OW47151   5.355   0.970   0.639  0.1975 -0.4016 -0.3222
15237SOL    HW147152   5.391   1.043   0.689  2.0167 -2.0906  1.0027
15237SOL    HW247153   5.410   0.966   0.561 -1.1047  0.7317 -1.3572
15238SOL     OW47154   4.591   7.454   0.334  0.1732  0.1133 -0.9544
15238SOL    HW147155   4.518   7.491   0.383  0.4446 -0.7299  0.1310
15238SOL    HW247156   4.594   7.505   0.253 -0.2965  1.5367 -0.1088
15239SOL     OW47157   2.480   2.957  11.381 -0.3207  0.1694 -0.3934
15239SOL    HW147158   2.550   2.931  11.321 -1.0411  0.4439 -1.3864
15239SOL    HW247159   2.444   2.875  11.413  2.3690 -0.0636  2.5540
15240SOL     OW47160   7.397   1.007   3.634  0.4084  0.2924  0.3151
15240SOL    HW147161   7.342   1.039   3.563 -0.1519  1.4150  1.2314
15240SOL    HW247162   7.372   0.915   3.644 -2.3431  1.0739  1.5868
15241SOL     OW47163   4.489   5.200   6.940  0.1018  0.5737 -0.1868
15241SOL    HW147164   4.477   5.114   6.900 -1.7608  1.2855 -1.2487
15241SOL    HW247165   4.513   5.180   7.031 -1.9084 -1.1021  0.0538
15242SOL     OW47166   5.608   4.128   0.510  0.4455 -0.5826  0.2810
15242SOL    HW147167   5.673   4.182   0.465  1.2678 -2.0137 -0.3503
15242SOL    HW247168   5.626   4.039   0.479 -2.3737 -0.9417 -0.5660
15243SOL     OW47169   0.632   7.770   8.604 -0.3881  0.7188 -0.1939
15243SOL    HW147170   0.584   7.731   8.677 -0.2752 -2.0273 -1.4610
15243SOL    HW247171   0.655   7.858   8.635 -1.5163  0.1774  2.5091
15244SOL     OW47172   4.540   6.560  10.963  0.1778  0.3316 -0.1881
15244SOL    HW147173   4.491   6.605  11.032 -1.0508 -0.2162 -0.6846
15244SOL    HW247174   4.558   6.473  11.000 -1.2540 -0.2857 -0.8353
15245SOL     OW47175   4.487   0.326  11.381  0.2319 -0.3265 -0.1821
15245SOL    HW147176   4.476   0.233  11.363  0.4240 -0.3843 -0.0025
15245SOL    HW247177   4.440   0.340  11.464  1.9110 -0.6788  0.8666
15246SOL     OW47178   4.603   2.486   1.244 -0.1555 -0.0241 -0.4720
15246SOL    HW147179   4.682   2.438   1.268 -1.7734 -1.7935  1.7285
15246SOL    HW247180   4.537   2.418   1.229 -1.9862  1.4229  0.5742
15247SOL     OW47181   4.946   5.829   4.046  0.1857 -0.0779 -0.5241
15247SOL    HW147182   4.887   5.890   4.090  1.5508  1.0239 -0.1276
15247SOL    HW247183   4.889   5.761   4.011 -1.4188  1.4709 -1.0685
15248SOL     OW47184   0.401   6.011   4.479 -0.0695 -0.1027 -0.3768
15248SOL    HW147185   0.455   5.946   4.434  0.6596  0.5420 -0.4528
15248SOL    HW247186   0.312   5.994   4.447  0.4981  0.6730 -2.5256
15249SOL     OW47187   2.653   3.552   9.184  0.1832  0.1323 -0.1397
15249SOL    HW147188   2.690   3.639   9.171 -0.1320  0.0745 -1.6744
15249SOL    HW247189   2.559   3.566   9.190 -0.0283 -0.1820 -1.9330
15250SOL     OW47190   0.199   5.137   3.815  0.2154  0.0550  0.0759
15250SOL    HW147191   0.276   5.092   3.850  2.1014  2.1611 -1.0862
15250SOL    HW247192   0.215   5.230   3.832 -1.9092  0.6023 -0.5548
15251SOL     OW47193   7.152   2.440   1.899 -0.1569 -0.5384 -0.4391
15251SOL    HW147194   7.216   2.370   1.914  0.0514  0.0309  1.7541
15251SOL    HW247195   7.200   2.521   1.917 -1.1281 -0.0183 -0.1115
15252SOL     OW47196   2.979   0.892   2.230  0.0409 -0.2880  0.1075
15252SOL    HW147197   2.968   0.804   2.194  0.6916 -0.6860  0.8667
15252SOL    HW247198   3.025   0.940   2.161 -0.3989 -0.5051 -0.3464
15253SOL     OW47199   4.391   0.096   8.967 -0.4186  0.7185 -0.4071
15253SOL    HW147200   4.327   0.151   8.923  1.5344  1.9239 -1.9060
15253SOL    HW247201   4.441   0.156   9.022  0.3566  0.0939 -0.4086
15254SOL     OW47202   7.389   0.332   1.458 -0.1258  0.0070  0.3269
15254SOL    HW147203   7.377   0.298   1.370  1.4528 -0.6883  0.3479
15254SOL    HW247204   7.339   0.273   1.514  1.0137 -1.1639  0.1521
15255SOL     OW47205   3.949   4.016   5.116  0.0351  0.3759  0.3222
15255SOL    HW147206   3.953   3.980   5.204  0.0383  1.4337  0.7686
15255SOL    HW247207   3.876   4.077   5.118 -1.2902 -1.0551 -0.9932
15256SOL     OW47208   0.943   7.760   2.256 -0.4813 -0.2037  0.0085
15256SOL    HW147209   0.895   7.766   2.173 -0.1926  2.3563 -0.0390
15256SOL    HW247210   1.018   7.818   2.245 -0.7139  0.6079  2.2434
15257SOL     OW47211   0.225   1.482  11.084  0.0917 -0.3951  0.3058
15257SOL    HW147212   0.297   1.420  11.070  0.4087  0.1716 -0.6698
15257SOL    HW247213   0.265   1.555  11.131  0.2560  0.0856 -0.5592
15258SOL     OW47214   4.494   0.567   1.541  0.4567  0.2519 -0.0923
15258SOL    HW147215   4.481   0.659   1.517 -0.2485  0.0821 -0.3899
15258SOL    HW247216   4.479   0.519   1.460  2.2488 -0.0448 -0.2977
15259SOL     OW47217   3.353   1.640  12.189  0.0641 -0.3088  0.0501
15259SOL    HW147218   3.405   1.639  12.269  1.7563  1.2152 -0.9561
15259SOL    HW247219   3.302   1.721  12.195  0.7355  0.1790 -0.7185
15260SOL     OW47220   7.277   3.947   9.229 -0.3631 -0.3677  0.1010
15260SOL    HW147221   7.365   3.942   9.266 -0.1718  1.0998 -0.0883
15260SOL    HW247222   7.285   3.908   9.142 -0.3607 -1.9855  0.7986
15261SOL     OW47223   0.333   5.914   4.751  0.1195 -0.3603 -0.4302
15261SOL    HW147224   0.280   5.864   4.689  0.5351 -0.1882 -0.9371
15261SOL    HW247225   0.416   5.928   4.705  0.3639 -0.0616  0.0933
15262SOL     OW47226   2.241   1.168   1.471  0.1222  0.3156  0.2648
15262SOL    HW147227   2.200   1.185   1.556  0.2163  1.8511  0.0318
15262SOL    HW247228   2.168   1.159   1.410  0.0652 -0.2865  0.4221
15263SOL     OW47229   5.236   1.611   7.473  0.2691 -0.8039 -0.6960
15263SOL    HW147230   5.281   1.685   7.513  0.0463 -0.1760 -1.5687
15263SOL    HW247231   5.306   1.558   7.436  0.3662 -0.3954 -1.1081
15264SOL     OW47232   0.389   7.705   0.171 -0.0880 -0.1344  0.9156
15264SOL    HW147233   0.389   7.621   0.217  2.3729  0.0579  1.3819
15264SOL    HW247234   0.297   7.730   0.168 -0.9460 -3.0128  0.4133
15265SOL     OW47235   0.387   2.538  11.530  0.2954  0.3192  0.3988
15265SOL    HW147236   0.365   2.629  11.550 -0.4213  0.2381  0.0073
15265SOL    HW247237   0.467   2.543  11.478  1.3103  0.6167  1.9300
15266SOL     OW47238   3.735   5.501   2.643 -0.4466 -0.1070 -0.1024
15266SOL    HW147239   3.798   5.498   2.715  1.4624  0.4545 -1.6999
15266SOL    HW247240   3.726   5.594   2.623 -0.7659 -0.2778 -0.7633
15267SOL     OW47241   2.715   1.287   5.884 -0.7688 -0.1775 -0.2161
15267SOL    HW147242   2.765   1.209   5.909 -0.2060  0.1471 -0.3322
15267SOL    HW247243   2.680   1.321   5.967 -1.9230 -1.1558 -0.2676
15268SOL     OW47244   4.261   4.571   3.475  0.6900 -0.4169 -0.2510
15268SOL    HW147245   4.356   4.565   3.468  0.9228  1.9929 -0.0090
15268SOL    HW247246   4.229   4.484   3.449  2.9334 -1.2911 -0.2732
15269SOL     OW47247   1.180   6.674   4.435  0.4027 -0.6192 -0.3102
15269SOL    HW147248   1.272   6.696   4.448 -0.2005  1.5480  0.8533
15269SOL    HW247249   1.156   6.626   4.514  0.1200  0.4400  0.2701
15270SOL     OW47250   3.537   4.221  11.471  0.0456  0.4988 -0.6467
15270SOL    HW147251   3.602   4.240  11.404  0.3181  0.8188 -0.2947
15270SOL    HW247252   3.519   4.306  11.512  0.6296  0.1578  0.3560
15271SOL     OW47253   5.293   4.326   3.592  0.4163  0.3602  0.6437
15271SOL    HW147254   5.214   4.362   3.633 -0.4797  0.1413 -0.8177
15271SOL    HW247255   5.361   4.390   3.613 -0.5120  1.4202  0.5329
15272SOL     OW47256   6.686   2.678  12.126  0.3849  0.0189 -0.1716
15272SOL    HW147257   6.609   2.717  12.086 -0.2497 -1.2406 -0.2133
15272SOL    HW247258   6.664   2.670  12.219  0.0460 -1.2628 -0.3441
15273SOL     OW47259   1.987   2.377   2.896 -0.0751  0.4814  0.2829
15273SOL    HW147260   2.045   2.308   2.865 -0.2512  0.1494  0.6794
15273SOL    HW247261   1.904   2.333   2.913 -0.1384  0.7571  0.7073
15274SOL     OW47262   7.795   1.869   3.176 -0.0921 -0.3422  0.0858
15274SOL    HW147263   7.802   1.775   3.193 -0.0614 -0.7155 -1.7551
15274SOL    HW247264   7.722   1.898   3.231 -3.7772 -2.5480 -3.0691
15275SOL     OW47265   1.405   6.538   1.869 -0.1425  0.1165  0.1731
15275SOL    HW147266   1.335   6.524   1.932 -0.1379  0.1809  0.1926
15275SOL    HW247267   1.427   6.631   1.877  0.5097 -0.0732  0.7639
15276SOL     OW47268   3.118   5.998  10.501 -0.1803  0.3081 -0.1613
15276SOL    HW147269   3.062   6.010  10.577  1.6419  1.9150  1.0473
15276SOL    HW247270   3.073   6.044  10.430 -2.1023 -1.5605 -0.2544
15277SOL     OW47271   7.829   0.372   2.409 -0.0676 -0.6087  0.6835
15277SOL    HW147272   7.896   0.432   2.375  1.1214 -2.2199  0.0947
15277SOL    HW247273   7.786   0.336   2.331 -1.3992  0.1039  1.0454
15278SOL     OW47274   7.684   4.448   5.168  0.1062  0.2648  0.1361
15278SOL    HW147275   7.693   4.367   5.117  1.2042  0.9182 -0.7398
15278SOL    HW247276   7.770   4.462   5.207 -0.3248  0.5494  1.0033
15279SOL     OW47277   5.260   5.062  10.018 -0.2297 -0.7855  0.4070
15279SOL    HW147278   5.257   5.040  10.111 -1.5446 -2.6400 -0.0115
15279SOL    HW247279   5.214   4.990   9.975 -0.1204  0.2936 -1.6447
15280SOL     OW47280   2.888   1.221   0.700  0.2075 -0.1218 -0.1547
15280SOL    HW147281   2.911   1.132   0.726  1.0886 -0.0902 -0.7826
15280SOL    HW247282   2.970   1.269   0.705  0.5327 -0.1506 -3.0790
15281SOL     OW47283   6.714   4.052   9.412  0.0952 -0.4703 -0.4784
15281SOL    HW147284   6.670   4.052   9.326  0.9945  1.6626 -0.9952
15281SOL    HW247285   6.806   4.068   9.392  0.9124 -3.1373  0.7202
15282SOL     OW47286   2.365   7.705   4.424  0.0564 -0.0158  0.5876
15282SOL    HW147287   2.418   7.671   4.496  0.8192  1.1379  0.5987
15282SOL    HW247288   2.427   7.722   4.354 -0.5752 -0.4098 -0.0824
15283SOL     OW47289   2.032   2.376  12.348 -0.5204 -0.2395 -0.6812
15283SOL    HW147290   2.122   2.374  12.316 -0.1818 -0.5779  0.2570
15283SOL    HW247291   2.040   2.376  12.443 -1.5126 -3.2686 -0.4728
15284SOL     OW47292   1.069   3.429  11.746 -0.0181  0.1906 -0.0973
15284SOL    HW147293   1.013   3.496  11.708  1.7558  1.7931 -0.0457
15284SOL    HW247294   1.008   3.362  11.778 -1.8134  1.3844 -0.8423
15285SOL     OW47295   3.386   4.751   9.288 -0.9552  0.6199 -0.0745
15285SOL    HW147296   3.373   4.660   9.263 -3.0832  0.1667  2.2349
15285SOL    HW247297   3.404   4.796   9.206  2.4976 -2.1375 -1.0670
15286SOL     OW47298   3.126   7.868  10.339 -0.0804 -0.3353  0.1081
15286SOL    HW147299   3.103   7.806  10.409 -1.5255  0.5729  0.4856
15286SOL    HW247300   3.172   7.815  10.274  0.8862 -1.3067  1.5203
15287SOL     OW47301   0.469   5.776   1.179  0.7912  0.5187 -0.0161
15287SOL    HW147302   0.416   5.699   1.198  0.0014  1.0226 -0.1239
15287SOL    HW247303   0.555   5.756   1.216 -0.3453  1.0123  3.2391
15288SOL     OW47304   6.483   5.090   6.706  0.0584  0.3660 -0.0713
15288SOL    HW147305   6.522   5.118   6.789  1.0538 -0.4375 -0.2486
15288SOL    HW247306   6.542   5.125   6.640 -0.0705 -0.0277 -0.3923
15289SOL     OW47307   3.753   7.569   8.641  0.3821 -0.5642  0.2884
15289SOL    HW147308   3.736   7.663   8.638  0.2268 -0.6041 -0.1300
15289SOL    HW247309   3.675   7.532   8.683 -0.6174 -0.7442 -1.6062
15290SOL     OW47310   0.496   0.273   0.634  0.4587  0.3188  0.0999
15290SOL    HW147311   0.574   0.217   0.640 -0.2799 -0.8102 -0.3421
15290SOL    HW247312   0.480   0.282   0.540  0.0826  0.5609  0.1843
15291SOL     OW47313   2.088   3.199  11.732 -0.2781  0.3832  0.3872
15291SOL    HW147314   2.026   3.134  11.698 -0.6335  1.7757 -1.8395
15291SOL    HW247315   2.053   3.223  11.818 -2.4159  0.5284 -0.4610
15292SOL     OW47316   0.149   7.886   5.826 -0.3250  0.4279 -0.2012
15292SOL    HW147317   0.100   7.934   5.893 -1.0497 -0.3114 -0.1701
15292SOL    HW247318   0.170   7.802   5.868  1.7106  1.0202  0.0648
15293SOL     OW47319   0.111   7.315   3.390  0.0006  0.2067  0.0994
15293SOL    HW147320   0.042   7.299   3.455  1.7330 -3.0429  1.3578
15293SOL    HW247321   0.178   7.363   3.438  0.3621 -0.2840  0.0876
15294SOL     OW47322   4.228   4.301   3.389 -0.1274  0.0571 -0.2307
15294SOL    HW147323   4.194   4.222   3.430 -0.6233 -0.3567 -1.3987
15294SOL    HW247324   4.321   4.284   3.377  0.0361  0.1989  0.7128
15295SOL     OW47325   4.075   1.099   3.929  0.0848  0.2236  0.5068
15295SOL    HW147326   3.985   1.077   3.956 -0.7116  3.2818  0.7608
15295SOL    HW247327   4.063   1.162   3.858  2.0830  0.1290  0.0399
15296SOL     OW47328   7.109   7.797  11.012  0.2380  0.0479 -0.2778
15296SOL    HW147329   7.116   7.839  10.927  0.1095 -0.3771 -0.5029
15296SOL    HW247330   7.016   7.772  11.019  0.1628  0.4278  0.1559
15297SOL     OW47331   7.654   4.694   4.147  0.2302 -0.4674  0.0943
15297SOL    HW147332   7.682   4.758   4.082 -0.7549 -0.0741  0.0395
15297SOL    HW247333   7.686   4.610   4.114  1.3298 -0.0478  0.0465
15298SOL     OW47334   4.861   6.615  10.814  0.0307 -0.2291 -0.0766
15298SOL    HW147335   4.936   6.626  10.872  0.9283  2.0822 -1.5387
15298SOL    HW247336   4.793   6.670  10.852  0.2841  0.4782 -0.6217
15299SOL     OW47337   3.988   1.460  11.921 -0.0236 -0.0319  0.1879
15299SOL    HW147338   3.981   1.496  11.833  1.4417 -0.2268 -0.0392
15299SOL    HW247339   3.943   1.376  11.916  2.0073 -1.1425 -1.0833
15300SOL     OW47340   4.765   1.018   0.553 -0.3071 -0.0278 -0.7517
15300SOL    HW147341   4.699   1.023   0.622  0.0785 -0.0555 -0.3780
15300SOL    HW247342   4.728   1.069   0.481  0.3418  2.0901  0.3437
15301SOL     OW47343   5.736   5.912   1.444  0.2229 -0.0199  0.2403
15301SOL    HW147344   5.802   5.853   1.407  0.6925 -0.6512  1.9576
15301SOL    HW247345   5.781   5.953   1.518 -1.4638 -0.9526  1.8497
15302SOL     OW47346   4.946   5.591   0.587 -0.0058  0.0189  0.0761
15302SOL    HW147347   4.886   5.664   0.573  0.0557 -0.1882 -1.4900
15302SOL    HW247348   4.890   5.516   0.602 -0.1048  0.1173  0.1972
15303SOL     OW47349   7.339   0.205   9.707 -0.6885 -0.2213  0.5459
15303SOL    HW147350   7.352   0.298   9.722  2.2923 -0.3952 -0.3345
15303SOL    HW247351   7.312   0.200   9.615 -0.0393 -0.2541  0.3529
15304SOL     OW47352   7.904   5.442   9.613 -0.2945  0.1905 -0.6283
15304SOL    HW147353   7.944   5.479   9.535  0.2303 -1.6735 -1.2855
15304SOL    HW247354   7.931   5.351   9.613 -0.3914  0.1045  1.6793
15305SOL     OW47355   6.178   7.575   7.371 -0.2775  0.0658  0.0753
15305SOL    HW147356   6.232   7.650   7.398 -0.3648  0.0660  0.2442
15305SOL    HW247357   6.135   7.545   7.451 -0.4813  0.0255 -0.0483
15306SOL     OW47358   1.339   4.270   2.376 -0.2030  0.4701 -0.4328
15306SOL    HW147359   1.386   4.193   2.343 -0.7586 -0.0782  0.0234
15306SOL    HW247360   1.247   4.253   2.354 -0.5619  0.1727  1.1720
15307SOL     OW47361   6.819   1.396   0.001  0.2156 -0.0163  0.5070
15307SOL    HW147362   6.784   1.465  -0.056  0.1097  0.0874  0.6972
15307SOL    HW247363   6.884   1.441   0.056  0.3613 -0.1286  0.4280
15308SOL     OW47364   2.149   0.877   2.053  0.0174  0.1990 -0.2144
15308SOL    HW147365   2.193   0.956   2.020  0.6265  0.2867  0.7671
15308SOL    HW247366   2.182   0.867   2.142 -1.4067 -0.1632  0.2904
15309SOL     OW47367   3.365   6.000   2.511  0.9270  0.4671 -0.0822
15309SOL    HW147368   3.286   6.011   2.564  1.4072  2.1881  0.3551
15309SOL    HW247369   3.403   5.918   2.541 -0.0537  0.2234  0.5574
15310SOL     OW47370   5.503   5.154  10.968  0.1720 -0.0283  0.0977
15310SOL    HW147371   5.494   5.114  10.882 -0.7597 -0.1165  0.2192
15310SOL    HW247372   5.504   5.249  10.951 -1.4273  0.0194  0.0603
15311SOL     OW47373   5.522   2.342  10.461  0.1140  0.0456  0.0227
15311SOL    HW147374   5.439   2.308  10.427 -0.2057  2.4388 -1.8732
15311SOL    HW247375   5.576   2.264  10.474 -0.8242 -1.3208 -3.2250
15312SOL     OW47376   7.187   2.205   2.960  0.0203 -0.3597  0.0848
15312SOL    HW147377   7.235   2.179   3.038  0.6810 -0.1118 -0.2249
15312SOL    HW247378   7.210   2.297   2.947 -0.4551 -0.2667 -0.1339
15313SOL     OW47379   5.878   5.070   3.047 -0.4537 -0.2727 -0.3571
15313SOL    HW147380   5.853   5.132   2.978 -1.7470 -0.8923 -0.4693
15313SOL    HW247381   5.963   5.036   3.019  0.3287  1.4910 -0.2579
15314SOL     OW47382   0.696   1.837   0.124 -0.3945 -0.5544  0.0574
15314SOL    HW147383   0.781   1.799   0.103 -0.7076 -0.8521 -0.7300
15314SOL    HW247384   0.693   1.918   0.073  0.0804  0.3198  1.3700
15315SOL     OW47385   4.884   6.388   6.753 -0.1838  0.1805  0.0618
15315SOL    HW147386   4.912   6.321   6.691 -1.1105  0.3009 -0.5106
15315SOL    HW247387   4.949   6.386   6.823  1.2335  0.4465 -1.1963
15316SOL     OW47388   1.077   4.025   8.525  0.4154  0.6579  0.0266
15316SOL    HW147389   1.106   4.066   8.443 -0.8461  1.9845  0.2118
15316SOL    HW247390   0.997   3.979   8.502  1.4868 -1.2903 -0.0340
15317SOL     OW47391   0.732   4.702   9.498 -0.2548  0.2039 -0.3111
15317SOL    HW147392   0.658   4.709   9.559 -0.4684  0.1982 -0.5660
15317SOL    HW247393   0.809   4.726   9.550 -0.3075 -0.7558  0.2188
15318SOL     OW47394   0.112   5.870   4.033 -0.0956 -0.0155 -0.0961
15318SOL    HW147395   0.028   5.844   4.070  0.6485  0.5095  2.1042
15318SOL    HW247396   0.177   5.823   4.085  1.0513  1.9078  0.3001
15319SOL     OW47397   0.688   3.300  11.497 -0.0096 -0.3614  0.3704
15319SOL    HW147398   0.682   3.381  11.445  1.7832  0.6729  1.6592
15319SOL    HW247399   0.781   3.276  11.493 -0.0488 -0.9378  2.0657
15320SOL     OW47400   3.453   0.067   5.394  0.4774 -0.5215  0.1913
15320SOL    HW147401   3.396   0.054   5.470 -0.6888 -1.2030 -0.7703
15320SOL    HW247402   3.396   0.056   5.318  1.1639  2.0852 -0.8385
15321SOL     OW47403   6.875   5.247  10.547  0.1164  0.0821 -0.3396
15321SOL    HW147404   6.905   5.216  10.633  0.9531  0.6144 -0.4260
15321SOL    HW247405   6.938   5.211  10.485 -0.9164 -0.9271 -0.8345
15322SOL     OW47406   0.224   1.191   3.962 -0.7980  0.0472  0.2939
15322SOL    HW147407   0.283   1.266   3.969 -1.3476  0.4361  0.9233
15322SOL    HW247408   0.201   1.170   4.053  0.3979 -1.7570  0.2325
15323SOL     OW47409   5.397   7.553   3.387 -0.2886 -0.1017 -0.1622
15323SOL    HW147410   5.317   7.506   3.365 -1.7032  1.7509  0.6623
15323SOL    HW247411   5.417   7.604   3.309 -0.6491  0.3645  0.0429
15324SOL     OW47412   3.810   4.148   2.167 -0.9135 -0.0288  0.0030
15324SOL    HW147413   3.882   4.141   2.105 -0.6517 -0.0077  0.3068
15324SOL    HW247414   3.736   4.108   2.121 -0.2892 -1.6567  0.3724
15325SOL     OW47415   3.432   6.906  11.429  0.1193 -0.1572  0.3254
15325SOL    HW147416   3.339   6.918  11.451 -0.5434 -1.7730 -1.2735
15325SOL    HW247417   3.436   6.930  11.336  1.7629  1.7885  0.8300
15326SOL     OW47418   1.867   3.297   5.926  0.0946 -0.5253 -0.5259
15326SOL    HW147419   1.949   3.347   5.927 -0.0534 -0.2887 -0.1202
15326SOL    HW247420   1.812   3.343   5.863 -0.3552  0.3433  0.4683
15327SOL     OW47421   3.757   7.964   5.933  0.0808  0.7221 -0.2021
15327SOL    HW147422   3.746   8.014   6.013  0.0042  0.5444 -0.1006
15327SOL    HW247423   3.851   7.968   5.915  0.1868  0.2825  0.2152
15328SOL     OW47424   3.418   3.167  11.201  0.2298  0.0160  0.5199
15328SOL    HW147425   3.501   3.185  11.245  0.2422 -1.5220  1.1677
15328SOL    HW247426   3.434   3.192  11.110  1.3921 -0.2290  0.6380
15329SOL     OW47427   6.767   2.130   2.090 -0.3414  0.5421 -0.2657
15329SOL    HW147428   6.701   2.199   2.091 -1.0410 -0.1261  0.1964
15329SOL    HW247429   6.780   2.110   1.998 -1.3790  0.1244 -0.3344
15330SOL     OW47430   3.714   2.622  12.355 -1.0596 -0.0176  0.0501
15330SOL    HW147431   3.651   2.644  12.286 -0.2204  0.1932 -0.6722
15330SOL    HW247432   3.727   2.704  12.403 -0.7387  0.1390 -0.3017
15331SOL     OW47433   2.535   3.281   9.318 -0.6687  0.1004 -0.0081
15331SOL    HW147434   2.630   3.293   9.316 -0.8777  1.9577 -0.7304
15331SOL    HW247435   2.505   3.337   9.390 -1.2698 -0.0193 -0.1578
15332SOL     OW47436   3.072   1.136   1.363  0.3137  0.3373  0.1397
15332SOL    HW147437   3.004   1.148   1.429 -0.4705  1.0487 -0.7671
15332SOL    HW247438   3.067   1.044   1.338 -2.3185  0.9455 -1.9765
15333SOL     OW47439   0.420   0.366  11.401  0.4807  0.0726  0.2315
15333SOL    HW147440   0.468   0.400  11.326  0.0162  2.5820  0.9863
15333SOL    HW247441   0.489   0.336  11.462  0.8937 -0.5989 -0.5460
15334SOL     OW47442   0.427   0.142  10.762  0.3947 -0.3496  0.1822
15334SOL    HW147443   0.343   0.189  10.757 -0.6288 -2.1078  0.1356
15334SOL    HW247444   0.452   0.127  10.671 -0.4870 -1.9100  0.1714
15335SOL     OW47445   6.558   6.278   6.553  0.3268 -0.9709  0.1815
15335SOL    HW147446   6.499   6.203   6.561 -0.8884  0.0649  1.3596
15335SOL    HW247447   6.643   6.239   6.531 -0.3357 -2.6534  0.4331
15336SOL     OW47448   4.445   6.148   2.449  0.8747  0.8997 -0.5165
15336SOL    HW147449   4.434   6.241   2.471 -0.4130  0.7570 -0.4805
15336SOL    HW247450   4.363   6.107   2.478  1.9442 -0.4930  0.7373
15337SOL     OW47451   3.483   6.985   5.249  0.7616  0.0195 -0.3875
15337SOL    HW147452   3.393   6.956   5.260  0.5663  0.9541  0.6132
15337SOL    HW247453   3.534   6.905   5.239  0.1173 -0.6214  1.2821
15338SOL     OW47454   2.174   5.288   8.467 -0.3147  0.7260  0.4485
15338SOL    HW147455   2.166   5.308   8.374 -1.2102  0.7488  0.5216
15338SOL    HW247456   2.084   5.271   8.495 -0.0553  0.7840  1.3240
15339SOL     OW47457   6.272   0.187  10.548  0.1021 -0.0016  0.5420
15339SOL    HW147458   6.269   0.282  10.557 -2.4200  0.2011 -1.4878
15339SOL    HW247459   6.215   0.154  10.617 -2.3898  0.2905 -1.2686
15340SOL     OW47460   0.023   7.388   7.926 -0.2259 -0.3269  0.3008
15340SOL    HW147461   0.073   7.466   7.950  3.0709 -1.9883 -0.6917
15340SOL    HW247462  -0.021   7.412   7.844  0.7506  0.4807 -0.0052
15341SOL     OW47463   6.346   4.712  11.481  0.5372  0.1393 -0.3041
15341SOL    HW147464   6.372   4.789  11.531  1.1504  1.1531 -2.1215
15341SOL    HW247465   6.391   4.639  11.524  1.1325  0.9779  0.5266
15342SOL     OW47466   0.084   6.259  11.950 -0.1036  0.4297 -0.3124
15342SOL    HW147467   0.121   6.347  11.953 -1.4183  1.0138 -0.4237
15342SOL    HW247468   0.093   6.226  12.039  2.2865 -0.1738 -0.7141
15343SOL     OW47469   4.479   0.195   2.210  0.2830  0.1989  0.1631
15343SOL    HW147470   4.438   0.211   2.125  0.8223  1.1457  0.0739
15343SOL    HW247471   4.529   0.274   2.229  0.3032 -0.0586  1.2943
15344SOL     OW47472   4.998   2.326   4.939 -0.2677 -0.3436  0.3620
15344SOL    HW147473   4.973   2.407   4.893  0.9155 -0.5733 -0.7305
15344SOL    HW247474   4.973   2.256   4.878  1.5652 -0.6443 -0.0882
15345SOL     OW47475   1.025   4.812   2.786 -0.1414 -1.1439 -0.6238
15345SOL    HW147476   1.083   4.822   2.710 -1.6711 -1.4791 -1.8771
15345SOL    HW247477   1.021   4.718   2.801  0.7589 -1.0404  0.3914
15346SOL     OW47478   2.173   0.124   7.601  0.4099 -0.1727  0.4189
15346SOL    HW147479   2.158   0.211   7.638 -0.3839  0.0103 -0.3097
15346SOL    HW247480   2.188   0.068   7.677 -2.5357 -0.0802  1.1809
15347SOL     OW47481   3.600   2.198   7.042 -0.0941 -0.0702 -0.0944
15347SOL    HW147482   3.599   2.260   7.115 -1.0019  0.3060 -0.4131
15347SOL    HW247483   3.630   2.116   7.082  0.6446  0.4379  0.4286
15348SOL     OW47484   0.356   2.959   3.724 -0.4064  0.0937  0.6210
15348SOL    HW147485   0.402   3.015   3.661 -1.9531 -0.0097 -0.6757
15348SOL    HW247486   0.287   3.015   3.760 -0.9247 -0.4779  0.5439
15349SOL     OW47487   2.944   3.664  11.663 -0.4248 -0.3460  0.0615
15349SOL    HW147488   3.035   3.687  11.683 -0.4656 -0.6010  0.5716
15349SOL    HW247489   2.906   3.642  11.748 -1.1232  0.2970 -0.0760
15350SOL     OW47490   0.901   0.371   5.942 -0.0610 -0.5091  0.2722
15350SOL    HW147491   0.925   0.289   5.986 -0.4619 -0.5914  0.3383
15350SOL    HW247492   0.817   0.352   5.901 -0.6992  0.2076  1.2131
15351SOL     OW47493   1.387   3.706   0.570 -0.2075  0.2912  0.2738
15351SOL    HW147494   1.305   3.715   0.619 -0.3449 -1.6564  0.4534
15351SOL    HW247495   1.359   3.700   0.479 -0.3742 -1.3636  0.4106
15352SOL     OW47496   1.250   6.515   8.757 -0.0203 -0.3034  0.3781
15352SOL    HW147497   1.155   6.504   8.759  0.0103 -0.5257  1.8111
15352SOL    HW247498   1.284   6.433   8.793  0.7746 -0.6351 -1.0520
15353SOL     OW47499   6.118   7.060   9.514  0.4762 -0.1337 -0.0030
15353SOL    HW147500   6.188   7.092   9.457  1.5478  0.4301  1.5575
15353SOL    HW247501   6.121   7.118   9.590 -2.5135  0.6618 -0.3874
15354SOL     OW47502   0.169   4.539   2.178 -0.5149  0.0890  0.0507
15354SOL    HW147503   0.223   4.614   2.204 -0.6672  1.0822 -2.2896
15354SOL    HW247504   0.204   4.511   2.094 -0.3840 -2.6278  0.9373
15355SOL     OW47505   2.373   4.085   4.897 -0.1106 -0.1512 -0.4644
15355SOL    HW147506   2.339   4.033   4.824 -0.9724  0.0623 -0.2290
15355SOL    HW247507   2.301   4.144   4.920  0.4390  0.3307  0.0352
15356SOL     OW47508   5.173   7.588   4.361 -0.1118  0.2326  0.1510
15356SOL    HW147509   5.253   7.634   4.336 -0.3826  0.2045 -0.8186
15356SOL    HW247510   5.127   7.649   4.418  1.0780 -0.1623  1.5974
15357SOL     OW47511   1.838   4.890   1.144  0.3879  0.2720  0.1015
15357SOL    HW147512   1.911   4.832   1.166 -0.0959  0.0544  1.1910
15357SOL    HW247513   1.871   4.978   1.161  1.3865  0.4237 -2.2941
15358SOL     OW47514   6.902   3.748  11.736  0.4932  0.5318 -0.2177
15358SOL    HW147515   6.807   3.747  11.722  0.4541 -1.5297 -0.1456
15358SOL    HW247516   6.936   3.686  11.673  1.5307 -0.4114  1.2029
15359SOL     OW47517   5.666   7.605   2.475  0.2356  0.1860  0.2185
15359SOL    HW147518   5.715   7.608   2.557 -1.3106  0.4249  1.1762
15359SOL    HW247519   5.703   7.676   2.423 -0.6572  1.9912  1.8826
15360SOL     OW47520   2.424   2.359   1.859 -0.0688 -0.3604  0.2547
15360SOL    HW147521   2.331   2.383   1.863 -0.6163 -2.0101 -1.4857
15360SOL    HW247522   2.441   2.316   1.943 -1.4071 -1.7090 -0.1185
15361SOL     OW47523   7.890   0.928  11.015  0.0959  0.1811 -0.2126
15361SOL    HW147524   7.869   1.021  11.019 -1.2209 -0.1191  0.2833
15361SOL    HW247525   7.912   0.912  10.923 -1.9397  0.5396 -0.8013
15362SOL     OW47526   7.292   0.053  11.261 -0.3157  0.4903  0.8272
15362SOL    HW147527   7.204   0.048  11.223  0.2762  0.9784 -0.6876
15362SOL    HW247528   7.277   0.053  11.356 -2.0431  2.1822  0.6139
15363SOL     OW47529   7.241   6.271   5.176 -0.1789 -0.0154 -0.3466
15363SOL    HW147530   7.299   6.209   5.220 -1.6730 -0.6079  0.8638
15363SOL    HW247531   7.187   6.307   5.246  0.3380  2.3570 -1.0818
15364SOL     OW47532   3.126   7.307   2.301  0.4343 -0.0110 -0.3135
15364SOL    HW147533   3.176   7.365   2.243 -1.8064  3.0618  0.5270
15364SOL    HW247534   3.176   7.307   2.383  1.7241 -1.3954 -1.0543
15365SOL     OW47535   1.746   0.169   6.167  0.0960  0.2415 -0.3878
15365SOL    HW147536   1.658   0.197   6.143 -0.1802  1.4557  1.7670
15365SOL    HW247537   1.804   0.229   6.120 -0.2927  0.5733 -0.4485
15366SOL     OW47538   5.992   3.607   7.274  0.7713  0.0686  0.4248
15366SOL    HW147539   5.921   3.668   7.294 -0.4725 -1.1302 -0.1091
15366SOL    HW247540   6.044   3.604   7.354 -0.6834 -0.1719  1.4088
15367SOL     OW47541   0.307   7.585   7.504  0.0672 -0.0201  0.1915
15367SOL    HW147542   0.390   7.627   7.484  0.3334 -1.2939 -1.5910
15367SOL    HW247543   0.317   7.495   7.473 -1.7721 -0.3661  0.4710
15368SOL     OW47544   2.011   6.869   4.661  0.2913 -0.0344  0.1254
15368SOL    HW147545   1.916   6.862   4.651  0.3481 -0.8001  0.0077
15368SOL    HW247546   2.029   6.831   4.747  0.6829 -1.8734 -0.7183
15369SOL     OW47547   5.768   6.940   8.941 -0.0171  0.4152  0.3342
15369SOL    HW147548   5.691   6.921   8.887 -1.0066 -0.4440  1.9970
15369SOL    HW247549   5.800   7.024   8.906 -2.3175  1.3541  0.2513
15370SOL     OW47550   5.062   2.205   7.019 -0.0211 -0.1308 -0.2712
15370SOL    HW147551   5.057   2.232   7.110  1.7677 -0.3110 -0.0728
15370SOL    HW247552   5.050   2.111   7.020  2.9594 -0.6079  0.2220
15371SOL     OW47553   5.031   0.063  12.274 -0.1683  0.2073 -0.6246
15371SOL    HW147554   5.048   0.003  12.347  2.0158  1.1998 -0.2273
15371SOL    HW247555   4.964   0.122  12.308  0.4880  0.3781  0.4474
15372SOL     OW47556   0.517   1.198  10.925 -0.4866 -0.2659 -0.4834
15372SOL    HW147557   0.540   1.106  10.920  1.2586  0.1285 -0.5648
15372SOL    HW247558   0.596   1.244  10.896 -0.2714  1.3188  2.2242
15373SOL     OW47559   7.507   1.459  11.370 -0.1430  0.0503  0.0969
15373SOL    HW147560   7.460   1.502  11.298 -0.4023  0.2109  0.3560
15373SOL    HW247561   7.508   1.525  11.440  2.3496  0.8669 -0.6141
15374SOL     OW47562   0.841   1.605   9.181 -0.2247  0.1379  0.3552
15374SOL    HW147563   0.813   1.681   9.232 -2.4768  1.0642 -2.0703
15374SOL    HW247564   0.925   1.631   9.143 -0.2367  0.7939  0.7544
15375SOL     OW47565   1.489   3.584   8.462 -0.0876 -0.2268  0.0458
15375SOL    HW147566   1.429   3.602   8.389  1.2351 -0.7071 -1.2020
15375SOL    HW247567   1.543   3.662   8.470  1.4045 -1.0819 -1.1598
15376SOL     OW47568   2.067   0.068   3.459 -0.7230 -0.2615  0.2268
15376SOL    HW147569   2.104   0.059   3.371  1.3923 -2.5354  1.2309
15376SOL    HW247570   2.122   0.133   3.502 -0.2624 -0.8634  0.5599
15377SOL     OW47571   6.041   5.260   2.849  0.6008 -0.0879  0.5629
15377SOL    HW147572   6.064   5.308   2.929 -1.3030  1.9172  0.0023
15377SOL    HW247573   6.097   5.298   2.782  1.4859 -1.0730  0.7200
15378SOL     OW47574   5.876   6.369   5.904  0.0498 -0.5293 -0.2079
15378SOL    HW147575   5.937   6.438   5.880  1.0942 -1.3591  0.0039
15378SOL    HW247576   5.843   6.336   5.820  0.6576 -0.7497 -0.3610
15379SOL     OW47577   5.127   4.103   4.177 -0.0962  0.3582  0.4377
15379SOL    HW147578   5.155   4.106   4.085 -0.1006  1.3485  0.4592
15379SOL    HW247579   5.038   4.136   4.175  0.2632  1.3923  0.9247
15380SOL     OW47580   3.298   1.928   0.801  0.8613 -0.2109  0.0302
15380SOL    HW147581   3.306   2.023   0.813  2.1955 -0.2908 -0.0449
15380SOL    HW247582   3.374   1.905   0.747  0.4640 -1.2997 -0.0759
15381SOL     OW47583   1.080   1.405   0.437  0.2262  0.2726  0.3850
15381SOL    HW147584   1.013   1.407   0.505  0.0756 -0.6434  0.2766
15381SOL    HW247585   1.048   1.464   0.369  0.1781  0.8679  0.9103
15382SOL     OW47586   3.980   0.232   4.753  0.0613  0.1924 -0.3658
15382SOL    HW147587   4.043   0.304   4.755 -0.6413  0.8955 -1.5566
15382SOL    HW247588   3.927   0.250   4.675  0.1138 -1.8496 -0.9207
15383SOL     OW47589   4.391   7.011   7.807  0.0652 -0.1648 -0.0027
15383SOL    HW147590   4.301   7.009   7.838  0.3314 -1.5488  0.7189
15383SOL    HW247591   4.407   6.923   7.773  1.2563 -0.0447  0.2101
15384SOL     OW47592   0.754   1.062   2.715  0.0236  0.1932 -0.3011
15384SOL    HW147593   0.847   1.059   2.691  0.0036  0.1841 -0.3768
15384SOL    HW247594   0.742   1.150   2.752 -0.3569  0.8801 -1.9989
15385SOL     OW47595   4.922   4.626   7.493  0.0421  0.0122  0.3134
15385SOL    HW147596   4.873   4.704   7.519  0.8058  0.4383  0.4823
15385SOL    HW247597   4.999   4.625   7.549  0.5059 -0.3530 -0.3101
15386SOL     OW47598   6.550   7.644   8.114  0.2114 -0.8037  0.2934
15386SOL    HW147599   6.477   7.675   8.060  0.9863 -0.6225 -0.6786
15386SOL    HW247600   6.519   7.652   8.204 -0.0045  1.8161  0.0516
15387SOL     OW47601   7.496   6.958   6.999 -0.1520  0.6599  0.1001
15387SOL    HW147602   7.523   6.923   7.084  0.3014  2.0740  0.5693
15387SOL    HW247603   7.458   7.044   7.019  1.0223  1.5288 -1.2147
15388SOL     OW47604   3.074   3.240   3.295 -0.2261  0.3706  0.5525
15388SOL    HW147605   3.124   3.199   3.366  0.7346 -0.2216 -0.4200
15388SOL    HW247606   3.064   3.170   3.230 -1.2377  0.8447  0.1764
15389SOL     OW47607   1.271   4.658   8.468  0.4997  0.2668 -0.3628
15389SOL    HW147608   1.254   4.564   8.470 -1.2388  0.5537  1.6213
15389SOL    HW247609   1.364   4.665   8.445  0.1484 -1.7983 -2.8519
15390SOL     OW47610   5.337   3.846   7.318  0.0634  0.1360  0.2376
15390SOL    HW147611   5.303   3.936   7.320  0.9913  0.5135 -0.2251
15390SOL    HW247612   5.328   3.819   7.226 -2.5236 -1.1964  0.7965
15391SOL     OW47613   2.099   0.391   7.672  0.1311  0.4991 -0.0547
15391SOL    HW147614   2.026   0.411   7.731 -0.7612  0.6880 -1.1924
15391SOL    HW247615   2.099   0.463   7.609  1.8762  0.9677  0.4448
15392SOL     OW47616   3.121   6.986   9.206  0.3927 -0.0160  0.3541
15392SOL    HW147617   3.096   7.076   9.186  1.1606  0.4524  1.4342
15392SOL    HW247618   3.038   6.939   9.215 -0.0029  0.3177 -1.2688
15393SOL     OW47619   2.296   0.579   7.001  0.3773 -0.4076  0.1213
15393SOL    HW147620   2.249   0.546   7.077  1.3049  1.6736  1.6990
15393SOL    HW247621   2.233   0.574   6.930 -1.0309 -1.0067  1.3633
15394SOL     OW47622   0.527   5.322   6.978  0.8237  0.2378  0.1843
15394SOL    HW147623   0.508   5.348   7.068  1.0455  1.4988 -0.1143
15394SOL    HW247624   0.606   5.370   6.955 -0.4433  1.6936 -1.4047
15395SOL     OW47625   2.061   6.063   1.029  0.2387 -0.5150 -0.8742
15395SOL    HW147626   2.042   6.049   1.122 -1.7538 -0.5297 -1.2282
15395SOL    HW247627   2.025   6.150   1.011 -1.4592 -1.4078 -2.0790
15396SOL     OW47628   1.836   7.442   8.686  0.1514 -0.0310  0.1851
15396SOL    HW147629   1.884   7.522   8.704 -0.3226  0.0271  1.2725
15396SOL    HW247630   1.803   7.413   8.771  1.9779 -2.4893  0.1727
15397SOL     OW47631   6.244   3.066   7.701 -0.1154  0.2412  0.8321
15397SOL    HW147632   6.333   3.082   7.733  0.0484 -1.1185  1.1492
15397SOL    HW247633   6.242   3.105   7.614  0.4922  1.1068  1.1982
15398SOL     OW47634   1.993   1.961   8.156  0.1955  0.1986 -0.0759
15398SOL    HW147635   1.965   2.031   8.215  0.4001 -0.4979  0.8869
15398SOL    HW247636   1.925   1.894   8.166  1.2295 -0.7386  0.8779
15399SOL     OW47637   5.179   1.225   5.167  0.3748 -0.9331 -0.1170
15399SOL    HW147638   5.128   1.271   5.233 -0.4760 -0.6329 -0.9483
15399SOL    HW247639   5.251   1.184   5.215  0.7088  0.6105  0.7611
15400SOL     OW47640   1.876   0.174   6.412  0.0438  0.1915 -0.1926
15400SOL    HW147641   1.817   0.179   6.338 -2.0737  1.6184  1.4784
15400SOL    HW247642   1.883   0.264   6.445  0.7514 -0.4075  1.4502
15401SOL     OW47643   6.597   6.336  10.416 -0.2414  0.3009 -0.2054
15401SOL    HW147644   6.623   6.330  10.325 -0.7094  0.6725 -0.3700
15401SOL    HW247645   6.542   6.415  10.420 -0.8986 -0.1685  0.2306
15402SOL     OW47646   4.377   1.760   4.402  0.4321  0.1145 -0.2106
15402SOL    HW147647   4.386   1.844   4.357  0.2105  1.0336  1.4178
15402SOL    HW247648   4.444   1.704   4.361  0.2269  0.8944 -1.6670
15403SOL     OW47649   0.742   3.788  11.582 -0.4150  0.1550 -0.0536
15403SOL    HW147650   0.667   3.735  11.557 -0.2163 -0.0618 -0.1939
15403SOL    HW247651   0.707   3.851  11.645 -0.9915  0.9333 -1.1286
15404SOL     OW47652   6.542   1.972   2.343 -0.5749  0.1468 -0.2606
15404SOL    HW147653   6.494   2.050   2.372 -0.4497  0.1960 -0.1811
15404SOL    HW247654   6.598   1.949   2.418  0.4816  0.8507 -0.8081
15405SOL     OW47655   7.925   3.627  11.853 -0.0554  0.1224  0.1210
15405SOL    HW147656   8.020   3.635  11.862  0.4549 -1.0583 -2.9393
15405SOL    HW247657   7.910   3.628  11.758 -3.1751  0.7298  0.5032
15406SOL     OW47658   7.917   5.394   5.322 -0.4490  0.1272 -0.0990
15406SOL    HW147659   7.825   5.380   5.340 -0.1472  0.3522  1.7695
15406SOL    HW247660   7.952   5.307   5.301 -1.3959  0.2747 -2.7296
15407SOL     OW47661   0.354   2.845  10.068  0.1292  0.0812 -0.0497
15407SOL    HW147662   0.401   2.890  10.138 -0.8930 -1.3420  1.6246
15407SOL    HW247663   0.289   2.909  10.038  1.5043  1.2088 -0.7503
15408SOL     OW47664   6.855   4.234   5.809  0.4062 -0.8155 -0.0473
15408SOL    HW147665   6.812   4.190   5.736 -0.1449  0.7272 -0.7025
15408SOL    HW247666   6.794   4.304   5.834  2.1534  0.9789 -0.5068
15409SOL     OW47667   3.078   2.196   2.771  0.1452 -0.2422  0.5764
15409SOL    HW147668   3.107   2.132   2.837  0.0550 -0.4585  0.4082
15409SOL    HW247669   3.089   2.281   2.813 -0.1129 -0.3905  0.9531
15410SOL     OW47670   4.955   6.983   8.129  0.1993 -0.1910  0.5276
15410SOL    HW147671   5.050   6.993   8.127  0.1556  0.5131  1.3784
15410SOL    HW247672   4.932   6.992   8.222 -0.8468  1.1837  0.1663
15411SOL     OW47673   7.644   0.046   6.442 -0.1376  0.4332 -0.0159
15411SOL    HW147674   7.726   0.074   6.481  2.1573 -1.4413 -3.0934
15411SOL    HW247675   7.618   0.119   6.385  0.4353  0.2589 -0.4995
15412SOL     OW47676   1.409   5.811   3.997  0.3063  0.2639  0.0520
15412SOL    HW147677   1.315   5.824   4.005  0.2150  1.8856 -2.5592
15412SOL    HW247678   1.418   5.718   3.974 -0.6760  0.1582  0.0421
15413SOL     OW47679   6.619   7.950   0.820 -0.4264 -0.1165  0.0765
15413SOL    HW147680   6.700   7.971   0.774 -0.9107  0.2634 -0.6205
15413SOL    HW247681   6.567   8.031   0.815 -1.6946 -0.9696 -1.3060
15414SOL     OW47682   7.296   0.107   2.558  0.4788 -0.6098 -0.2222
15414SOL    HW147683   7.382   0.111   2.516  0.9015 -1.7645  0.4762
15414SOL    HW247684   7.302   0.171   2.629  1.5913 -2.1787  1.1940
15415SOL     OW47685   4.936   1.697   2.118 -0.0927  0.4194 -0.3539
15415SOL    HW147686   4.913   1.789   2.106 -1.3760  0.1089 -0.3923
15415SOL    HW247687   5.022   1.699   2.160 -1.0690  1.6751  1.7464
15416SOL     OW47688   3.083   1.099   9.450 -0.0186  0.5255  0.4932
15416SOL    HW147689   3.062   1.171   9.390  0.0016  0.7104  0.7071
15416SOL    HW247690   3.034   1.024   9.415  1.4573  0.1307 -0.8399
15417SOL     OW47691   1.753   1.447   5.110 -0.0998 -0.5648  0.0545
15417SOL    HW147692   1.841   1.416   5.127  0.2375 -0.1421 -0.8393
15417SOL    HW247693   1.696   1.373   5.132  0.4863 -0.8776  0.5138
15418SOL     OW47694   7.435   6.547   0.543  0.8427 -0.0041  0.1840
15418SOL    HW147695   7.395   6.536   0.457  2.4700  0.7608 -0.7075
15418SOL    HW247696   7.402   6.473   0.594 -0.2740 -0.3865 -1.0365
15419SOL     OW47697   1.469   7.911   9.275  0.7285  0.2571  0.7316
15419SOL    HW147698   1.560   7.889   9.294  0.3900  0.4656  2.8131
15419SOL    HW247699   1.443   7.972   9.344 -1.3441 -0.7515  0.9411
15420SOL     OW47700   5.141   7.785   2.047  0.3020 -0.2544  0.2065
15420SOL    HW147701   5.220   7.801   2.098  0.5755 -0.0239 -0.2799
15420SOL    HW247702   5.108   7.873   2.027 -0.7867 -0.3308  1.4658
15421SOL     OW47703   5.104   5.370   7.935 -0.0418 -0.3819  0.4347
15421SOL    HW147704   5.032   5.358   7.997  0.2260 -0.7983  0.6656
15421SOL    HW247705   5.087   5.307   7.865  0.3092 -0.7629  0.6860
15422SOL     OW47706   4.187   4.350   6.623 -0.1564 -0.2697  0.3284
15422SOL    HW147707   4.203   4.435   6.664 -2.7632  0.1297  0.7181
15422SOL    HW247708   4.236   4.353   6.541  0.1893  1.4123  0.5560
15423SOL     OW47709   6.926   4.437   4.281  0.0944  0.7162  0.1200
15423SOL    HW147710   6.903   4.497   4.351  0.1599 -1.4845  2.1644
15423SOL    HW247711   7.019   4.418   4.296 -0.1084 -0.4388 -0.0066
15424SOL     OW47712   3.676   3.797  10.934  0.4884  0.5103  0.3919
15424SOL    HW147713   3.660   3.891  10.927  0.1335  0.4698  0.6604
15424SOL    HW247714   3.649   3.775  11.023  2.3363  0.5069  1.0046
15425SOL     OW47715   5.923   6.524   2.773  0.2012  0.0993 -0.5086
15425SOL    HW147716   5.918   6.534   2.677 -1.3219  1.0125 -0.3690
15425SOL    HW247717   5.890   6.606   2.807 -1.1171 -0.9199  0.7950
15426SOL     OW47718   3.242   0.449   0.905 -0.1676  0.1913 -0.4723
15426SOL    HW147719   3.305   0.383   0.875  0.1493  0.3990 -0.2612
15426SOL    HW247720   3.166   0.398   0.932  0.5503 -0.1876  0.8998
15427SOL     OW47721   7.951   2.074   0.387 -0.1701  0.7256  0.0903
15427SOL    HW147722   7.977   2.069   0.294 -0.4819  2.0864 -0.0801
15427SOL    HW247723   8.033   2.059   0.435  0.3864  1.9983 -0.4285
15428SOL     OW47724   1.680   0.954   9.246  0.2948 -0.0116 -0.0821
15428SOL    HW147725   1.770   0.982   9.230  0.7511 -1.7711 -0.8953
15428SOL    HW247726   1.688   0.874   9.298 -0.8827  0.5685  1.0672
15429SOL     OW47727   7.661   5.352   5.443 -0.5632  0.1675  0.8097
15429SOL    HW147728   7.635   5.377   5.354 -1.5865 -0.0907  1.0180
15429SOL    HW247729   7.583   5.370   5.496 -0.2962 -0.6222  1.4866
15430SOL     OW47730   4.749   2.864  11.497  0.2812  0.1344 -0.0368
15430SOL    HW147731   4.715   2.895  11.581 -0.5077 -0.7821  0.0139
15430SOL    HW247732   4.690   2.903  11.431 -0.2826 -0.6383 -0.0166
15431SOL     OW47733   5.375   0.525  11.380  0.1180  0.2571  0.3297
15431SOL    HW147734   5.349   0.500  11.292 -1.5872 -1.1300  1.1768
15431SOL    HW247735   5.297   0.566  11.417  0.1632 -0.9374  1.8231
15432SOL     OW47736   2.011   0.263  11.595  0.3606  0.7008 -0.3721
15432SOL    HW147737   2.065   0.289  11.670 -0.7817 -0.8052  1.0431
15432SOL    HW247738   1.950   0.336  11.583  0.4594  0.8924  0.2552
15433SOL     OW47739   4.753   1.009   6.621  0.4626 -0.5558  0.0872
15433SOL    HW147740   4.763   1.022   6.715  0.8127 -0.5258  0.0477
15433SOL    HW247741   4.810   0.934   6.602  0.0593 -0.8365 -0.0286
15434SOL     OW47742   3.040   2.486   5.047 -0.2354  0.0018  0.2845
15434SOL    HW147743   3.029   2.577   5.020  0.5530  0.2958  0.9141
15434SOL    HW247744   3.105   2.489   5.117 -1.9254 -0.7633  1.9727
15435SOL     OW47745   4.560   7.352   3.482  0.2808 -0.4099  0.0187
15435SOL    HW147746   4.553   7.332   3.389  0.0271 -0.2716  0.0070
15435SOL    HW247747   4.573   7.446   3.486  0.1380 -0.3940  0.1278
15436SOL     OW47748   0.823   0.798   7.171 -0.1869  0.4377 -0.1438
15436SOL    HW147749   0.815   0.884   7.212  2.1521 -0.0684  1.5222
15436SOL    HW247750   0.896   0.807   7.111  0.6080 -0.5694  0.6435
15437SOL     OW47751   2.552   1.183   0.086  0.0235  0.8006  0.3207
15437SOL    HW147752   2.572   1.224   0.001 -0.3952  0.4933  0.0670
15437SOL    HW247753   2.461   1.207   0.102 -0.3670 -0.3955 -0.0497
15438SOL     OW47754   4.939   4.914   7.514 -0.4744 -0.1669 -0.8908
15438SOL    HW147755   4.934   4.927   7.609 -1.0352  1.0863 -1.0732
15438SOL    HW247756   5.027   4.881   7.499 -0.4747 -0.6474  0.0951
15439SOL     OW47757   0.239   6.368   9.782  0.5828 -0.2881  0.4597
15439SOL    HW147758   0.162   6.351   9.727 -0.0555 -0.8342  1.5051
15439SOL    HW247759   0.269   6.281   9.808  1.6622 -0.0862 -0.0548
15440SOL     OW47760   0.884   0.794   1.450  0.5035  0.3269  0.1186
15440SOL    HW147761   0.979   0.806   1.447  0.8992 -1.5972  2.2375
15440SOL    HW247762   0.858   0.829   1.535 -0.9569  2.0551 -0.9640
15441SOL     OW47763   5.368   1.490   3.795 -0.1192  0.0035 -0.1741
15441SOL    HW147764   5.319   1.555   3.847  2.5354  0.9651  1.3047
15441SOL    HW247765   5.390   1.421   3.858  0.1046 -0.6140 -0.9180
15442SOL     OW47766   5.071   7.883   1.759  0.0777  0.1443  0.3562
15442SOL    HW147767   4.993   7.907   1.708  1.3241  1.0346 -1.2448
15442SOL    HW247768   5.117   7.820   1.703 -0.0703 -1.3402  1.8319
15443SOL     OW47769   1.395   0.950  11.721 -1.2025  0.4208  0.4277
15443SOL    HW147770   1.410   1.011  11.793 -0.3956  0.3083  0.3665
15443SOL    HW247771   1.480   0.906  11.709 -1.8238 -0.8611  0.6088
15444SOL     OW47772   6.722   2.008   6.205 -0.3686  0.6281 -0.0188
15444SOL    HW147773   6.629   1.984   6.201 -0.1738  0.0067 -1.2779
15444SOL    HW247774   6.748   2.019   6.114  1.0779 -0.3656  0.2322
15445SOL     OW47775   3.821   0.085   7.513 -0.1753 -0.0700  0.2039
15445SOL    HW147776   3.829   0.021   7.584 -0.5881 -0.3484  0.0019
15445SOL    HW247777   3.731   0.075   7.482 -0.5356  1.2369  0.7622
15446SOL     OW47778   2.233   1.945   4.015  0.0274  0.0877 -0.0917
15446SOL    HW147779   2.193   1.983   3.937  2.2533  0.5065 -1.0921
15446SOL    HW247780   2.259   2.021   4.068 -0.4834 -0.1819  0.5720
15447SOL     OW47781   5.025   7.546  10.044  0.1452 -0.2834 -0.1026
15447SOL    HW147782   4.964   7.619  10.042 -0.2415 -0.6092 -0.7849
15447SOL    HW247783   4.995   7.488   9.973  0.5082 -1.0453  0.3519
15448SOL     OW47784   4.219   4.852  12.056  0.0459  0.1713 -0.5443
15448SOL    HW147785   4.223   4.947  12.067 -0.5630  0.1898 -0.4288
15448SOL    HW247786   4.132   4.837  12.018 -0.4059 -0.4557  0.7126
15449SOL     OW47787   4.211   6.609   0.596 -0.0213  0.3913  0.7705
15449SOL    HW147788   4.159   6.662   0.656 -1.2351 -0.3199  0.3614
15449SOL    HW247789   4.209   6.521   0.634  0.1683  0.1775  0.2919
15450SOL     OW47790   4.303   2.291   4.284  0.2493 -0.0593  0.0165
15450SOL    HW147791   4.387   2.288   4.238  0.1963  1.4309 -0.2195
15450SOL    HW247792   4.275   2.382   4.277 -1.2096 -0.4539  0.4268
15451SOL     OW47793   6.749   1.373  12.119 -0.9106  0.1190 -0.0197
15451SOL    HW147794   6.701   1.449  12.151  0.1975  0.8365 -0.0290
15451SOL    HW247795   6.685   1.325  12.066 -1.6470  0.9823  0.0680
15452SOL     OW47796   3.372   7.293   0.788 -0.0338  0.5336 -0.6952
15452SOL    HW147797   3.331   7.287   0.875 -1.1687  0.7680 -1.2045
15452SOL    HW247798   3.466   7.291   0.807 -0.2578 -0.4633  0.4700
15453SOL     OW47799   4.294   7.369   6.191 -0.1286  0.2748  0.4986
15453SOL    HW147800   4.215   7.407   6.151 -1.0143 -0.6940  1.2596
15453SOL    HW247801   4.291   7.399   6.282  0.2339  0.0143  0.5963
15454SOL     OW47802   6.438   2.298   3.609  0.3297  0.0168  0.2983
15454SOL    HW147803   6.401   2.380   3.578 -2.3329 -0.4970  1.8047
15454SOL    HW247804   6.503   2.325   3.675  0.2907  0.9193 -0.0157
15455SOL     OW47805   5.623   7.377   1.643  0.3493 -0.3829  0.1148
15455SOL    HW147806   5.659   7.416   1.723  0.0715  0.0240  0.0448
15455SOL    HW247807   5.688   7.312   1.617  2.2486  1.9007 -1.2924
15456SOL     OW47808   5.821   5.292  10.858  0.4781 -0.1413 -0.2597
15456SOL    HW147809   5.762   5.245  10.799  1.3089 -0.3832 -0.9199
15456SOL    HW247810   5.814   5.384  10.832 -1.2709  0.1872  1.1397
15457SOL     OW47811   5.939   3.376   6.626 -0.2434  0.5342 -0.0669
15457SOL    HW147812   6.010   3.423   6.670 -0.0565 -0.6219  0.9068
15457SOL    HW247813   5.900   3.441   6.568  0.5579  1.6433  0.5975
15458SOL     OW47814   3.370   6.723   7.563 -0.7742  0.2480 -0.2505
15458SOL    HW147815   3.368   6.736   7.658  0.2102 -0.6344 -0.0890
15458SOL    HW247816   3.371   6.812   7.527 -0.7551  0.5910  0.5732
15459SOL     OW47817   4.353   7.906  10.826 -0.1132 -0.1322  0.0527
15459SOL    HW147818   4.355   7.892  10.920  0.5567 -3.7453 -0.3711
15459SOL    HW247819   4.445   7.904  10.799 -0.1852  2.2024 -0.6173
15460SOL     OW47820   2.329   7.482   3.940  0.1244  0.2241 -0.3238
15460SOL    HW147821   2.364   7.510   4.025 -0.2746  0.3676 -0.2039
15460SOL    HW247822   2.257   7.424   3.962  3.4532 -4.5281 -0.4705
15461SOL     OW47823   6.623   6.479   2.686  0.3426  0.2421 -0.1801
15461SOL    HW147824   6.659   6.480   2.598 -0.5140  1.2602 -0.5379
15461SOL    HW247825   6.699   6.463   2.743  0.6629 -2.1344 -1.1655
15462SOL     OW47826   6.416   2.139   0.972  0.1346 -0.0220 -0.3608
15462SOL    HW147827   6.422   2.164   0.880 -0.8080  2.0475  0.0757
15462SOL    HW247828   6.423   2.222   1.020 -0.2781 -0.9462  1.3924
15463SOL     OW47829   4.281   2.407  11.029 -0.4316  0.3184 -0.1661
15463SOL    HW147830   4.346   2.451  11.084 -1.5604  2.7938 -0.6644
15463SOL    HW247831   4.286   2.452  10.945  0.6885 -2.8475 -1.9591
15464SOL     OW47832   3.134   6.939  10.911 -1.3281  0.1989  0.4478
15464SOL    HW147833   3.212   6.960  10.962 -1.3567  1.3603  0.0471
15464SOL    HW247834   3.139   6.997  10.835 -2.0755 -0.4217 -0.0887
15465SOL     OW47835   2.809   3.817   8.215  0.3089 -0.3402 -0.1809
15465SOL    HW147836   2.840   3.729   8.238  0.4402 -0.1784  0.2653
15465SOL    HW247837   2.722   3.802   8.177  0.6956 -0.7403 -0.9258
15466SOL     OW47838   4.209   2.492  11.348 -0.0493  0.5019 -0.3261
15466SOL    HW147839   4.299   2.523  11.336 -0.1794  1.2335  0.4377
15466SOL    HW247840   4.156   2.556  11.300 -0.0932 -0.7278 -1.9898
15467SOL     OW47841   2.956   5.348  10.824 -0.0364 -0.4638 -0.5463
15467SOL    HW147842   2.942   5.317  10.913 -1.3731  0.1470 -0.5300
15467SOL    HW247843   2.877   5.323  10.776 -0.3472  1.2081 -0.9831
15468SOL     OW47844   3.201   2.092   8.275 -0.8291  0.3278 -0.0078
15468SOL    HW147845   3.207   2.031   8.201  0.5635  0.1331  0.2391
15468SOL    HW247846   3.144   2.162   8.243 -0.6609 -0.0080 -1.0856
15469SOL     OW47847   6.770   3.320   4.508  0.0019 -0.1204  0.8953
15469SOL    HW147848   6.822   3.352   4.581  0.6902  1.6590 -0.3071
15469SOL    HW247849   6.812   3.238   4.481  1.0561  0.3279  1.1403
15470SOL     OW47850   2.135   7.502   5.213 -0.1380 -0.3812  0.2107
15470SOL    HW147851   2.198   7.533   5.148  0.1828 -1.5154 -0.0366
15470SOL    HW247852   2.167   7.538   5.296  0.1930 -0.0201 -0.0685
15471SOL     OW47853   6.402   6.550   9.600 -0.0229  0.0497 -0.3587
15471SOL    HW147854   6.417   6.629   9.548  0.4480 -0.5258 -1.1135
15471SOL    HW247855   6.399   6.582   9.690 -1.2805  1.1214 -0.7460
15472SOL     OW47856   0.173   6.797  10.562  0.6267 -0.5523  0.2338
15472SOL    HW147857   0.094   6.752  10.535  0.4925  0.6730 -1.5844
15472SOL    HW247858   0.171   6.795  10.658 -1.5996 -0.5330  0.2235
15473SOL     OW47859   0.807   7.470   5.044  0.3807 -0.4456 -0.4848
15473SOL    HW147860   0.757   7.489   5.123  0.5369 -1.0455 -0.2424
15473SOL    HW247861   0.753   7.506   4.973 -0.1011 -0.5483 -0.1752
15474SOL     OW47862   2.651   5.610   1.167 -0.5940 -0.3729 -0.1430
15474SOL    HW147863   2.738   5.587   1.134 -0.1343 -0.0494  0.8187
15474SOL    HW247864   2.591   5.578   1.099  0.2640 -0.6352 -0.7994
15475SOL     OW47865   5.428   7.762   7.321  0.0138  0.6581 -0.3476
15475SOL    HW147866   5.515   7.757   7.359  0.3324 -0.1951 -1.1659
15475SOL    HW247867   5.431   7.706   7.244 -0.8548  1.7124 -1.1885
15476SOL     OW47868   7.869   2.122   6.960  0.4595  0.2926  0.5257
15476SOL    HW147869   7.800   2.066   6.996 -0.9219  1.5437 -0.0841
15476SOL    HW247870   7.903   2.072   6.885  0.1264 -0.2764  0.7512
15477SOL     OW47871   6.069   3.078   3.221 -0.3216 -0.5283  0.2549
15477SOL    HW147872   6.150   3.045   3.182 -0.3152  0.0550 -0.2439
15477SOL    HW247873   6.060   3.030   3.303 -0.9197 -2.6167 -0.9789
15478SOL     OW47874   7.870   5.724   5.568 -0.4099  0.0414  0.3644
15478SOL    HW147875   7.883   5.710   5.475  0.5700 -1.8502  0.7461
15478SOL    HW247876   7.775   5.723   5.579 -0.5004 -1.6753 -0.3685
15479SOL     OW47877   3.970   0.299   7.506  0.1118 -0.1735  0.1280
15479SOL    HW147878   3.901   0.237   7.531 -0.7663 -0.0391 -1.8443
15479SOL    HW247879   4.045   0.243   7.483  0.7342 -0.3176  2.2386
15480SOL     OW47880   2.397   1.909  10.477 -0.0030 -0.0506  0.9341
15480SOL    HW147881   2.314   1.860  10.474  0.8484 -1.5113  0.1040
15480SOL    HW247882   2.461   1.846  10.510  0.7989  1.0437  1.4957
15481SOL     OW47883   1.068   2.451   6.355  0.2146  0.6431 -0.0268
15481SOL    HW147884   1.072   2.491   6.268 -0.3783  0.3299 -0.2028
15481SOL    HW247885   0.978   2.420   6.363 -0.0983  1.7579  1.1882
15482SOL     OW47886   1.561   2.891  10.058 -0.6430 -0.5442 -0.6156
15482SOL    HW147887   1.502   2.832  10.012 -1.3773  0.2164 -0.6944
15482SOL    HW247888   1.527   2.893  10.148  0.0801 -1.1328 -0.3260
15483SOL     OW47889   6.564   2.132   8.085  0.3989  0.4305  0.3955
15483SOL    HW147890   6.500   2.077   8.039  0.3489  1.8045 -1.2878
15483SOL    HW247891   6.578   2.088   8.168 -0.8295 -1.2644 -0.2357
15484SOL     OW47892   1.517   5.250   2.146  0.0062  0.6111 -0.6571
15484SOL    HW147893   1.449   5.278   2.085 -0.5924 -1.3516 -0.9682
15484SOL    HW247894   1.551   5.331   2.183 -3.7946  1.7238  0.9617
15485SOL     OW47895   2.531   0.466  11.957  0.7570  0.6453 -0.1413
15485SOL    HW147896   2.513   0.422  11.874  3.3451  1.9668 -1.5315
15485SOL    HW247897   2.612   0.426  11.988  0.9081  1.5710  0.6947
15486SOL     OW47898   4.856   2.291   5.757 -0.5800 -0.3785 -0.2363
15486SOL    HW147899   4.878   2.255   5.671  0.0573 -0.4248 -0.0548
15486SOL    HW247900   4.917   2.249   5.817  0.0532  0.8530  0.0153
15487SOL     OW47901   5.913   5.984  10.384 -0.1619  0.1766 -1.1049
15487SOL    HW147902   5.903   6.076  10.362  1.7993  0.3690 -1.3954
15487SOL    HW247903   5.893   5.937  10.304 -1.7121  0.2922 -0.8060
15488SOL     OW47904   3.833   4.223   0.290 -0.5047  0.5468  0.1297
15488SOL    HW147905   3.887   4.299   0.268 -0.7766 -0.3713 -4.6760
15488SOL    HW247906   3.895   4.150   0.294 -0.6657  0.4529  1.3034
15489SOL     OW47907   2.602   7.567   0.924 -0.2232  0.4431  0.3040
15489SOL    HW147908   2.545   7.579   0.848 -0.2751  0.2892  0.3186
15489SOL    HW247909   2.599   7.473   0.941 -0.5090  0.5282  0.7274
15490SOL     OW47910   6.061   3.263  12.153  0.0930  0.1419  0.4817
15490SOL    HW147911   6.053   3.217  12.236  0.3792  3.3757  2.4746
15490SOL    HW247912   6.154   3.259  12.132  0.0817 -0.3354  0.5104
15491SOL     OW47913   6.991   4.386   5.389  0.3138  0.0272  0.0764
15491SOL    HW147914   6.937   4.427   5.456 -1.1138  0.4131 -1.2383
15491SOL    HW247915   6.940   4.309   5.362  0.2036  0.5942 -1.4304
15492SOL     OW47916   4.167   4.145   2.691  0.2907  0.8862  0.2125
15492SOL    HW147917   4.214   4.064   2.714  0.1069  0.9078  0.6735
15492SOL    HW247918   4.218   4.182   2.618  0.0140  0.0331 -0.4284
15493SOL     OW47919   0.700   4.255  11.076 -0.2706 -0.4738  0.4696
15493SOL    HW147920   0.719   4.316  11.147  0.0358  0.5144 -0.4295
15493SOL    HW247921   0.631   4.298  11.026  0.5136 -0.4579 -0.6414
15494SOL     OW47922   6.605   5.742   3.511 -0.3958 -0.3596  0.5378
15494SOL    HW147923   6.579   5.684   3.582 -1.4171 -0.5720  0.0059
15494SOL    HW247924   6.608   5.686   3.434 -0.2167  0.0608  0.2384
15495SOL     OW47925   5.506   7.632   6.202 -0.6131  0.1632 -0.5394
15495SOL    HW147926   5.516   7.692   6.276  0.8059  0.4891 -0.9464
15495SOL    HW247927   5.545   7.550   6.233  0.7989  0.5545 -1.1661
15496SOL     OW47928   3.679   4.944  11.763  0.2641  0.1281  0.2863
15496SOL    HW147929   3.660   5.029  11.724 -1.5266 -0.0013  0.8137
15496SOL    HW247930   3.617   4.884  11.723  0.0338 -0.4925  1.5243
15497SOL     OW47931   2.229   7.281   2.348  0.5286 -0.4833 -0.7699
15497SOL    HW147932   2.302   7.238   2.304 -0.4425 -0.9793 -1.9447
15497SOL    HW247933   2.173   7.313   2.277  0.3791  1.2634  0.0857
15498SOL     OW47934   5.465   4.325   6.936 -0.2768 -0.3438 -0.1355
15498SOL    HW147935   5.560   4.318   6.941 -0.2600 -0.2483 -0.3161
15498SOL    HW247936   5.436   4.324   7.027 -0.0988 -0.3254 -0.0795
15499SOL     OW47937   4.866   0.634   7.369  0.7817  0.0010 -0.1520
15499SOL    HW147938   4.897   0.552   7.406  0.8900  0.3117  0.4543
15499SOL    HW247939   4.770   0.627   7.372  0.7900  0.0551  0.2601
15500SOL     OW47940   6.949   1.589   8.002  0.1176  0.7126  0.0061
15500SOL    HW147941   6.998   1.650   7.946  0.4841  1.0204  0.6584
15500SOL    HW247942   6.887   1.547   7.942 -0.6508  2.2487 -0.3360
15501SOL     OW47943   1.091   5.539   1.554 -0.0657 -0.7490 -0.5082
15501SOL    HW147944   1.079   5.630   1.526  0.1474 -0.4766  0.2529
15501SOL    HW247945   1.069   5.487   1.477  0.7495 -0.0153 -1.2603
15502SOL     OW47946   0.402   0.451   9.826  0.1364  0.4953  0.1138
15502SOL    HW147947   0.468   0.513   9.854  1.9828 -1.0953 -0.4826
15502SOL    HW247948   0.361   0.421   9.907  0.9411  0.6707  0.5941
15503SOL     OW47949   1.704   2.529   8.312  0.1739 -0.7644 -0.5364
15503SOL    HW147950   1.664   2.474   8.379 -2.1333  0.1726 -1.0450
15503SOL    HW247951   1.654   2.610   8.315  2.1474  0.5379 -1.2182
15504SOL     OW47952   7.264   7.869  10.793  0.1211 -0.1591 -0.1371
15504SOL    HW147953   7.270   7.779  10.824  0.9545  0.0621  0.3800
15504SOL    HW247954   7.355   7.899  10.788 -0.1630  0.8228  0.2277
15505SOL     OW47955   3.525   7.184   2.728  0.2890 -0.0287 -0.0439
15505SOL    HW147956   3.496   7.276   2.726  0.1756 -0.0760 -0.8040
15505SOL    HW247957   3.484   7.144   2.652  0.9038 -0.5436 -0.1127
15506SOL     OW47958   7.982   1.778   6.807 -0.2921 -0.2026  0.0836
15506SOL    HW147959   8.051   1.790   6.872 -0.5931  0.7764  0.2342
15506SOL    HW247960   7.977   1.861   6.761 -0.5386 -0.6691 -0.7555
15507SOL     OW47961   6.479   7.513   7.794 -0.0132 -0.3515 -0.5373
15507SOL    HW147962   6.534   7.508   7.716  1.6170  0.2974  0.5113
15507SOL    HW247963   6.523   7.458   7.858  0.4805  1.5816  0.8985
15508SOL     OW47964   7.740   6.997   0.718 -0.3635 -0.1286 -0.1141
15508SOL    HW147965   7.717   7.073   0.773 -0.9224 -0.5536  0.2581
15508SOL    HW247966   7.657   6.971   0.678  0.1603  0.6490 -1.8111
15509SOL     OW47967   6.865   2.489   9.231  0.3447 -0.4317  0.1864
15509SOL    HW147968   6.823   2.403   9.241 -1.2889 -0.1014 -2.7511
15509SOL    HW247969   6.832   2.541   9.304  1.6792 -2.3230  2.2579
15510SOL     OW47970   6.154   4.302   0.891 -0.3296 -0.0157 -0.1053
15510SOL    HW147971   6.152   4.357   0.970 -0.2147 -0.1259 -0.0244
15510SOL    HW247972   6.245   4.270   0.887 -0.3903 -0.1808 -0.1640
15511SOL     OW47973   2.370   3.609   0.347  0.0135 -0.5799  0.6103
15511SOL    HW147974   2.316   3.668   0.294 -0.3481 -0.2902  1.2908
15511SOL    HW247975   2.456   3.611   0.306  0.1292  0.7797  0.8967
15512SOL     OW47976   5.606   4.605   6.407  0.4260 -0.2849 -0.0167
15512SOL    HW147977   5.564   4.527   6.441 -1.0828  0.2105 -0.6851
15512SOL    HW247978   5.561   4.624   6.324  2.3529 -0.0552 -1.0754
15513SOL     OW47979   2.822   3.876   0.913  0.1514  0.0203  0.1716
15513SOL    HW147980   2.863   3.899   0.997 -2.2653 -2.5908  2.2787
15513SOL    HW247981   2.869   3.798   0.884 -0.8832 -0.8382  0.7223
15514SOL     OW47982   4.675   4.377   0.817  0.2590  0.8162 -0.3292
15514SOL    HW147983   4.725   4.354   0.895  0.6840 -1.3939 -1.2036
15514SOL    HW247984   4.739   4.374   0.745 -0.4118  1.4757 -0.9772
15515SOL     OW47985   7.687   2.538   3.776 -0.1956 -0.0140  0.5216
15515SOL    HW147986   7.599   2.559   3.806 -1.0652 -1.7031 -0.6459
15515SOL    HW247987   7.710   2.610   3.718 -0.2860  1.0428  1.7538
15516SOL     OW47988   1.666   0.474   0.822  0.1752 -0.1987  0.3259
15516SOL    HW147989   1.722   0.545   0.854  0.8925 -0.3828 -0.4750
15516SOL    HW247990   1.722   0.425   0.761 -1.6753  1.3026 -2.8139
15517SOL     OW47991   1.467   3.661  11.822  0.3354  0.0955  0.5369
15517SOL    HW147992   1.408   3.737  11.817  0.0258 -0.2078 -0.5916
15517SOL    HW247993   1.409   3.586  11.836  0.4404 -0.2119 -0.6301
15518SOL     OW47994   7.771   5.884   6.764 -0.4035  0.3362  0.3645
15518SOL    HW147995   7.820   5.921   6.838  0.1547  0.5079 -0.0824
15518SOL    HW247996   7.772   5.790   6.778 -1.9231  0.4618  1.5705
15519SOL     OW47997   5.681   7.972   2.554  0.3985  0.2444 -0.0029
15519SOL    HW147998   5.685   8.067   2.548  1.8151  0.3197  1.4875
15519SOL    HW247999   5.737   7.950   2.629 -1.0624 -1.6452  0.6227
15520SOL     OW48000   6.545   5.876  10.674 -0.2699 -0.4377 -0.1143
15520SOL    HW148001   6.529   5.966  10.705  0.5854 -0.5333  0.6103
15520SOL    HW248002   6.633   5.879  10.637 -0.3294 -0.9367 -0.2946
15521SOL     OW48003   7.141   7.567   4.043 -0.1439  0.8682  0.4725
15521SOL    HW148004   7.071   7.592   4.102  0.4262 -0.1579  1.6374
15521SOL    HW248005   7.148   7.472   4.053  1.1164  0.8923  0.0764
15522SOL     OW48006   6.045   0.800   3.625 -0.5320  0.1657 -0.0133
15522SOL    HW148007   6.086   0.876   3.666 -0.6640  1.7948 -2.6276
15522SOL    HW248008   6.112   0.731   3.630  0.7729  1.3821 -0.1675
15523SOL     OW48009   7.263   4.308   9.980 -0.2398  0.0953 -0.0795
15523SOL    HW148010   7.204   4.262   9.920  0.6860  1.0264 -1.7782
15523SOL    HW248011   7.209   4.377  10.018 -0.3961  0.6619 -1.2790
15524SOL     OW48012   6.891   1.925  12.413  0.3712 -0.0132  0.2078
15524SOL    HW148013   6.822   1.983  12.446  0.4365 -1.0926  2.3780
15524SOL    HW248014   6.971   1.976  12.423  0.3219 -0.1178  1.2510
15525SOL     OW48015   4.091   0.870   2.576 -0.1325  0.3571  0.2710
15525SOL    HW148016   4.057   0.808   2.641  1.0593 -0.1572  0.4465
15525SOL    HW248017   4.023   0.875   2.509 -0.4712 -0.7526  0.5126
15526SOL     OW48018   0.450   5.310   6.489  0.1279  0.5166 -0.3987
15526SOL    HW148019   0.382   5.364   6.530  0.0413  0.8980 -1.0395
15526SOL    HW248020   0.458   5.344   6.400  0.4702 -0.1685 -0.6364
15527SOL     OW48021   6.732   6.493   6.679  0.1510  0.3472  0.0954
15527SOL    HW148022   6.659   6.457   6.628 -1.1096  0.2226  1.8917
15527SOL    HW248023   6.807   6.440   6.654 -0.2778  0.6122 -1.9800
15528SOL     OW48024   2.042   0.337   5.201  0.2195 -0.0473  0.3406
15528SOL    HW148025   2.133   0.364   5.191 -0.2165  0.9575 -1.2396
15528SOL    HW248026   2.035   0.257   5.148  0.2497 -0.3339  0.7596
15529SOL     OW48027   6.750   4.510   2.700  0.6669 -0.1504 -0.4016
15529SOL    HW148028   6.708   4.569   2.638  1.1541  0.4949 -0.1263
15529SOL    HW248029   6.717   4.423   2.677  1.5625 -0.0691 -2.1872
15530SOL     OW48030   1.386   2.336   6.393 -0.8583 -0.2252 -0.5642
15530SOL    HW148031   1.310   2.383   6.360 -1.9174 -0.7541  1.0104
15530SOL    HW248032   1.351   2.270   6.452  0.8559  0.7313  1.7010
15531SOL     OW48033   6.362   3.245   6.510  0.1290 -0.0914  0.4714
15531SOL    HW148034   6.335   3.289   6.429  2.3479  2.8095  1.1742
15531SOL    HW248035   6.428   3.182   6.481 -0.9825 -1.0081 -0.2027
15532SOL     OW48036   4.223   1.248   4.886  0.2558 -0.2121  0.2329
15532SOL    HW148037   4.170   1.318   4.848 -0.9865 -2.0535 -1.6648
15532SOL    HW248038   4.160   1.194   4.935  1.0191 -0.5203  0.9065
15533SOL     OW48039   6.256   1.641   3.395  0.7057  0.1801  0.3231
15533SOL    HW148040   6.348   1.623   3.374  1.4864  2.6015  1.2722
15533SOL    HW248041   6.245   1.607   3.484  1.1967  1.2962  0.8317
15534SOL     OW48042   7.960   3.115   3.171 -0.0878 -0.2025  0.0306
15534SOL    HW148043   8.038   3.135   3.223 -0.5722  2.3389 -0.1332
15534SOL    HW248044   7.995   3.093   3.084  0.5295 -1.0463  0.4770
15535SOL     OW48045   6.914   7.573   6.599 -0.2621 -0.1217 -0.3991
15535SOL    HW148046   6.956   7.571   6.685 -1.5283 -1.0408  0.2407
15535SOL    HW248047   6.964   7.509   6.547  0.6418  0.5937 -0.4445
15536SOL     OW48048   6.604   4.966   6.366  0.8209 -0.3770 -0.6672
15536SOL    HW148049   6.512   4.986   6.347  0.5867 -0.0024  0.7389
15536SOL    HW248050   6.611   4.871   6.351 -0.0434 -0.5792  0.1179
15537SOL     OW48051   0.847   6.997   5.440  0.2751 -0.7020  0.6089
15537SOL    HW148052   0.821   7.038   5.357  0.9401 -1.6601 -0.0970
15537SOL    HW248053   0.771   7.009   5.497 -1.1125 -1.9809 -0.8589
15538SOL     OW48054   0.492   0.010   2.917 -0.1478 -0.0812 -0.7808
15538SOL    HW148055   0.516  -0.016   3.005  1.6568 -0.0801 -1.2345
15538SOL    HW248056   0.491   0.105   2.919 -0.9558 -0.0802 -0.5808
15539SOL     OW48057   3.373   2.833   1.122 -0.3398 -0.1047  0.2136
15539SOL    HW148058   3.305   2.829   1.055  0.5589  2.4573 -1.0008
15539SOL    HW248059   3.342   2.901   1.182  1.1639  1.2713 -0.4918
15540SOL     OW48060   5.576   5.645   2.420 -0.4677  0.4643 -0.5641
15540SOL    HW148061   5.540   5.734   2.414  1.3857  1.2261 -0.9591
15540SOL    HW248062   5.646   5.643   2.355  0.1623 -0.9775  0.1214
15541SOL     OW48063   6.838   3.919   8.004 -0.2913  0.2347 -0.2713
15541SOL    HW148064   6.890   3.996   7.982 -1.0011  1.4248  1.8349
15541SOL    HW248065   6.775   3.952   8.069 -0.3221 -2.2186  1.0390
15542SOL     OW48066   1.080   5.461   4.711  0.0153 -0.3661 -0.1608
15542SOL    HW148067   1.122   5.439   4.794 -1.2475 -0.0417  0.5799
15542SOL    HW248068   1.139   5.525   4.671  1.6390 -1.9736 -0.4638
15543SOL     OW48069   1.700   3.006  11.332  0.0049 -0.1083  0.6286
15543SOL    HW148070   1.634   3.041  11.392  0.1214 -0.2861  0.8644
15543SOL    HW248071   1.714   2.916  11.363  1.5122  0.4268  1.5654
15544SOL     OW48072   4.832   2.732   3.602 -0.3929 -0.6005 -0.2794
15544SOL    HW148073   4.841   2.658   3.543  1.2485 -0.2820 -0.4938
15544SOL    HW248074   4.918   2.774   3.600 -1.4242  1.6325 -0.5977
15545SOL     OW48075   6.638   4.707   6.230 -0.4040  0.0364  0.1397
15545SOL    HW148076   6.553   4.666   6.210 -1.1541  2.1720 -1.4715
15545SOL    HW248077   6.698   4.670   6.166 -0.3592 -0.6463  0.5610
15546SOL     OW48078   4.615   1.257   4.561  0.0452 -0.2605  0.1295
15546SOL    HW148079   4.693   1.225   4.514  0.9771  0.1176  1.3768
15546SOL    HW248080   4.641   1.259   4.653 -1.1074  0.8640  0.4570
15547SOL     OW48081   6.023   5.691  11.501 -0.2109  0.1152  0.3273
15547SOL    HW148082   6.027   5.730  11.413 -2.5865 -1.0075 -0.3661
15547SOL    HW248083   6.027   5.597  11.485  1.0984 -0.0759  1.6068
15548SOL     OW48084   3.658   4.689  10.356 -0.6128  0.1042 -0.3698
15548SOL    HW148085   3.691   4.673  10.268  3.6578 -2.5532  1.3746
15548SOL    HW248086   3.602   4.613  10.375  0.8162 -0.8806  0.0734
15549SOL     OW48087   5.223   4.930   9.509 -0.5793 -0.0212  0.3824
15549SOL    HW148088   5.177   4.993   9.453 -2.5146  0.0625  1.9537
15549SOL    HW248089   5.316   4.952   9.499 -1.0981  2.1817 -0.1649
15550SOL     OW48090   5.757   2.285   2.830  0.2322  0.4011 -0.3470
15550SOL    HW148091   5.817   2.349   2.792  1.5640 -0.6893 -0.1402
15550SOL    HW248092   5.691   2.338   2.874  1.2258  1.6414 -0.2862
15551SOL     OW48093   2.566   0.214   1.508 -0.1033  0.6024 -0.0992
15551SOL    HW148094   2.647   0.163   1.514 -0.2851  0.3736  0.4628
15551SOL    HW248095   2.505   0.156   1.464 -0.4407  0.1489  0.9241
15552SOL     OW48096   6.665   4.282  11.727 -0.5669  0.0542 -0.2527
15552SOL    HW148097   6.596   4.216  11.735 -0.0845 -0.5867 -1.2571
15552SOL    HW248098   6.746   4.232  11.721  0.2438  0.8034  2.6135
15553SOL     OW48099   4.682   4.644  11.678  0.3945  0.3949  0.7213
15553SOL    HW148100   4.740   4.708  11.719  1.5823 -1.3854  1.9144
15553SOL    HW248101   4.677   4.672  11.586 -0.0964  2.8476  1.4299
15554SOL     OW48102   2.520   1.122   3.920  0.3189 -0.0462 -0.4451
15554SOL    HW148103   2.606   1.084   3.900  1.0697  1.6297 -0.5788
15554SOL    HW248104   2.541   1.206   3.962 -1.1765  1.8381 -3.1749
15555SOL     OW48105   7.471   4.346  10.165 -0.0543 -0.3824 -0.3904
15555SOL    HW148106   7.410   4.311  10.100 -1.9979  1.0919  0.5414
15555SOL    HW248107   7.447   4.302  10.247 -0.0260  0.3817  0.0375
15556SOL     OW48108   4.507   1.998   3.984 -0.1867  0.0708  0.1824
15556SOL    HW148109   4.533   1.985   3.893  0.9122  0.9088  0.3447
15556SOL    HW248110   4.512   2.093   3.997 -0.8427  0.0096  0.9744
15557SOL     OW48111   0.064   7.654   6.262 -0.1186  0.2003 -0.2652
15557SOL    HW148112   0.024   7.576   6.302  0.2800 -1.1389 -2.3005
15557SOL    HW248113   0.040   7.726   6.320 -2.9747 -0.9951  0.2074
15558SOL     OW48114   1.130   6.210   4.557 -0.0379  0.1950 -0.1322
15558SOL    HW148115   1.120   6.135   4.499  0.9667 -0.4998  0.5587
15558SOL    HW248116   1.215   6.247   4.533 -0.9754  1.7643 -1.1789
15559SOL     OW48117   6.698   2.812   3.594 -0.1092  0.3064 -0.3365
15559SOL    HW148118   6.656   2.771   3.518 -0.3966 -0.6287  0.3122
15559SOL    HW248119   6.792   2.798   3.580 -0.1748 -0.0985 -0.3878
15560SOL     OW48120   7.254   1.339   7.293  0.0390 -0.0472 -0.7177
15560SOL    HW148121   7.190   1.270   7.276 -0.1366  0.2163 -1.1669
15560SOL    HW248122   7.324   1.297   7.343 -1.2021 -0.0139  1.1477
15561SOL     OW48123   2.297   5.392   8.688  0.5483  0.2691  0.2081
15561SOL    HW148124   2.389   5.365   8.681  0.3347 -0.5163  0.3140
15561SOL    HW248125   2.256   5.356   8.610  0.5752  1.7332 -0.5193
15562SOL     OW48126   7.735   7.871   2.413 -0.0709 -0.1796 -0.1263
15562SOL    HW148127   7.771   7.891   2.327  0.9991 -0.8273  0.1510
15562SOL    HW248128   7.640   7.872   2.401  0.0685 -0.0300 -1.2515
15563SOL     OW48129   3.583   4.846  10.547 -0.6231  0.0200  0.1851
15563SOL    HW148130   3.587   4.761  10.502 -0.0147  0.0546  0.1698
15563SOL    HW248131   3.657   4.896  10.511 -1.6900  1.0154 -0.7240
15564SOL     OW48132   2.975   3.497  11.045  0.1427  0.2325 -0.0525
15564SOL    HW148133   2.897   3.442  11.056  0.7577 -0.5613  0.4973
15564SOL    HW248134   2.953   3.556  10.973 -0.2549 -1.2587 -1.2118
15565SOL     OW48135   0.449   5.262   4.260 -0.4576  0.1847 -0.4001
15565SOL    HW148136   0.405   5.309   4.189 -1.2135  0.3772  0.1779
15565SOL    HW248137   0.393   5.278   4.336  1.1671  1.3165  0.5962
15566SOL     OW48138   4.393   5.140   9.514  0.2459 -0.0286 -0.2503
15566SOL    HW148139   4.479   5.182   9.522  0.1974  0.0631 -0.2237
15566SOL    HW248140   4.414   5.047   9.503  0.3080 -0.2081  1.2056
15567SOL     OW48141   7.313   4.152   2.380 -0.0710  0.2197 -0.5977
15567SOL    HW148142   7.387   4.139   2.321  0.1038  1.2620 -0.6406
15567SOL    HW248143   7.349   4.205   2.451 -0.6077  0.1482 -0.2711
15568SOL     OW48144   7.019   2.675  11.761  0.4036  0.1493 -0.7009
15568SOL    HW148145   6.935   2.717  11.783  0.5031  0.1563 -0.3270
15568SOL    HW248146   6.996   2.584  11.744  0.6284 -0.4205  1.7452
15569SOL     OW48147   6.564   2.129   7.696  0.2315 -1.4259 -0.0769
15569SOL    HW148148   6.476   2.124   7.659  0.3996 -2.1674 -0.3828
15569SOL    HW248149   6.577   2.045   7.741 -0.3443 -0.2110  2.5533
15570SOL     OW48150   6.559   7.928   4.562  0.5051  0.2329  0.0598
15570SOL    HW148151   6.533   7.959   4.649  1.7322  1.2062  0.1033
15570SOL    HW248152   6.652   7.909   4.570  0.5312 -0.1011 -0.9312
15571SOL     OW48153   0.760   3.191  10.743  0.3581  0.1751  0.0120
15571SOL    HW148154   0.713   3.146  10.672  1.9820 -1.3049 -0.2156
15571SOL    HW248155   0.755   3.130  10.817  0.9563  0.4878  0.3137
15572SOL     OW48156   5.025   5.557   3.755  0.1593  0.3154  0.0360
15572SOL    HW148157   4.990   5.496   3.689  1.7552 -0.5438 -0.0836
15572SOL    HW248158   5.120   5.549   3.745  0.4808  3.7285 -0.7875
15573SOL     OW48159   6.620   2.573  12.411  0.7173 -0.5031 -0.4487
15573SOL    HW148160   6.540   2.554  12.458  0.0160  1.5354 -0.7057
15573SOL    HW248161   6.665   2.638  12.466  1.2191 -0.1678 -1.2358
15574SOL     OW48162   3.728   2.645  11.143  0.0190  0.1048 -0.0603
15574SOL    HW148163   3.752   2.569  11.091 -0.6040 -0.3195  0.2656
15574SOL    HW248164   3.685   2.704  11.082 -1.4408 -0.7414  0.1237
15575SOL     OW48165   6.524   6.670  11.990 -0.3294  0.0211  0.4813
15575SOL    HW148166   6.613   6.638  11.974  0.0604  2.0544 -1.9300
15575SOL    HW248167   6.534   6.735  12.059  0.2953  1.1748 -0.6743
15576SOL     OW48168   2.357   6.420  10.704  0.0163  0.2804 -0.0756
15576SOL    HW148169   2.447   6.421  10.738  0.0246  0.8155 -0.1051
15576SOL    HW248170   2.354   6.344  10.647  0.1536 -0.3437  0.7238
15577SOL     OW48171   1.534   5.270  12.425 -0.0810 -0.2575 -0.2368
15577SOL    HW148172   1.486   5.349  12.450  1.2914  0.4251  0.3501
15577SOL    HW248173   1.500   5.248  12.338 -2.5196 -0.7188  0.7589
15578SOL     OW48174   6.419   7.216  10.566 -0.2455  0.5083  0.1864
15578SOL    HW148175   6.500   7.259  10.595 -0.0269 -0.3994  0.9726
15578SOL    HW248176   6.363   7.288  10.538 -0.0877  1.3841  1.9530
15579SOL     OW48177   7.450   7.662   9.296  0.1703  0.2123 -0.1845
15579SOL    HW148178   7.511   7.721   9.341 -0.2764 -0.9646  2.1047
15579SOL    HW248179   7.455   7.580   9.344 -0.8666 -0.9461 -1.9286
15580SOL     OW48180   3.318   0.989   4.829 -0.0135  0.6339 -0.4028
15580SOL    HW148181   3.346   1.014   4.741 -0.0583  0.8107 -0.3664
15580SOL    HW248182   3.372   0.912   4.850 -1.8746 -1.1412 -1.6814
15581SOL     OW48183   1.164   6.795   9.635  0.5560 -0.2001  0.3022
15581SOL    HW148184   1.208   6.752   9.708  1.8153 -1.0168 -0.8777
15581SOL    HW248185   1.235   6.818   9.575 -0.2936  1.8079 -0.0031
15582SOL     OW48186   1.438   3.868  12.405  0.0652 -0.0315  0.1915
15582SOL    HW148187   1.386   3.948  12.413  1.1613  0.6835  0.3554
15582SOL    HW248188   1.374   3.800  12.385 -0.7679  1.0777 -1.0762
15583SOL     OW48189   0.659   7.550   0.947  0.3550 -0.6113  0.3337
15583SOL    HW148190   0.578   7.535   0.997 -1.7838 -2.4858 -3.2442
15583SOL    HW248191   0.654   7.642   0.920 -1.4921 -1.0768 -1.1035
15584SOL     OW48192   3.889   5.904   6.245  0.1953 -0.3376  0.1654
15584SOL    HW148193   3.926   5.972   6.189  0.1832 -0.5388 -0.0916
15584SOL    HW248194   3.934   5.824   6.218  0.2158 -0.4312  0.4715
15585SOL     OW48195   1.895   5.368   8.529 -0.0647  0.5781 -0.4428
15585SOL    HW148196   1.907   5.449   8.480  2.6910 -0.1336 -1.0816
15585SOL    HW248197   1.822   5.324   8.485  1.1473  0.8010 -2.8214
15586SOL     OW48198   6.564   2.749   9.034  0.1410  0.4252  0.0481
15586SOL    HW148199   6.556   2.841   9.010  0.5725  0.5101  0.2187
15586SOL    HW248200   6.586   2.751   9.127 -0.1866  0.1393  0.1304
15587SOL     OW48201   6.301   2.580   1.035 -0.8042  0.0806  0.3895
15587SOL    HW148202   6.326   2.515   0.969 -1.6121 -0.2348  0.3783
15587SOL    HW248203   6.345   2.552   1.115 -0.0287  0.3157  0.0584
15588SOL     OW48204   4.884   4.818   7.789  0.0908 -0.1194  0.4047
15588SOL    HW148205   4.887   4.840   7.882  0.0259  0.0556  0.3667
15588SOL    HW248206   4.795   4.785   7.776  0.2364 -0.5463  0.4938
15589SOL     OW48207   6.975   3.991   6.299 -0.3105 -0.4859 -0.0249
15589SOL    HW148208   7.043   4.055   6.318  2.9562 -3.1448 -1.5098
15589SOL    HW248209   6.903   4.042   6.263 -0.0516  2.7386  3.4466
15590SOL     OW48210   7.779   5.104  10.305  0.3529  0.6117 -0.6174
15590SOL    HW148211   7.837   5.121  10.380 -1.7255  0.5549  1.1170
15590SOL    HW248212   7.692   5.094  10.345 -0.8554  0.6798 -3.0886
15591SOL     OW48213   0.330   7.425  10.877  0.1002 -0.0794  0.2354
15591SOL    HW148214   0.394   7.386  10.817  0.5446  0.2379  0.4995
15591SOL    HW248215   0.308   7.354  10.938 -2.3708 -1.2560 -1.8516
15592SOL     OW48216   4.410   0.764  12.048  0.2582  0.0759  0.3798
15592SOL    HW148217   4.374   0.692  12.098 -0.5053  2.0103  2.8015
15592SOL    HW248218   4.457   0.722  11.975 -1.1834 -2.7422  0.9545
15593SOL     OW48219   6.522   6.064   2.499 -0.0062 -0.1839 -0.0288
15593SOL    HW148220   6.505   6.127   2.429 -0.6940 -0.5489 -0.1954
15593SOL    HW248221   6.436   6.028   2.521  0.2511 -0.3643  0.7336
15594SOL     OW48222   4.193   3.662  11.487  0.3442 -0.1117 -0.5267
15594SOL    HW148223   4.163   3.739  11.440 -1.1422 -0.9179 -0.9739
15594SOL    HW248224   4.171   3.589  11.429  1.0492 -0.9306  0.2063
15595SOL     OW48225   0.355   7.638   6.179 -0.1048 -0.2827 -0.0419
15595SOL    HW148226   0.261   7.632   6.164  0.0254 -1.0916 -0.5468
15595SOL    HW248227   0.381   7.550   6.204  0.8550 -0.5452 -1.8560
15596SOL     OW48228   4.366   1.076   8.761  0.4403  0.6417 -0.1487
15596SOL    HW148229   4.337   1.130   8.688 -0.2651  2.2015  1.2121
15596SOL    HW248230   4.451   1.114   8.787  0.5066  0.3453  0.0737
15597SOL     OW48231   7.581   2.727   5.103 -0.6956 -0.2952  0.0703
15597SOL    HW148232   7.586   2.710   5.197 -1.3409  0.4620  0.2500
15597SOL    HW248233   7.670   2.751   5.078 -0.6619  0.1820  0.6270
15598SOL     OW48234   3.345   4.942  10.649 -0.1299  0.2693 -0.0878
15598SOL    HW148235   3.378   5.028  10.678  0.6494 -0.1160  0.1916
15598SOL    HW248236   3.420   4.900  10.608 -0.3432 -0.5180  0.3058
15599SOL     OW48237   3.672   7.080   0.637  0.2418  0.7467  0.3173
15599SOL    HW148238   3.619   7.138   0.582  0.4736  0.8758  0.2277
15599SOL    HW248239   3.679   6.998   0.587  1.0468  1.0999 -0.1828
15600SOL     OW48240   2.828   5.397   2.940 -0.4479  0.1942  0.3285
15600SOL    HW148241   2.916   5.433   2.937 -1.2479  2.2340 -0.9933
15600SOL    HW248242   2.837   5.308   2.904  1.2533 -0.1836  1.6127
15601SOL     OW48243   4.211   0.188   7.422 -0.4066  0.2379 -0.5023
15601SOL    HW148244   4.287   0.223   7.467 -0.2211  0.3772 -0.9133
15601SOL    HW248245   4.228   0.206   7.329 -0.3360 -0.9029 -0.7221
15602SOL     OW48246   5.869   7.397   3.056 -0.0971 -0.3234  0.1919
15602SOL    HW148247   5.840   7.479   3.016  0.8969  0.4102  0.9407
15602SOL    HW248248   5.853   7.408   3.149 -0.8495 -1.3762  0.2152
15603SOL     OW48249   1.138   5.577   7.954  0.1149  0.1758 -0.0721
15603SOL    HW148250   1.077   5.537   8.016 -1.3017 -0.0460 -1.5308
15603SOL    HW248251   1.127   5.671   7.968 -1.3259  0.1714 -0.9524
15604SOL     OW48252   7.528   6.092  12.273 -0.1032  0.6580 -0.1370
15604SOL    HW148253   7.452   6.130  12.229 -0.0995  2.0877  1.0459
15604SOL    HW248254   7.510   5.998  12.272 -1.4542  0.8896 -0.6555
15605SOL     OW48255   0.878   0.518  11.792 -0.1157  0.6188 -0.0686
15605SOL    HW148256   0.816   0.569  11.845 -1.8461 -1.4996  0.0973
15605SOL    HW248257   0.850   0.427  11.803  2.9305 -0.4487 -0.1976
15606SOL     OW48258   6.572   4.294   9.023  0.0014  0.3174 -0.0703
15606SOL    HW148259   6.506   4.290   9.092  0.9437  0.4438  0.8522
15606SOL    HW248260   6.569   4.385   8.993 -1.6785 -0.1582 -1.4912
15607SOL     OW48261   2.621   7.857   9.605  0.1319 -0.2383  0.0476
15607SOL    HW148262   2.628   7.942   9.649  0.2924 -0.2835  0.1133
15607SOL    HW248263   2.557   7.809   9.657  0.4316 -0.3447  0.3241
15608SOL     OW48264   5.448   0.025  11.845 -0.0873  1.1758 -0.8264
15608SOL    HW148265   5.357   0.005  11.868  1.0262 -0.2795  3.3619
15608SOL    HW248266   5.453   0.120  11.849 -1.0156  1.2007  1.4361
15609SOL     OW48267   4.459   4.287   5.679 -0.2551  0.4545  0.0796
15609SOL    HW148268   4.485   4.356   5.741 -0.1017 -0.1550  0.7008
15609SOL    HW248269   4.422   4.218   5.734 -0.3507  0.0088 -0.5361
15610SOL     OW48270   1.535   7.191   2.634 -0.0318 -0.2623 -0.3295
15610SOL    HW148271   1.441   7.192   2.616  0.2203  0.0172 -1.7651
15610SOL    HW248272   1.544   7.232   2.720 -1.2609 -0.7556  0.0545
15611SOL     OW48273   3.888   0.713  11.333  0.3880 -0.2412 -0.0253
15611SOL    HW148274   3.971   0.681  11.365  0.2033  0.0765  0.7969
15611SOL    HW248275   3.898   0.717  11.237  1.2446 -0.3735  0.0571
15612SOL     OW48276   2.341   0.409   0.713 -0.1454  0.5749  0.3081
15612SOL    HW148277   2.371   0.340   0.773  0.3285  1.6138  1.3004
15612SOL    HW248278   2.276   0.458   0.764 -2.6361 -0.8111 -1.3402
15613SOL     OW48279   0.832   4.531   3.633  0.5666  0.8916 -0.3773
15613SOL    HW148280   0.883   4.450   3.619 -2.0192 -0.5407 -2.3538
15613SOL    HW248281   0.883   4.599   3.589  1.5910 -0.1623 -0.8880
15614SOL     OW48282   5.035   5.248  10.827 -0.0843  0.0276  0.0559
15614SOL    HW148283   4.996   5.219  10.745  0.3351 -0.5646  0.0516
15614SOL    HW248284   4.966   5.296  10.872 -0.0283  1.1900 -1.0521
15615SOL     OW48285   4.758   1.831   3.442 -0.3522  0.1899  0.2386
15615SOL    HW148286   4.709   1.750   3.457 -0.9368  0.6819  1.1149
15615SOL    HW248287   4.805   1.846   3.524 -1.9223  1.8416  0.9033
15616SOL     OW48288   4.038   4.005  12.150  0.1569  0.2971  0.1989
15616SOL    HW148289   4.060   4.089  12.109 -1.0930 -0.0743 -1.3032
15616SOL    HW248290   4.005   3.951  12.079 -0.0827 -1.1213  1.3386
15617SOL     OW48291   3.472   7.240   9.179 -0.5429 -0.3002 -0.0310
15617SOL    HW148292   3.477   7.154   9.139  0.4444 -0.2103 -0.1378
15617SOL    HW248293   3.482   7.224   9.273 -0.2535 -0.3047 -0.0596
15618SOL     OW48294   5.300   1.170   7.517 -0.2307 -0.0926  0.2988
15618SOL    HW148295   5.343   1.121   7.447  0.5679  0.0855  0.6503
15618SOL    HW248296   5.208   1.170   7.493  0.1720  1.1088 -1.4947
15619SOL     OW48297   2.919   0.519   8.773 -0.0683  0.0056  0.4158
15619SOL    HW148298   2.999   0.469   8.762  1.0612  1.3933  1.8200
15619SOL    HW248299   2.907   0.565   8.690  1.7696  1.3431  0.8264
15620SOL     OW48300   4.890   3.526  10.855 -0.1683  0.1311  0.0450
15620SOL    HW148301   4.890   3.442  10.808  0.4700 -1.9765  3.4617
15620SOL    HW248302   4.803   3.530  10.896 -0.0462  0.9540  0.2390
15621SOL     OW48303   7.029   7.723   3.211 -0.1687  0.1650 -0.5085
15621SOL    HW148304   6.995   7.811   3.197  0.2410  0.2172 -1.1887
15621SOL    HW248305   6.951   7.671   3.230 -0.3436  0.7958  0.5945
15622SOL     OW48306   3.556   1.055   8.371  0.0501 -0.4270  0.4064
15622SOL    HW148307   3.508   1.120   8.319 -0.0085 -0.6418  0.1951
15622SOL    HW248308   3.620   1.019   8.310 -0.8573 -1.5968  0.1213
15623SOL     OW48309   4.483   0.431   1.305  0.3289  0.2376  0.1729
15623SOL    HW148310   4.537   0.357   1.332 -1.6550 -1.2372  0.3971
15623SOL    HW248311   4.514   0.453   1.217  2.8076  1.0708  1.1601
15624SOL     OW48312   6.177   5.748   2.550 -0.4431  0.2323  0.0410
15624SOL    HW148313   6.116   5.719   2.617 -1.2906  0.6705 -0.5212
15624SOL    HW248314   6.202   5.836   2.577  1.6907 -0.7146  1.4455
15625SOL     OW48315   7.658   7.267   8.315 -0.4928  0.1383 -0.4607
15625SOL    HW148316   7.717   7.298   8.245 -0.7846  1.0010 -0.3287
15625SOL    HW248317   7.659   7.172   8.305  2.9381 -0.1454  1.1150
15626SOL     OW48318   6.580   5.858  10.122  0.0190 -0.3255  0.2117
15626SOL    HW148319   6.670   5.825  10.122  0.3156  0.3211  2.3990
15626SOL    HW248320   6.589   5.953  10.133 -0.9085 -0.2945  0.8504
15627SOL     OW48321   5.727   6.001   7.722 -0.1242 -0.0616  0.3923
15627SOL    HW148322   5.639   5.998   7.684  0.0989 -1.0671 -0.0902
15627SOL    HW248323   5.771   5.924   7.685  0.9657  0.4427  0.6085
15628SOL     OW48324   6.582   7.859   2.179 -0.3523 -0.4614 -0.0111
15628SOL    HW148325   6.625   7.891   2.259 -0.5465  0.6016 -0.3054
15628SOL    HW248326   6.650   7.865   2.111 -0.9887  1.5088 -0.5417
15629SOL     OW48327   5.210   3.625   9.794  0.2885 -0.5392  0.3752
15629SOL    HW148328   5.283   3.588   9.844  0.1157 -1.0350  0.2695
15629SOL    HW248329   5.142   3.641   9.859  0.5547  0.0817  0.4982
15630SOL     OW48330   6.734   3.977   7.586  0.0583  0.1859 -0.1272
15630SOL    HW148331   6.719   3.892   7.545  0.2316  0.0667  0.0571
15630SOL    HW248332   6.791   4.024   7.524  0.6552 -0.1457  0.1651
15631SOL     OW48333   2.298   4.349   9.946 -1.1116  0.2747 -0.0649
15631SOL    HW148334   2.343   4.264   9.948 -1.7986 -0.0885  0.3722
15631SOL    HW248335   2.210   4.329   9.917 -1.5134  0.7205  0.8135
15632SOL     OW48336   7.239   4.086   3.608 -0.6669 -0.1537  0.5865
15632SOL    HW148337   7.277   4.170   3.582 -1.5391 -0.3339 -1.5311
15632SOL    HW248338   7.269   4.072   3.698  2.0629  0.9221 -0.0588
15633SOL     OW48339   2.264   3.745   1.034 -0.5209  0.5922  0.1584
15633SOL    HW148340   2.355   3.768   1.015 -0.1010  0.1540  1.5244
15633SOL    HW248341   2.218   3.760   0.951  0.8555  0.4426 -0.6719
15634SOL     OW48342   3.553   1.501   7.808  0.4061 -0.1410  0.5226
15634SOL    HW148343   3.602   1.420   7.818  2.0482  0.6183 -0.9027
15634SOL    HW248344   3.481   1.479   7.749 -0.3805 -0.9966  1.7499
15635SOL     OW48345   6.599   4.959   2.899  0.5677  0.3661  0.2414
15635SOL    HW148346   6.658   4.956   2.824  0.0766 -2.0297 -0.1349
15635SOL    HW248347   6.656   4.948   2.975  1.0022  2.2343  0.2362
15636SOL     OW48348   3.981   0.141   3.987  0.5992  0.2835 -0.4402
15636SOL    HW148349   3.988   0.231   4.018 -0.7424  0.5068 -0.6965
15636SOL    HW248350   3.895   0.137   3.944  0.0553 -1.4475  0.6851
15637SOL     OW48351   4.851   6.938   7.104 -0.2020  0.2115 -0.0513
15637SOL    HW148352   4.932   6.989   7.108 -0.0510 -0.0851  0.7939
15637SOL    HW248353   4.794   6.989   7.046  1.4173 -0.7698 -2.7101
15638SOL     OW48354   6.287   6.865   6.226  0.0818 -0.6094  0.1807
15638SOL    HW148355   6.268   6.771   6.220 -0.7062 -0.4802  0.5366
15638SOL    HW248356   6.360   6.870   6.287  0.7940 -1.0584 -0.6103
15639SOL     OW48357   7.002   1.882   5.851 -0.0315  0.8097 -0.5199
15639SOL    HW148358   7.093   1.855   5.843  0.1055  1.5230 -1.5631
15639SOL    HW248359   6.958   1.807   5.889  1.0196  0.5141  0.1545
15640SOL     OW48360   7.485   3.241   8.335  0.2518  0.1566  0.3734
15640SOL    HW148361   7.398   3.204   8.319  0.6310 -0.3378 -0.5826
15640SOL    HW248362   7.503   3.294   8.257  1.0222 -0.1481  0.3424
15641SOL     OW48363   3.011   2.211   7.953 -0.2507  0.1693  0.3978
15641SOL    HW148364   2.921   2.220   7.921  0.1429 -0.3930 -0.9447
15641SOL    HW248365   3.010   2.255   8.038 -1.9850 -0.5000  0.7849
15642SOL     OW48366   2.924   1.145   3.064 -0.5141 -0.3665  0.1273
15642SOL    HW148367   2.844   1.109   3.100 -0.7051 -1.3354 -1.2084
15642SOL    HW248368   2.894   1.207   2.997 -0.1976 -2.2984 -1.8887
15643SOL     OW48369   6.541   1.653  10.029  0.3658 -0.6710 -0.1167
15643SOL    HW148370   6.549   1.619   9.940  2.0751  0.3036 -0.3729
15643SOL    HW248371   6.621   1.625  10.073  0.1453 -0.0346  0.7106
15644SOL     OW48372   4.997   0.472   1.232 -0.2888 -0.4956 -0.2542
15644SOL    HW148373   4.994   0.472   1.136 -0.0881 -0.7492 -0.2597
15644SOL    HW248374   4.940   0.544   1.257 -0.1322 -0.2592 -0.5711
15645SOL     OW48375   5.455   1.311  10.998 -0.0682 -0.1048  0.1461
15645SOL    HW148376   5.520   1.273  11.058  0.9104  1.2794  0.0164
15645SOL    HW248377   5.485   1.401  10.985 -2.2282  0.7024  0.3625
15646SOL     OW48378   5.390   0.606   6.541 -0.1805  0.1336  0.0421
15646SOL    HW148379   5.338   0.649   6.608  0.4825  0.5245  0.3138
15646SOL    HW248380   5.333   0.538   6.506 -0.1781 -0.7953  1.7418
15647SOL     OW48381   0.359   3.937  11.836  0.2150 -0.3778  0.0298
15647SOL    HW148382   0.347   4.007  11.772  2.1835  2.0710  2.1319
15647SOL    HW248383   0.306   3.963  11.911  2.3716 -0.0926  1.5437
15648SOL     OW48384   7.319   2.587   4.269 -0.5599 -0.0786 -0.1651
15648SOL    HW148385   7.232   2.549   4.262  0.6989 -3.5537  0.8464
15648SOL    HW248386   7.372   2.535   4.208  1.3606 -0.0928  1.4292
15649SOL     OW48387   1.970   6.961   6.343  0.4178  0.0323  0.3474
15649SOL    HW148388   2.056   7.002   6.332 -0.5983  1.9431 -0.8768
15649SOL    HW248389   1.942   6.939   6.254 -0.4718 -0.3762  0.7151
15650SOL     OW48390   4.936   3.774   0.428 -0.2132  0.1092 -0.3401
15650SOL    HW148391   4.919   3.680   0.430 -0.2792  0.0982 -1.1538
15650SOL    HW248392   4.872   3.811   0.490  0.1859 -0.4229  0.4010
15651SOL     OW48393   6.313   1.710   1.804 -0.5101 -0.2327 -0.5483
15651SOL    HW148394   6.327   1.616   1.817  0.5882 -0.2664 -1.7960
15651SOL    HW248395   6.237   1.730   1.858 -1.5124 -2.0707 -1.1815
15652SOL     OW48396   6.337   4.833   5.186 -0.1914 -0.5744 -0.4250
15652SOL    HW148397   6.394   4.766   5.224  1.9932 -0.0916 -2.5907
15652SOL    HW248398   6.302   4.793   5.107 -0.9597 -0.0284 -0.3660
15653SOL     OW48399   7.262   7.368   8.411 -0.4086 -0.5931  0.1559
15653SOL    HW148400   7.168   7.379   8.425 -0.8917 -3.4560 -0.0835
15653SOL    HW248401   7.268   7.330   8.323  0.8395 -1.5227  0.6085
15654SOL     OW48402   5.613   7.591   3.545 -0.0454 -0.3155  0.0051
15654SOL    HW148403   5.608   7.661   3.610  2.2181 -0.3800  0.3157
15654SOL    HW248404   5.526   7.590   3.505 -1.5910 -0.3196  3.0359
15655SOL     OW48405   7.019   3.428   5.874 -0.3735  0.7208  0.1694
15655SOL    HW148406   7.090   3.412   5.937 -1.7012  0.8489  1.7655
15655SOL    HW248407   7.057   3.489   5.811  1.4898 -0.5830 -0.0929
15656SOL     OW48408   2.480   1.505  12.229 -0.0150  0.1203  0.0778
15656SOL    HW148409   2.392   1.509  12.192 -1.0483  0.4860  2.3961
15656SOL    HW248410   2.470   1.540  12.317  2.1820 -1.1480  0.9024
15657SOL     OW48411   4.374   5.805   5.568  0.0767  0.0617  0.1136
15657SOL    HW148412   4.309   5.812   5.637  1.3982 -1.2757  1.5862
15657SOL    HW248413   4.453   5.846   5.605  0.7499 -0.4904 -0.6670
15658SOL     OW48414   1.720   5.590  11.558 -0.5716 -0.0245  0.0783
15658SOL    HW148415   1.637   5.606  11.514 -0.2519  0.0451 -0.5143
15658SOL    HW248416   1.767   5.673  11.552 -0.9564  0.3301  1.5440
15659SOL     OW48417   1.454   5.527   4.042  0.7460  0.1870 -0.1395
15659SOL    HW148418   1.407   5.461   3.992 -1.8715  1.6533  0.1991
15659SOL    HW248419   1.498   5.479   4.112 -1.0543 -1.2064  0.0883
15660SOL     OW48420   3.634   0.179  10.145  0.1890 -0.1956  0.0211
15660SOL    HW148421   3.671   0.204  10.061  2.5091 -0.2238  0.9655
15660SOL    HW248422   3.584   0.256  10.173 -1.8839 -0.6934 -1.9588
15661SOL     OW48423   7.128   0.404   1.312 -0.0591  0.2894  0.4426
15661SOL    HW148424   7.129   0.492   1.348 -0.5684  0.0600  1.0318
15661SOL    HW248425   7.191   0.407   1.240  1.7139  0.5271  1.9275
15662SOL     OW48426   5.690   6.328  11.563  0.2596  0.2489 -0.6879
15662SOL    HW148427   5.736   6.267  11.505  0.8593 -1.0553  1.0567
15662SOL    HW248428   5.628   6.273  11.611 -0.1180  1.2562  0.0087
15663SOL     OW48429   7.366   4.376   8.564  0.0082 -0.1480  0.5965
15663SOL    HW148430   7.461   4.380   8.563  0.0081  0.1280 -0.8973
15663SOL    HW248431   7.341   4.374   8.471 -1.4987  1.6843  0.8923
15664SOL     OW48432   6.013   0.504   3.375  0.3768 -0.2030 -0.2180
15664SOL    HW148433   5.967   0.588   3.375 -0.1349 -0.4735 -0.0789
15664SOL    HW248434   6.103   0.525   3.352  0.4208  0.4754  0.5346
15665SOL     OW48435   7.040   4.011  10.079  0.2274 -0.2259 -0.0686
15665SOL    HW148436   6.963   4.063  10.057 -0.2834 -1.2204 -0.7377
15665SOL    HW248437   7.055   4.029  10.171  1.7832  3.2581 -0.8445
15666SOL     OW48438   4.040   3.962  11.089 -0.5732 -0.0066  0.0559
15666SOL    HW148439   4.114   4.022  11.082 -1.5510  1.3686  0.8659
15666SOL    HW248440   4.024   3.934  10.999  1.9388 -1.6870  0.0648
15667SOL     OW48441   7.357   4.839   5.963  0.0048  0.5204 -0.2107
15667SOL    HW148442   7.390   4.752   5.982  0.9416  1.0411  0.6767
15667SOL    HW248443   7.384   4.856   5.872  0.6577  0.2554 -0.0702
15668SOL     OW48444   2.105   5.941   1.758  0.1751  0.0533 -0.0653
15668SOL    HW148445   2.095   5.923   1.665 -0.5739  1.7430 -0.3519
15668SOL    HW248446   2.129   5.857   1.797 -1.3891 -1.1279 -1.5000
15669SOL     OW48447   2.194   0.061   5.711  1.0301  0.1584 -0.1890
15669SOL    HW148448   2.248   0.053   5.790  0.1511  1.8218  0.6311
15669SOL    HW248449   2.118   0.006   5.728  1.2872 -0.2276 -0.2834
15670SOL     OW48450   0.169   5.139   6.608 -0.4401  0.1916  0.6826
15670SOL    HW148451   0.120   5.101   6.681 -2.5628 -0.1119 -0.8103
15670SOL    HW248452   0.170   5.233   6.625  0.3096 -0.0014  1.7808
15671SOL     OW48453   0.525   7.983   6.716  0.0353 -0.0787  0.2236
15671SOL    HW148454   0.524   7.888   6.728 -0.4178  0.1118  2.0093
15671SOL    HW248455   0.541   8.017   6.804 -0.5676  1.5160 -0.2652
15672SOL     OW48456   4.111   1.075   1.468 -0.0537 -0.1263 -0.0369
15672SOL    HW148457   4.068   1.146   1.516 -0.3030  0.0675 -0.5484
15672SOL    HW248458   4.051   1.001   1.476 -1.4306  0.6558 -2.3342
15673SOL     OW48459   5.736   2.234   6.386  0.6954 -0.6010 -0.0845
15673SOL    HW148460   5.756   2.161   6.444  0.2911 -1.2117 -0.6979
15673SOL    HW248461   5.723   2.309   6.444 -0.4886 -1.3705  0.6830
15674SOL     OW48462   2.281   2.824   2.056 -0.2274  0.0890 -0.4010
15674SOL    HW148463   2.290   2.896   2.119 -1.6694  0.1097 -0.1914
15674SOL    HW248464   2.240   2.864   1.979  1.1634 -0.0210 -1.2332
15675SOL     OW48465   6.024   2.596   9.376  0.4381  0.7057  0.3300
15675SOL    HW148466   5.956   2.655   9.343  0.6301  0.8545  0.1931
15675SOL    HW248467   6.057   2.552   9.297 -0.8932 -0.8894  0.6031
15676SOL     OW48468   4.742   6.079   6.995  0.6342 -0.2117 -0.1626
15676SOL    HW148469   4.716   6.020   7.065  3.2799 -1.8715 -0.4753
15676SOL    HW248470   4.716   6.034   6.915 -0.3185  0.6438 -0.3669
15677SOL     OW48471   2.187   4.294   4.616 -0.0105  0.7503  0.8046
15677SOL    HW148472   2.179   4.253   4.702 -0.4063  0.1032  0.4683
15677SOL    HW248473   2.224   4.226   4.560 -0.9291  0.7386  0.1775
15678SOL     OW48474   7.087   3.254   6.188 -0.3890 -0.0625 -0.3303
15678SOL    HW148475   7.135   3.291   6.263  1.1914 -1.1924 -0.7201
15678SOL    HW248476   6.996   3.254   6.215 -0.2881  2.6001  0.3016
15679SOL     OW48477   4.677   2.988   3.072 -0.5702 -0.1892  0.2320
15679SOL    HW148478   4.622   2.914   3.047  0.8610 -0.7395 -1.5167
15679SOL    HW248479   4.705   3.027   2.989  0.5892  0.8802  1.0838
15680SOL     OW48480   2.497   1.880  11.263 -0.3338  0.4981 -0.3779
15680SOL    HW148481   2.525   1.911  11.177 -0.5351 -0.0554 -0.6500
15680SOL    HW248482   2.559   1.811  11.285  0.5686  1.5825  0.5653
15681SOL     OW48483   7.904   1.916   0.917 -0.3821  0.1689 -0.3873
15681SOL    HW148484   7.872   1.906   1.007 -1.3408  1.5030 -0.5653
15681SOL    HW248485   7.982   1.859   0.914  0.3731  0.9865  1.6415
15682SOL     OW48486   6.478   0.214   2.350 -0.2734 -0.2923  0.4687
15682SOL    HW148487   6.459   0.126   2.384  1.1638 -1.0828 -0.6393
15682SOL    HW248488   6.469   0.205   2.255 -1.1739  1.0624  0.3993
15683SOL     OW48489   5.243   2.235   3.965  0.4899 -0.3643  0.1753
15683SOL    HW148490   5.242   2.141   3.985  2.5135 -0.3035  0.7694
15683SOL    HW248491   5.195   2.275   4.038 -0.0606 -0.8786  0.1118
15684SOL     OW48492   2.669   6.544   1.756  0.4730 -0.3543 -0.1459
15684SOL    HW148493   2.734   6.519   1.691  1.0478  1.7721 -0.4684
15684SOL    HW248494   2.654   6.637   1.740 -1.3023 -0.3737  1.1091
15685SOL     OW48495   6.334   2.041   1.336 -0.4599 -0.3833  0.6616
15685SOL    HW148496   6.313   2.135   1.336 -1.9735 -0.6519 -1.3920
15685SOL    HW248497   6.406   2.032   1.275 -0.4500 -0.5800  0.7028
15686SOL     OW48498   7.225   5.539   0.661  0.4456  0.0606  0.4927
15686SOL    HW148499   7.305   5.575   0.699  1.3008  1.5478 -2.4166
15686SOL    HW248500   7.256   5.470   0.601 -0.7106 -1.2373  1.3275
15687SOL     OW48501   2.001   2.229   7.330 -0.1712  0.1041  0.2657
15687SOL    HW148502   2.032   2.154   7.280  3.1594  2.0010 -0.7872
15687SOL    HW248503   1.941   2.275   7.270  0.9598  0.4217 -0.6470
15688SOL     OW48504   4.097   7.685   4.584 -0.5111  0.2114 -0.0574
15688SOL    HW148505   4.107   7.591   4.571 -0.3226  0.3948 -1.4145
15688SOL    HW248506   4.092   7.696   4.679  2.1043 -0.9216  0.2979
15689SOL     OW48507   7.165   5.110   1.386 -0.5361 -0.2455 -0.0302
15689SOL    HW148508   7.126   5.025   1.363  1.6184 -0.9880 -1.2507
15689SOL    HW248509   7.178   5.154   1.301 -0.1245  0.6022  0.4609
15690SOL     OW48510   0.698   0.472   3.210 -0.0253  0.2853 -0.2100
15690SOL    HW148511   0.606   0.456   3.190  0.9071 -3.4358 -2.6925
15690SOL    HW248512   0.735   0.504   3.128  1.2169 -0.3261  0.0878
15691SOL     OW48513   6.159   1.020   3.753  0.1001  0.0147 -0.7351
15691SOL    HW148514   6.117   1.007   3.838  0.1498 -0.6004 -0.7978
15691SOL    HW248515   6.250   1.038   3.773  0.3262 -1.0930 -0.6786
15692SOL     OW48516   0.298   3.151   8.702 -0.3623  0.4520  0.6913
15692SOL    HW148517   0.301   3.179   8.794 -1.2580 -0.2606  0.9574
15692SOL    HW248518   0.313   3.231   8.652  0.2932  0.8265  1.4565
15693SOL     OW48519   7.588   1.841   9.702 -0.4948 -0.2105  0.0457
15693SOL    HW148520   7.629   1.854   9.616  0.4436  1.0844  0.6489
15693SOL    HW248521   7.498   1.816   9.682 -0.7084  1.4312 -1.3472
15694SOL     OW48522   2.164   0.410   1.370 -0.1487  0.4013 -0.2867
15694SOL    HW148523   2.098   0.344   1.351 -0.0093 -0.2392  1.2873
15694SOL    HW248524   2.240   0.383   1.318  0.2873 -1.3716  1.1575
15695SOL     OW48525   3.333   2.570   5.759  0.5007  0.0356  0.4467
15695SOL    HW148526   3.288   2.645   5.799  0.9852 -0.0011  1.0741
15695SOL    HW248527   3.415   2.563   5.808  1.1685  0.0663 -0.6401
15696SOL     OW48528   1.134   7.243   3.800 -0.1177 -0.3621  0.1356
15696SOL    HW148529   1.069   7.180   3.771 -0.3344 -0.4937  0.8971
15696SOL    HW248530   1.207   7.190   3.831 -0.6637 -0.2700  1.6221
15697SOL     OW48531   6.286   2.660  11.566  0.1179  0.2642 -0.2265
15697SOL    HW148532   6.200   2.619  11.555  0.3435 -0.3803  0.2793
15697SOL    HW248533   6.286   2.689  11.658 -0.2992  2.0516 -0.7621
15698SOL     OW48534   6.705   1.851   2.162  0.3179 -0.1233 -0.6509
15698SOL    HW148535   6.744   1.937   2.149  1.2418 -0.4473 -0.1699
15698SOL    HW248536   6.635   1.865   2.226  0.3001  0.3175 -0.7705
15699SOL     OW48537   4.816   1.103   1.925 -0.0588 -0.2127  0.5194
15699SOL    HW148538   4.833   1.197   1.924 -0.8799 -0.0095  2.4441
15699SOL    HW248539   4.822   1.077   1.833  0.0056  1.7427 -0.0750
15700SOL     OW48540   1.694   7.716   3.033  0.2670 -0.1351 -0.0765
15700SOL    HW148541   1.756   7.677   2.971 -1.3779  1.1125 -2.6556
15700SOL    HW248542   1.719   7.808   3.036 -1.0189  0.2458 -0.6377
15701SOL     OW48543   3.608   2.419   3.361 -0.0897 -0.8663 -0.4330
15701SOL    HW148544   3.539   2.354   3.370  0.5497 -1.5187 -0.2222
15701SOL    HW248545   3.651   2.421   3.447  0.8269 -1.2380 -0.8702
15702SOL     OW48546   6.908   0.833   9.468 -0.0426  0.0470  0.2179
15702SOL    HW148547   6.945   0.920   9.481 -1.1896  0.3051  2.3475
15702SOL    HW248548   6.828   0.848   9.417  0.2764  0.0976 -0.2729
15703SOL     OW48549   1.460   1.879   6.357  0.6801  0.4803  0.0153
15703SOL    HW148550   1.371   1.912   6.369  1.1019  1.6585  0.0298
15703SOL    HW248551   1.476   1.887   6.263 -0.1922 -2.3722 -0.4785
15704SOL     OW48552   4.869   6.779   2.359  0.0480 -0.1381 -0.6180
15704SOL    HW148553   4.915   6.770   2.275  0.4904  0.9714 -0.5093
15704SOL    HW248554   4.789   6.728   2.348  1.5608 -2.7203 -0.5885
15705SOL     OW48555   2.132   1.593   1.423 -0.0827  0.0473 -0.0726
15705SOL    HW148556   2.040   1.593   1.397 -0.8864  0.1773  2.5130
15705SOL    HW248557   2.135   1.541   1.503  1.7074  1.9015  1.1642
15706SOL     OW48558   2.996   7.668   4.995 -0.0610  0.2475 -0.1590
15706SOL    HW148559   2.991   7.577   5.024  0.2111 -0.0924 -1.1342
15706SOL    HW248560   2.908   7.703   5.011 -0.6894 -0.7064 -1.3713
15707SOL     OW48561   3.303   5.217   6.642 -0.8838 -0.3300 -0.2911
15707SOL    HW148562   3.251   5.145   6.606 -0.2255 -1.7286  1.4673
15707SOL    HW248563   3.360   5.177   6.706 -1.0868  1.8735  1.3915
15708SOL     OW48564   4.489   7.649   7.700 -0.9314  0.7438 -0.1027
15708SOL    HW148565   4.559   7.626   7.762  0.4256  0.2398 -1.7445
15708SOL    HW248566   4.521   7.728   7.656 -1.0841  0.1392 -1.3274
15709SOL     OW48567   4.197   3.902  12.351 -0.7056 -0.3537 -0.1615
15709SOL    HW148568   4.285   3.929  12.322 -0.4529 -0.3252  0.6152
15709SOL    HW248569   4.140   3.930  12.280 -0.1002 -0.2624 -0.6268
15710SOL     OW48570   1.134   2.260   8.055  0.4854  0.6134 -0.0743
15710SOL    HW148571   1.222   2.261   8.017  0.0657  1.3782 -1.0674
15710SOL    HW248572   1.076   2.248   7.980 -0.2902  0.5904  0.5152
15711SOL     OW48573   1.910   6.932   8.001  0.3050 -0.1197  0.2364
15711SOL    HW148574   1.835   6.962   8.053 -0.1131  1.5664 -1.2595
15711SOL    HW248575   1.983   6.987   8.030  0.3802 -0.0890 -0.0087
15712SOL     OW48576   1.779   2.464   7.496 -0.0782  0.3292  0.1706
15712SOL    HW148577   1.824   2.465   7.581 -0.5364 -0.5165  0.4315
15712SOL    HW248578   1.825   2.531   7.444  1.0415 -0.0386  0.6489
15713SOL     OW48579   6.654   3.716   7.957 -0.1774  0.4777  0.2407
15713SOL    HW148580   6.725   3.779   7.946  0.6399 -0.4274  0.1628
15713SOL    HW248581   6.681   3.662   8.032 -2.6875  2.5933  2.8594
15714SOL     OW48582   4.190   7.078  10.604  0.2488 -0.8919 -0.2396
15714SOL    HW148583   4.250   7.123  10.664 -2.5246  1.0930  1.2804
15714SOL    HW248584   4.176   6.992  10.643 -0.6012 -0.0513  1.4090
15715SOL     OW48585   3.274   2.406   2.953 -0.1155 -0.5815  0.6739
15715SOL    HW148586   3.247   2.336   3.012 -0.7682  0.0148  1.0974
15715SOL    HW248587   3.246   2.487   2.997  1.5193  0.0244  0.6957
15716SOL     OW48588   1.773   1.918  11.196  0.7125 -0.0849 -0.6183
15716SOL    HW148589   1.802   1.905  11.287  0.3857  0.6331 -0.4092
15716SOL    HW248590   1.792   2.010  11.178 -0.1744  0.0397 -0.9384
15717SOL     OW48591   6.784   5.741   0.862  0.5340 -0.3267 -0.4937
15717SOL    HW148592   6.703   5.791   0.862  0.8609  0.2049 -0.7205
15717SOL    HW248593   6.817   5.748   0.773  1.2395  0.1298 -0.2019
15718SOL     OW48594   0.980   0.704  12.043 -0.3453 -0.0374 -0.1616
15718SOL    HW148595   1.046   0.718  11.976 -0.8155 -0.4161 -0.7168
15718SOL    HW248596   0.923   0.780  12.038  0.3388  0.5509  0.6819
15719SOL     OW48597   4.469   6.557   5.529  0.4182 -0.4209  0.4194
15719SOL    HW148598   4.509   6.482   5.573  1.3881  0.8642  1.8770
15719SOL    HW248599   4.544   6.608   5.498 -0.0909  1.2210  1.7514
15720SOL     OW48600   3.496   1.871   5.658  0.1988  0.4330 -0.0233
15720SOL    HW148601   3.507   1.848   5.751  0.4252  1.3686  0.1939
15720SOL    HW248602   3.586   1.881   5.625  0.1521 -0.8570 -0.6150
15721SOL     OW48603   4.281   1.859  11.597 -0.2728  0.0960 -0.0996
15721SOL    HW148604   4.339   1.919  11.550 -2.5137  0.3379 -2.7258
15721SOL    HW248605   4.255   1.908  11.675  3.1589 -0.1398  1.3858
15722SOL     OW48606   5.881   4.046   8.745 -0.1816  0.3527  0.1041
15722SOL    HW148607   5.839   4.029   8.829  0.5713 -0.9839  0.2473
15722SOL    HW248608   5.903   4.139   8.747  0.3511  0.2197  1.6329
15723SOL     OW48609   5.426   5.062   1.029  0.2955  0.2279 -0.6313
15723SOL    HW148610   5.489   4.993   1.050  1.7081  1.9856  1.2770
15723SOL    HW248611   5.346   5.014   1.006  1.4649 -2.0440 -0.3221
15724SOL     OW48612   7.592   1.609   9.451  0.8759  0.0267 -0.1074
15724SOL    HW148613   7.601   1.704   9.457  0.7588  0.0409 -0.1520
15724SOL    HW248614   7.561   1.594   9.361 -0.4336  0.0420  0.3270
15725SOL     OW48615   3.464   5.538   1.824 -0.6525  0.0803  0.0233
15725SOL    HW148616   3.518   5.570   1.751  0.4629  1.3919  1.3680
15725SOL    HW248617   3.497   5.450   1.841  1.3233  0.9523  0.9945
15726SOL     OW48618   6.984   4.955   1.223  0.5896  0.4910  0.0192
15726SOL    HW148619   6.905   4.936   1.173 -0.0733 -0.2615  1.3035
15726SOL    HW248620   7.054   4.908   1.177 -0.0651 -0.4786 -0.0130
15727SOL     OW48621   7.093   1.141   7.209  0.4241 -0.3701  0.4725
15727SOL    HW148622   7.074   1.054   7.244  0.4622  0.0885  1.6530
15727SOL    HW248623   7.072   1.134   7.116 -0.4445 -1.3839  0.7278
15728SOL     OW48624   1.685   7.282   2.214 -0.1131 -0.2149 -0.4264
15728SOL    HW148625   1.679   7.328   2.130  1.7167  0.7047 -0.1047
15728SOL    HW248626   1.749   7.212   2.199 -0.2211 -0.4192  0.0435
15729SOL     OW48627   4.585   0.760   6.364 -0.2992  0.2207 -0.0499
15729SOL    HW148628   4.663   0.705   6.355 -0.1904  0.4142 -0.2929
15729SOL    HW248629   4.602   0.836   6.308 -1.6132 -0.8019 -1.9456
15730SOL     OW48630   2.463   5.437   0.447 -0.2995 -0.5574 -0.0243
15730SOL    HW148631   2.380   5.449   0.493  0.1544  1.7891  0.3236
15730SOL    HW248632   2.514   5.380   0.505  0.1687  2.1086  2.4245
15731SOL     OW48633   1.743   7.366   3.223 -0.1551  0.4146 -0.3100
15731SOL    HW148634   1.736   7.288   3.168 -0.9949 -1.7619  2.5886
15731SOL    HW248635   1.664   7.416   3.206  0.0636  0.3064 -1.7185
15732SOL     OW48636   7.724   3.422  10.146  0.0575  0.5055  1.2090
15732SOL    HW148637   7.722   3.508  10.104  2.4567 -0.0276 -0.2017
15732SOL    HW248638   7.708   3.360  10.076  0.6427 -0.2863  1.7539
15733SOL     OW48639   0.969   0.148   6.069  0.0132  0.0435 -0.2357
15733SOL    HW148640   1.051   0.123   6.112 -0.3337 -0.4912  0.1331
15733SOL    HW248641   0.902   0.098   6.115 -0.6134  1.0397 -0.0249
15734SOL     OW48642   0.862   6.150   1.166  0.0534  0.5196 -0.5489
15734SOL    HW148643   0.807   6.149   1.088  0.2854 -1.3379 -0.7375
15734SOL    HW248644   0.829   6.077   1.219  0.2376  1.4233  0.8561
15735SOL     OW48645   5.710   3.766   7.151 -0.8399 -0.5948  0.4995
15735SOL    HW148646   5.793   3.733   7.117 -1.8103 -0.9504 -1.6892
15735SOL    HW248647   5.644   3.709   7.113 -2.0908 -1.1727  3.2472
15736SOL     OW48648   0.367   1.150   3.041  0.0792 -0.5818  0.6875
15736SOL    HW148649   0.298   1.193   2.989 -0.3309 -0.3414  1.4149
15736SOL    HW248650   0.410   1.092   2.979 -0.0179  0.1277 -0.0750
15737SOL     OW48651   2.854   6.876   2.830 -0.2446  0.4417 -0.0937
15737SOL    HW148652   2.876   6.926   2.751  1.4882 -0.7540 -0.4109
15737SOL    HW248653   2.810   6.940   2.886 -0.7479  1.5455 -1.6623
15738SOL     OW48654   7.154   3.249  10.945 -0.2716 -0.1783 -0.0646
15738SOL    HW148655   7.091   3.181  10.968  0.1228 -0.1493  1.1394
15738SOL    HW248656   7.126   3.279  10.858  0.0667 -2.4943 -1.0513
15739SOL     OW48657   4.583   1.582   7.702 -0.2418 -0.3943 -0.1456
15739SOL    HW148658   4.652   1.648   7.696 -0.2115 -0.4659 -0.5759
15739SOL    HW248659   4.551   1.590   7.792 -0.7949  0.7824 -0.4124
15740SOL     OW48660   7.532   7.897   4.744  0.6992 -0.6109 -0.3714
15740SOL    HW148661   7.442   7.892   4.712  0.4234  0.4894  0.1784
15740SOL    HW248662   7.585   7.863   4.672 -0.2377 -2.5145 -0.2035
15741SOL     OW48663   1.323   4.980   3.339  0.4961  0.0945  0.4466
15741SOL    HW148664   1.418   4.974   3.330  0.5486 -1.0916  1.4994
15741SOL    HW248665   1.290   4.896   3.308 -0.1975  0.4116  0.3001
15742SOL     OW48666   5.654   7.364   2.369  0.6289  0.4415 -0.1915
15742SOL    HW148667   5.673   7.433   2.433 -0.9174 -0.4517  1.3139
15742SOL    HW248668   5.633   7.287   2.422 -1.3883 -0.1577 -1.7556
15743SOL     OW48669   3.381   0.153   7.235  0.4050 -1.0454  0.1369
15743SOL    HW148670   3.335   0.176   7.316  0.0519 -0.0461 -0.3283
15743SOL    HW248671   3.384   0.058   7.235 -2.7114 -1.2456 -0.3637
15744SOL     OW48672   1.307   2.549   1.626  0.2801  0.2895  0.2887
15744SOL    HW148673   1.215   2.520   1.627  0.0690  0.8469 -1.0510
15744SOL    HW248674   1.327   2.560   1.534  1.7262  0.1591  0.5714
15745SOL     OW48675   3.003   4.947   3.541  0.4603  0.0638 -0.3458
15745SOL    HW148676   2.925   4.988   3.504 -0.6908 -0.8403  0.9637
15745SOL    HW248677   3.008   4.981   3.630  2.2592  0.9892 -0.7661
15746SOL     OW48678   6.365   7.121  12.074 -0.1176  0.1284 -0.0327
15746SOL    HW148679   6.352   7.060  12.002 -1.0353 -0.8738  0.9491
15746SOL    HW248680   6.316   7.084  12.147  1.3031  0.7709  1.3239
15747SOL     OW48681   6.197   5.164  11.410  0.1379 -0.3732  0.2346
15747SOL    HW148682   6.266   5.123  11.359  0.9438  2.1660 -0.8585
15747SOL    HW248683   6.241   5.232  11.462 -1.3489  0.4568  0.4791
15748SOL     OW48684   7.169   1.780   4.923  0.2020  0.5275 -0.5236
15748SOL    HW148685   7.139   1.716   4.988  0.1937  0.7352 -0.3215
15748SOL    HW248686   7.095   1.840   4.914  0.1780  0.4574 -0.7771
15749SOL     OW48687   1.642   5.716   4.225  0.3600 -0.0457 -0.3422
15749SOL    HW148688   1.605   5.628   4.232  0.7845 -0.2208 -0.3018
15749SOL    HW248689   1.734   5.705   4.249  0.2267  0.5483  0.4776
15750SOL     OW48690   3.707   5.319   8.506  0.8657  0.6407 -0.2738
15750SOL    HW148691   3.683   5.340   8.596  2.4392 -0.7422  0.5254
15750SOL    HW248692   3.800   5.296   8.511  0.1756 -3.0006 -1.5361
15751SOL     OW48693   7.054   0.760  12.259 -0.7878  0.1464 -0.2684
15751SOL    HW148694   7.043   0.665  12.257  1.8015 -0.2248 -0.5738
15751SOL    HW248695   7.079   0.783  12.170 -0.7950  1.0177 -0.0471
15752SOL     OW48696   7.172   4.752   9.957  0.3377  0.0292  0.1883
15752SOL    HW148697   7.116   4.754  10.034 -0.1214  0.3785 -0.1490
15752SOL    HW248698   7.251   4.800   9.983 -0.2708  1.1092  0.0978
15753SOL     OW48699   3.362   2.125   4.519 -1.0755 -0.4346 -0.7536
15753SOL    HW148700   3.321   2.148   4.602 -0.9250 -0.1567 -0.7553
15753SOL    HW248701   3.293   2.082   4.468 -0.8929 -1.5838 -0.0788
15754SOL     OW48702   7.185   0.913  10.650 -0.4840  0.2509 -0.3581
15754SOL    HW148703   7.104   0.964  10.655 -0.1826  0.6348  2.5061
15754SOL    HW248704   7.252   0.973  10.683  0.9978 -0.1123 -2.5159
15755SOL     OW48705   5.976   0.080   5.597 -0.1095  0.0459  0.1191
15755SOL    HW148706   5.959   0.150   5.534  1.0047  1.1237  0.9504
15755SOL    HW248707   6.019   0.012   5.546 -0.6781  0.2030 -0.5906
15756SOL     OW48708   1.526   6.565   2.167  0.3575 -0.0973 -0.0914
15756SOL    HW148709   1.448   6.530   2.125  0.5456 -0.0854 -0.4576
15756SOL    HW248710   1.505   6.567   2.260 -0.0910 -0.0542 -0.1941
15757SOL     OW48711   5.112   5.709   9.336 -0.6867 -0.2442  0.1344
15757SOL    HW148712   5.100   5.618   9.312  0.3384 -0.4165  0.2031
15757SOL    HW248713   5.140   5.706   9.428  0.5001  0.0302 -0.1883
15758SOL     OW48714   3.870   5.398   0.777 -0.4336  0.0814 -0.4544
15758SOL    HW148715   3.917   5.456   0.836 -1.0129  0.6356 -0.5332
15758SOL    HW248716   3.873   5.442   0.692 -0.0833 -0.4464 -0.7220
15759SOL     OW48717   2.470   3.918   3.421 -0.1047  0.0131 -0.0371
15759SOL    HW148718   2.488   3.824   3.417  1.5372  0.1828  1.8058
15759SOL    HW248719   2.389   3.925   3.472  0.6978 -0.3881  1.3580
15760SOL     OW48720   0.183   4.040  10.730 -0.1763 -0.2416  0.4795
15760SOL    HW148721   0.253   4.105  10.745 -0.0331 -0.3215  0.1807
15760SOL    HW248722   0.160   4.009  10.817 -2.9629  3.0027  1.0980
15761SOL     OW48723   2.076   7.245   5.118 -0.0883  0.1597  0.3449
15761SOL    HW148724   2.079   7.332   5.156 -2.0568  0.1803  0.5498
15761SOL    HW248725   2.112   7.188   5.186 -1.5016  0.4830  1.4324
15762SOL     OW48726   7.446   3.959   5.353  0.0985  0.5340 -0.0957
15762SOL    HW148727   7.423   3.912   5.273  0.3475 -2.5472  1.5192
15762SOL    HW248728   7.362   3.975   5.396  0.1230  0.0003  0.1579
15763SOL     OW48729   2.292   7.311   1.439 -0.3107 -0.0313  0.7440
15763SOL    HW148730   2.295   7.229   1.390 -0.6935  0.0589  0.5680
15763SOL    HW248731   2.202   7.317   1.471 -0.1073 -0.0109  1.3256
15764SOL     OW48732   0.644   5.692   0.770 -0.1053 -0.0425  0.0117
15764SOL    HW148733   0.612   5.652   0.689 -1.0281  0.6439  0.0247
15764SOL    HW248734   0.565   5.722   0.815  0.5243  1.3671  0.2226
15765SOL     OW48735   2.557   5.337   4.179  0.4960  0.0197  0.2632
15765SOL    HW148736   2.592   5.306   4.263  0.4445 -1.4805 -0.2318
15765SOL    HW248737   2.611   5.293   4.114  0.9849  1.7096 -0.5170
15766SOL     OW48738   6.461   6.830   0.342  0.6759  0.4221  0.2930
15766SOL    HW148739   6.465   6.878   0.425 -1.0220  1.7721 -0.3491
15766SOL    HW248740   6.442   6.897   0.277  3.4650 -0.3559 -1.4848
15767SOL     OW48741   2.680   6.308   6.241 -0.2246  0.5050  0.1725
15767SOL    HW148742   2.585   6.299   6.228  0.2765 -1.9624 -3.0262
15767SOL    HW248743   2.707   6.222   6.273  1.0221  0.9563  0.3540
15768SOL     OW48744   1.656   3.710  12.070  0.0316 -0.4479  0.1625
15768SOL    HW148745   1.630   3.783  12.014  0.8651  0.6073  1.1047
15768SOL    HW248746   1.674   3.638  12.009  2.0618  0.9838 -1.0716
15769SOL     OW48747   2.905   4.001   6.835  0.2665  0.3403  0.2503
15769SOL    HW148748   2.872   4.082   6.797 -1.1512  0.0252  0.7326
15769SOL    HW248749   2.930   3.947   6.760 -2.1719 -0.1519 -0.2906
15770SOL     OW48750   3.849   0.428   5.855 -0.0531  0.2502  0.0088
15770SOL    HW148751   3.766   0.467   5.827 -1.4700 -3.2273 -1.1457
15770SOL    HW248752   3.838   0.415   5.949 -0.5395  0.3766 -0.0283
15771SOL     OW48753   4.984   3.077   9.352 -0.0320  0.4916  0.5391
15771SOL    HW148754   4.977   3.052   9.260 -2.2349 -0.4844  0.9205
15771SOL    HW248755   4.993   3.172   9.351  2.4226  0.3385 -0.7146
15772SOL     OW48756   1.475   4.931   9.401 -0.2637  0.0658 -0.2825
15772SOL    HW148757   1.437   5.011   9.436 -1.6933 -1.4502  1.8831
15772SOL    HW248758   1.424   4.913   9.322  0.5837  1.6222 -1.2371
15773SOL     OW48759   2.363   1.318   1.841 -0.2882  0.4752  0.4925
15773SOL    HW148760   2.404   1.387   1.893  1.7196 -1.3783  1.5946
15773SOL    HW248761   2.369   1.349   1.751  0.6513  1.7029  0.9434
15774SOL     OW48762   2.484   0.430   3.653  0.6743 -0.4791  0.6651
15774SOL    HW148763   2.550   0.428   3.584  1.1078 -1.1991  1.0853
15774SOL    HW248764   2.531   0.463   3.730 -0.2170  1.9915  0.2200
15775SOL     OW48765   0.549   0.010   7.015  0.2273 -0.0416  0.5814
15775SOL    HW148766   0.624  -0.048   7.026  0.8854  0.9504  1.5829
15775SOL    HW248767   0.484  -0.024   7.076  0.7294  0.4324  1.4034
15776SOL     OW48768   6.450   6.434   9.916 -0.5107 -0.3053 -0.2666
15776SOL    HW148769   6.450   6.380   9.996  1.7288  0.1752  0.1494
15776SOL    HW248770   6.511   6.388   9.858  0.0652  0.8262 -0.5783
15777SOL     OW48771   0.406   4.198  10.825  0.2101 -0.2435 -0.2438
15777SOL    HW148772   0.483   4.191  10.770  1.5513  1.4075  1.2953
15777SOL    HW248773   0.433   4.159  10.909 -0.3053  1.1339  0.5899
15778SOL     OW48774   0.446   1.501  10.054 -0.4307  0.8141  0.9483
15778SOL    HW148775   0.363   1.496  10.100 -0.8998 -1.0259  0.0081
15778SOL    HW248776   0.430   1.458   9.970  1.1193  1.6063  0.1954
15779SOL     OW48777   0.825   4.362   8.384 -0.3172 -0.3538 -0.5771
15779SOL    HW148778   0.876   4.442   8.398  0.9918 -1.3244  0.3300
15779SOL    HW248779   0.802   4.332   8.471 -0.0158 -1.4596 -0.8647
15780SOL     OW48780   0.604   4.325   2.048  0.0544 -0.3564 -0.6627
15780SOL    HW148781   0.600   4.323   1.952 -0.7468  0.7410 -0.6747
15780SOL    HW248782   0.532   4.268   2.076  0.4310 -0.8558 -0.7150
15781SOL     OW48783   3.589   4.437   9.328 -0.2871 -0.3951  0.1244
15781SOL    HW148784   3.636   4.462   9.249  0.3048 -0.9067  0.3057
15781SOL    HW248785   3.498   4.460   9.310 -0.0957 -0.1321 -0.5426
15782SOL     OW48786   1.279   6.273   2.520 -0.6816  0.0921  0.0270
15782SOL    HW148787   1.347   6.341   2.514 -0.9368  0.3985  0.4857
15782SOL    HW248788   1.267   6.242   2.431 -0.4805  0.5806 -0.1719
15783SOL     OW48789   7.777   1.412   3.357  0.1388  0.0518 -0.6810
15783SOL    HW148790   7.695   1.386   3.316  0.9746 -1.2760 -1.5966
15783SOL    HW248791   7.771   1.507   3.363 -0.9935  0.0818 -1.7828
15784SOL     OW48792   7.089   4.346   1.177  0.3385  0.2906  0.2208
15784SOL    HW148793   7.085   4.420   1.116  1.4915 -0.8333 -1.3148
15784SOL    HW248794   7.027   4.282   1.140  2.7334 -1.3612 -1.2541
15785SOL     OW48795   3.087   6.007   0.296  0.1203 -0.4734 -0.3110
15785SOL    HW148796   3.020   6.059   0.340  0.0556 -0.4054 -0.4915
15785SOL    HW248797   3.167   6.060   0.304  0.3270 -0.8916  0.5663
15786SOL     OW48798   2.872   1.168  10.600 -0.2192 -0.2141 -0.2414
15786SOL    HW148799   2.958   1.210  10.601 -0.5314  0.4352  0.1409
15786SOL    HW248800   2.822   1.218  10.534 -0.6213  0.0824  0.2793
15787SOL     OW48801   1.458   7.865   5.617  0.0930  0.3976  0.1637
15787SOL    HW148802   1.462   7.872   5.712  2.6383  0.7806  0.0922
15787SOL    HW248803   1.411   7.783   5.601 -2.2441  1.3573  1.6527
15788SOL     OW48804   4.935   7.430   2.395 -0.1084  0.1689 -0.3149
15788SOL    HW148805   4.941   7.507   2.338 -0.2880  0.9687  0.7121
15788SOL    HW248806   4.950   7.465   2.483 -2.1225 -0.6434  0.4046
15789SOL     OW48807   2.959   2.127   1.647  0.2819 -0.3299 -0.2922
15789SOL    HW148808   2.919   2.202   1.691 -0.0670 -1.0956  0.7116
15789SOL    HW248809   3.053   2.139   1.659  0.2383  0.0505 -0.3185
15790SOL     OW48810   6.242   5.492   9.057  0.5509  0.5300 -0.0939
15790SOL    HW148811   6.305   5.462   8.992  0.6036  0.8455 -0.1892
15790SOL    HW248812   6.168   5.433   9.048  1.4286 -0.8225  1.0469
15791SOL     OW48813   5.584   6.965   9.861 -0.0212 -0.3342 -0.1337
15791SOL    HW148814   5.490   6.980   9.850 -0.4527 -2.6441 -0.2517
15791SOL    HW248815   5.626   7.042   9.823 -1.8442  0.2064 -1.1546
15792SOL     OW48816   0.941   2.187  10.008 -0.1125 -0.7647 -0.0259
15792SOL    HW148817   0.954   2.148  10.094 -1.9724 -1.0229  0.1818
15792SOL    HW248818   0.946   2.113   9.947 -1.4917 -1.0282  0.1540
15793SOL     OW48819   7.543   2.307  10.665  0.3683  0.2463 -0.1095
15793SOL    HW148820   7.528   2.255  10.586 -0.7806  0.5818 -0.1309
15793SOL    HW248821   7.468   2.366  10.669  0.9379  0.9373  0.6823
15794SOL     OW48822   1.897   1.427   3.512 -0.1106 -0.4811  0.5450
15794SOL    HW148823   1.874   1.455   3.424  1.4495 -0.8858 -0.0138
15794SOL    HW248824   1.842   1.350   3.528 -1.0908  0.1574  0.3193
15795SOL     OW48825   5.205   5.758   0.192  0.1435  0.2575 -0.9357
15795SOL    HW148826   5.155   5.696   0.246 -0.7453  1.5889 -0.1664
15795SOL    HW248827   5.240   5.821   0.255  2.5467 -0.3946 -1.4873
15796SOL     OW48828   2.717   1.303   0.328 -0.7825 -0.2203 -0.1999
15796SOL    HW148829   2.655   1.359   0.374  0.7203 -0.3700  2.1602
15796SOL    HW248830   2.662   1.233   0.290 -2.0230 -1.4416  3.3900
15797SOL     OW48831   5.265   7.142   7.376 -0.0903  0.2873  0.0884
15797SOL    HW148832   5.354   7.178   7.369 -0.2242  0.9298  1.4771
15797SOL    HW248833   5.219   7.202   7.434 -1.1123 -0.6723  0.2968
15798SOL     OW48834   5.476   7.378   3.926  0.3289  0.3435  0.6931
15798SOL    HW148835   5.519   7.352   3.845 -0.0713  2.2080 -0.1595
15798SOL    HW248836   5.545   7.419   3.978  0.6065 -0.9316  1.3749
15799SOL     OW48837   5.009   6.801   6.031  0.4787 -0.0883 -0.7257
15799SOL    HW148838   4.992   6.885   6.074  0.1816 -0.3575 -0.3101
15799SOL    HW248839   5.101   6.807   6.003  0.8522 -0.1104  0.4340
15800SOL     OW48840   2.914   5.154   0.540  0.0928 -0.3518  0.0393
15800SOL    HW148841   2.833   5.178   0.495  0.4302 -1.0633 -0.9955
15800SOL    HW248842   2.889   5.080   0.596  0.6106 -2.8853 -2.8063
15801SOL     OW48843   3.522   5.397  10.998 -0.1741 -0.5251 -0.0645
15801SOL    HW148844   3.475   5.349  11.066 -1.4129 -0.3946 -0.7990
15801SOL    HW248845   3.462   5.398  10.923  0.4996  0.7172 -0.6207
15802SOL     OW48846   6.819   0.979   5.588  0.2397  0.0154 -0.2055
15802SOL    HW148847   6.738   0.998   5.539  0.7407  0.3148 -0.9374
15802SOL    HW248848   6.869   1.061   5.584  1.0082 -0.4648 -0.6151
15803SOL     OW48849   3.299   5.408   2.225 -0.2373 -0.3144 -0.4327
15803SOL    HW148850   3.391   5.389   2.244 -0.5532 -0.8185  0.6365
15803SOL    HW248851   3.297   5.503   2.208  0.8264 -0.6207 -2.6987
15804SOL     OW48852   1.314   4.940  12.403 -0.1306 -0.0656  0.3260
15804SOL    HW148853   1.359   4.986  12.333  0.1592  0.5906  0.9330
15804SOL    HW248854   1.231   4.988  12.414  0.8154  1.3122  1.9817
15805SOL     OW48855   5.493   5.662   8.712  0.3427  0.7032  0.1892
15805SOL    HW148856   5.545   5.583   8.724  0.4960  0.7582 -0.1094
15805SOL    HW248857   5.411   5.643   8.758 -0.6163 -0.6042 -1.8811
15806SOL     OW48858   7.026   1.492   0.214 -0.3183 -0.0389  0.0152
15806SOL    HW148859   7.020   1.572   0.266  3.4527  0.9112 -0.7433
15806SOL    HW248860   7.054   1.425   0.277  0.1992  0.1217 -0.0466
15807SOL     OW48861   4.788   7.216   7.332  0.5139  0.1556 -0.4757
15807SOL    HW148862   4.726   7.241   7.401  1.6370  0.6272  0.3913
15807SOL    HW248863   4.805   7.123   7.348 -1.2986 -0.4609 -1.8154
15808SOL     OW48864   2.925   1.283   7.821 -0.1767 -0.4653  0.0582
15808SOL    HW148865   2.916   1.229   7.900 -0.3425  0.4333  0.6711
15808SOL    HW248866   2.953   1.222   7.753  1.0497 -1.0555  1.0631
15809SOL     OW48867   2.631   1.016   2.075 -0.5206  0.0255 -0.9302
15809SOL    HW148868   2.663   1.103   2.049 -0.1728  0.1516 -0.1008
15809SOL    HW248869   2.589   1.030   2.160  0.4427 -0.7826 -0.2895
15810SOL     OW48870   4.414   2.830  12.057 -0.6327  0.2975 -0.0306
15810SOL    HW148871   4.481   2.802  11.995  1.0907  0.3935  1.6733
15810SOL    HW248872   4.400   2.753  12.113 -2.1358  0.2193 -0.4661
15811SOL     OW48873   0.692   2.827   1.657  0.0386 -0.1785 -0.3262
15811SOL    HW148874   0.648   2.790   1.734  0.2947  1.0170  0.4189
15811SOL    HW248875   0.757   2.761   1.633 -1.0388 -1.2416 -0.4477
15812SOL     OW48876   3.853   7.518   7.502 -0.6660 -0.4109  0.2282
15812SOL    HW148877   3.849   7.612   7.487  0.1457 -0.4603 -0.3689
15812SOL    HW248878   3.782   7.482   7.448 -1.5353 -0.0787  1.1308
15813SOL     OW48879   1.623   5.642   8.338 -0.2504 -0.0441  0.4398
15813SOL    HW148880   1.646   5.565   8.286  0.0011  0.6572 -0.4973
15813SOL    HW248881   1.704   5.693   8.341 -0.2570 -0.0703  1.5345
15814SOL     OW48882   2.820   0.980  10.078 -0.5870 -0.2391 -0.0928
15814SOL    HW148883   2.823   0.911  10.011  0.3675 -0.0640 -0.2348
15814SOL    HW248884   2.820   0.933  10.161 -1.1841 -0.4408 -0.2012
15815SOL     OW48885   0.316   7.151   0.227 -0.3389 -0.2411  0.2890
15815SOL    HW148886   0.237   7.176   0.275  0.1205  0.4754  0.6828
15815SOL    HW248887   0.315   7.055   0.227 -0.6747 -0.2435  1.1827
15816SOL     OW48888   5.467   0.549  10.190  0.0682  0.3439 -0.0996
15816SOL    HW148889   5.385   0.599  10.188 -1.0433 -1.3186 -3.0753
15816SOL    HW248890   5.530   0.603  10.143 -0.1709  0.3853 -0.3711
15817SOL     OW48891   1.212   3.873  11.266  0.1278 -0.1656  0.2801
15817SOL    HW148892   1.236   3.890  11.175  0.6456 -1.1545  0.2256
15817SOL    HW248893   1.295   3.853  11.310 -0.3376 -1.7211  0.5160
15818SOL     OW48894   6.687   4.815   7.393 -0.2149  0.2468 -0.3077
15818SOL    HW148895   6.612   4.755   7.390  1.4550 -2.0336  0.3612
15818SOL    HW248896   6.739   4.791   7.317  0.5312  0.8027  0.0204
15819SOL     OW48897   3.427   4.934   0.892  0.0091  0.1845  0.1963
15819SOL    HW148898   3.383   4.966   0.970 -2.2487  0.0005 -0.9179
15819SOL    HW248899   3.402   4.996   0.823  0.2565 -0.7769 -0.7936
15820SOL     OW48900   3.083   2.969   6.324 -0.5201 -0.1103  0.0970
15820SOL    HW148901   3.139   3.002   6.394 -0.3531  0.7941 -0.4579
15820SOL    HW248902   3.142   2.919   6.268 -0.7292 -1.1916  0.8055
15821SOL     OW48903   4.031   7.320   2.561  0.4711 -0.1247 -0.1587
15821SOL    HW148904   3.999   7.408   2.539  0.4203 -0.7367 -2.8308
15821SOL    HW248905   3.954   7.264   2.554  1.1536 -0.8969 -2.0801
15822SOL     OW48906   0.418   1.524   1.467  0.0552  0.1617  0.2340
15822SOL    HW148907   0.472   1.445   1.469 -1.0190 -0.5940 -0.1885
15822SOL    HW248908   0.328   1.492   1.461 -0.3208  1.4246 -1.4649
15823SOL     OW48909   1.810   4.432   9.109  0.2977 -0.5286  0.4916
15823SOL    HW148910   1.775   4.344   9.095 -1.8230  0.2189  0.7424
15823SOL    HW248911   1.736   4.490   9.091  0.7098  1.0675  3.4376
15824SOL     OW48912   5.472   1.668   8.513 -0.0463 -0.0201  0.3590
15824SOL    HW148913   5.426   1.734   8.565  0.1095  0.7009 -0.4008
15824SOL    HW248914   5.519   1.615   8.578  1.4413  1.8486  0.9120
15825SOL     OW48915   5.673   0.829   2.198  0.5047  0.3266 -0.1442
15825SOL    HW148916   5.723   0.780   2.133  0.4620 -0.3442  0.3146
15825SOL    HW248917   5.712   0.804   2.282 -1.2450 -1.0437  0.3288
15826SOL     OW48918   1.560   7.183  12.058  0.4357  0.4423  0.5070
15826SOL    HW148919   1.497   7.206  12.126 -1.7250  0.6422 -1.4174
15826SOL    HW248920   1.548   7.249  11.990  1.2972 -0.6623 -0.7969
15827SOL     OW48921   7.916   6.116   6.887  0.2028 -0.1503  0.4273
15827SOL    HW148922   7.969   6.089   6.963 -0.4435 -1.5426  0.4167
15827SOL    HW248923   7.829   6.132   6.924  0.1381  0.1764  0.1344
15828SOL     OW48924   0.144   4.770  11.491 -0.3845  0.1913  0.2346
15828SOL    HW148925   0.169   4.813  11.573 -1.1036 -2.0768  1.7323
15828SOL    HW248926   0.178   4.681  11.499 -1.8658 -0.5684 -1.2374
15829SOL     OW48927   0.736   7.142   1.425 -0.1524 -0.2519  0.2694
15829SOL    HW148928   0.711   7.170   1.513 -0.2741 -0.3962  0.2820
15829SOL    HW248929   0.667   7.081   1.399  0.6933 -1.4287  0.6923
15830SOL     OW48930   0.699   1.134   8.072  0.0114  0.0917  0.0211
15830SOL    HW148931   0.609   1.124   8.042  0.2139  1.9786 -1.4656
15830SOL    HW248932   0.728   1.046   8.095 -1.8828 -0.6836 -0.4400
15831SOL     OW48933   1.766   0.002  12.465  0.6542  0.0870  0.0922
15831SOL    HW148934   1.777   0.055  12.543  0.2348  1.1396 -0.5460
15831SOL    HW248935   1.741  -0.085  12.498  2.5876 -0.0990  1.1928
15832SOL     OW48936   3.028   4.757   4.998  0.2643  0.2427  0.4314
15832SOL    HW148937   2.950   4.758   5.054  0.4109  0.6340  0.6278
15832SOL    HW248938   3.040   4.664   4.977 -0.9876  0.3060 -0.6404
15833SOL     OW48939   4.000   4.934   2.471  0.4234 -0.0260  0.1318
15833SOL    HW148940   4.002   5.017   2.423 -1.7742  0.3982  0.6524
15833SOL    HW248941   3.945   4.877   2.416  0.1338 -0.4159  0.8150
15834SOL     OW48942   5.847   6.198   5.214  0.6772  0.4374  0.2431
15834SOL    HW148943   5.828   6.105   5.201 -1.9031  0.7575  1.1082
15834SOL    HW248944   5.908   6.200   5.288 -1.0719 -0.5392  1.8052
15835SOL     OW48945   6.642   1.066   7.196 -0.4813  0.1449  0.0560
15835SOL    HW148946   6.706   0.995   7.190 -1.2906 -0.5141 -1.4306
15835SOL    HW248947   6.562   1.024   7.226 -1.2496  0.1692 -1.7889
15836SOL     OW48948   1.661   7.297   8.867  0.5428  0.4343 -0.1625
15836SOL    HW148949   1.629   7.267   8.952  0.4326  0.0341 -0.3411
15836SOL    HW248950   1.612   7.244   8.803 -1.8362  2.9680 -0.6209
15837SOL     OW48951   7.563   3.666   1.931  0.3469 -0.2260 -0.5413
15837SOL    HW148952   7.592   3.724   2.001 -1.8999 -0.3743  0.5903
15837SOL    HW248953   7.598   3.580   1.956 -1.7054 -0.6080  1.3458
15838SOL     OW48954   3.515   2.475   7.885  0.2083 -0.0787  0.2139
15838SOL    HW148955   3.525   2.570   7.886  1.2833 -0.1280 -1.6692
15838SOL    HW248956   3.575   2.445   7.817 -0.7100 -2.0422  0.1979
15839SOL     OW48957   7.916   4.821   8.436  0.2702  0.3367 -0.0352
15839SOL    HW148958   7.873   4.826   8.521 -1.2326  0.1662 -0.7461
15839SOL    HW248959   7.869   4.885   8.382  0.6967 -0.0905 -0.9319
15840SOL     OW48960   3.433   3.222   4.736 -0.4516  0.0234  0.6389
15840SOL    HW148961   3.439   3.162   4.811 -1.3127  0.7679  1.3294
15840SOL    HW248962   3.512   3.205   4.686 -0.4203 -1.3165  1.0951
15841SOL     OW48963   7.528   4.027   3.375  0.5383 -0.2179  0.2582
15841SOL    HW148964   7.502   4.099   3.432 -1.4432 -1.1254  0.5689
15841SOL    HW248965   7.457   3.964   3.381  1.1146 -1.1578 -1.8339
15842SOL     OW48966   5.207   7.746  11.195 -0.3410  0.0404 -0.2208
15842SOL    HW148967   5.115   7.762  11.173 -0.2170  1.2022  0.0579
15842SOL    HW248968   5.213   7.767  11.288  0.2572  0.2141 -0.2968
15843SOL     OW48969   5.313   5.991   2.436  0.3146  0.6614  0.3184
15843SOL    HW148970   5.295   5.917   2.379  1.0831  0.4802  0.3006
15843SOL    HW248971   5.337   6.062   2.376  1.2133  0.4447  0.4144
15844SOL     OW48972   6.439   1.278   0.591 -0.9408  0.0279 -0.1112
15844SOL    HW148973   6.446   1.322   0.507 -0.4050  2.0530  0.9333
15844SOL    HW248974   6.530   1.270   0.621 -1.2406  1.5064  1.3073
15845SOL     OW48975   4.189   6.467   0.919 -0.3678 -0.0471 -0.1374
15845SOL    HW148976   4.097   6.446   0.935 -0.7377  0.9728 -0.8212
15845SOL    HW248977   4.208   6.538   0.981 -0.5160  0.8362 -1.0783
15846SOL     OW48978   5.349   3.110   7.489 -0.5573  0.2208 -0.0232
15846SOL    HW148979   5.354   3.125   7.395 -0.0392  0.6792  0.0737
15846SOL    HW248980   5.336   3.197   7.527 -0.4476  0.0754  0.3533
15847SOL     OW48981   1.874   3.509   2.668 -0.1809 -0.5725 -0.3368
15847SOL    HW148982   1.838   3.421   2.683 -0.2789 -0.4800 -0.0247
15847SOL    HW248983   1.847   3.559   2.745  2.4408 -1.0605  1.0309
15848SOL     OW48984   3.691   3.424  11.454 -0.0097 -0.1890 -0.6629
15848SOL    HW148985   3.668   3.401  11.544  1.6337  1.0220  0.1042
15848SOL    HW248986   3.607   3.427  11.408 -0.9366 -0.2320  0.9580
15849SOL     OW48987   7.252   6.188  12.217  0.0501  0.5244  0.1795
15849SOL    HW148988   7.175   6.186  12.274 -0.2261  1.3556 -0.1352
15849SOL    HW248989   7.215   6.192  12.128  0.4679 -0.2455 -0.0321
15850SOL     OW48990   1.966   7.155  11.042 -0.1760 -0.6595 -0.2428
15850SOL    HW148991   2.007   7.240  11.029  0.0351 -0.8329 -0.7344
15850SOL    HW248992   1.998   7.101  10.970  0.0002 -1.2781  0.2847
15851SOL     OW48993   3.064   3.371   7.765 -0.2524 -0.1836  0.0486
15851SOL    HW148994   3.028   3.311   7.829  0.1538 -0.5190 -0.0381
15851SOL    HW248995   3.098   3.444   7.817 -1.3111  0.2786  0.1159
15852SOL     OW48996   3.497   3.175  10.135  0.6690  0.5317 -0.0564
15852SOL    HW148997   3.438   3.206  10.066 -1.5255  0.9270  1.8807
15852SOL    HW248998   3.482   3.081  10.138  1.0481  0.4603 -0.3603
15853SOL     OW48999   1.205   5.438   3.172  0.2178  1.0334  0.2655
15853SOL    HW149000   1.178   5.363   3.119  1.6965  1.3074 -0.9521
15853SOL    HW249001   1.155   5.511   3.137  0.4662  1.0313 -0.0979
15854SOL     OW49002   3.910   6.131   5.225  0.1206  0.2358  0.3107
15854SOL    HW149003   3.962   6.181   5.289  0.0433  0.2855  0.3348
15854SOL    HW249004   3.848   6.082   5.278 -0.3100  0.6990  0.2445
15855SOL     OW49005   1.725   1.504  12.334 -0.0338  0.4376  0.4683
15855SOL    HW149006   1.659   1.435  12.334  1.2531 -0.8428  0.5092
15855SOL    HW249007   1.772   1.493  12.417  2.7773 -1.2839 -1.1815
15856SOL     OW49008   4.636   6.300   6.882 -0.3220  0.4140  0.3807
15856SOL    HW149009   4.661   6.234   6.946 -1.2165  0.3853  0.7103
15856SOL    HW249010   4.717   6.321   6.836  0.2132  0.0172  1.1327
15857SOL     OW49011   2.833   3.817  10.746 -0.0008 -0.4566  0.3289
15857SOL    HW149012   2.900   3.881  10.723 -0.7740 -0.0950 -1.0050
15857SOL    HW249013   2.766   3.867  10.792 -0.4097 -0.3755 -0.3446
15858SOL     OW49014   4.314   0.327   5.280  0.8663  0.3127 -0.0320
15858SOL    HW149015   4.246   0.298   5.342  1.8634 -0.3366  0.8095
15858SOL    HW249016   4.340   0.247   5.235  0.2035  0.7731 -1.2757
15859SOL     OW49017   6.384   7.284   9.851 -0.0108  0.3819 -0.4628
15859SOL    HW149018   6.430   7.365   9.873 -0.5169  0.7801 -0.8506
15859SOL    HW249019   6.453   7.222   9.831  0.3916  0.6515  0.0512
15860SOL     OW49020   6.798   7.918   4.670 -0.0699  0.1733 -0.1094
15860SOL    HW149021   6.846   7.836   4.683 -1.5935 -0.7261  0.1158
15860SOL    HW249022   6.861   7.986   4.693  1.2144 -0.9157 -0.2076
15861SOL     OW49023   4.359   7.526   5.779 -0.3339 -0.2387 -0.2592
15861SOL    HW149024   4.335   7.599   5.836 -3.7267  0.5811 -2.4668
15861SOL    HW249025   4.322   7.449   5.822  0.6539 -0.2932  0.5563
15862SOL     OW49026   5.266   1.775   0.269  0.4180  0.1377  0.0513
15862SOL    HW149027   5.305   1.822   0.343  2.9362  0.6944 -1.5061
15862SOL    HW249028   5.329   1.705   0.250 -0.4647 -0.3447 -1.2160
15863SOL     OW49029   2.524   1.535  11.419  0.3228 -0.4166 -0.2813
15863SOL    HW149030   2.489   1.545  11.507  0.3794 -1.8890 -0.0614
15863SOL    HW249031   2.456   1.486  11.372 -0.3954  1.6535 -1.5349
15864SOL     OW49032   6.243   7.874   7.789  0.0055 -0.2859  0.2975
15864SOL    HW149033   6.203   7.888   7.874  0.0133  0.9759  0.1161
15864SOL    HW249034   6.173   7.895   7.726  0.2481 -0.3799 -0.0068
15865SOL     OW49035   0.956   3.999  11.772 -0.0760 -0.3712 -0.0714
15865SOL    HW149036   0.961   3.938  11.699 -1.5152 -1.7978  0.9500
15865SOL    HW249037   0.873   4.045  11.760  0.2654  0.2808  0.0092
15866SOL     OW49038   4.824   2.798  11.215 -0.0559  0.6339 -0.2525
15866SOL    HW149039   4.880   2.831  11.286  1.1764  0.9252 -1.3379
15866SOL    HW249040   4.798   2.877  11.166  0.0219  0.3271 -0.7904
15867SOL     OW49041   3.182   6.594   2.756  0.1347  0.6434  0.6540
15867SOL    HW149042   3.244   6.530   2.791  1.7646  1.3821 -0.7489
15867SOL    HW249043   3.168   6.656   2.828  0.5295  0.1329  1.1825
15868SOL     OW49044   0.773   3.085   4.431  0.0464 -0.3151 -0.2514
15868SOL    HW149045   0.750   2.993   4.445  1.1339 -0.8436 -1.7010
15868SOL    HW249046   0.697   3.121   4.385 -0.4041 -0.4722  0.3643
15869SOL     OW49047   7.876   6.027   7.374 -0.5418  0.0949 -0.1511
15869SOL    HW149048   7.924   5.973   7.436  0.8640  1.5883  0.1140
15869SOL    HW249049   7.800   5.974   7.351  0.4517 -1.7359  0.5415
15870SOL     OW49050   4.868   3.823   0.018  0.2347  0.1048 -0.4382
15870SOL    HW149051   4.932   3.892   0.037  1.1676 -0.9969  0.6016
15870SOL    HW249052   4.913   3.741   0.041 -0.2790 -1.0233 -3.0854
15871SOL     OW49053   6.432   5.768  10.335 -0.1963  0.3822 -0.2074
15871SOL    HW149054   6.463   5.678  10.346 -1.2749 -0.2387 -1.8694
15871SOL    HW249055   6.485   5.803  10.263 -2.0640 -0.1216 -1.9064
15872SOL     OW49056   6.917   2.772   1.366  0.2312  0.0002  0.1957
15872SOL    HW149057   6.977   2.741   1.298  0.1452  2.4625 -1.1090
15872SOL    HW249058   6.961   2.847   1.404 -0.6094 -0.1666  1.5488
15873SOL     OW49059   6.313   1.410   6.892 -0.0138 -0.6711 -0.3799
15873SOL    HW149060   6.377   1.348   6.859 -0.7554 -0.5720 -2.0747
15873SOL    HW249061   6.306   1.477   6.824 -0.4172  0.4101  0.6919
15874SOL     OW49062   6.088   5.927   7.860 -0.2246  0.1450  0.1006
15874SOL    HW149063   6.044   5.891   7.938 -0.0543  0.6244  0.4198
15874SOL    HW249064   6.040   6.007   7.840  0.0395  0.2785  0.0004
15875SOL     OW49065   2.972   7.000  12.190 -0.3970 -0.0528  0.2026
15875SOL    HW149066   3.023   6.998  12.272 -1.7122 -1.0522  1.0362
15875SOL    HW249067   2.897   7.056  12.210  0.0463  0.9529 -0.8377
15876SOL     OW49068   1.888   1.441   6.691  0.2412 -0.1285  0.3272
15876SOL    HW149069   1.815   1.386   6.720  1.2258 -1.3846  0.5049
15876SOL    HW249070   1.957   1.424   6.755  0.9838  0.3640 -0.3321
15877SOL     OW49071   5.143   3.664   4.901 -0.2729 -0.7229  0.1078
15877SOL    HW149072   5.162   3.655   4.807 -1.2084 -0.4919 -0.1190
15877SOL    HW249073   5.118   3.755   4.912  1.2691 -0.3686  0.8789
15878SOL     OW49074   6.094   1.158  10.143 -0.2214 -0.3711 -0.2275
15878SOL    HW149075   6.109   1.132  10.052  0.4809  0.7081 -0.4365
15878SOL    HW249076   6.003   1.133  10.161  0.1093 -2.0341 -0.7095
15879SOL     OW49077   1.747   7.527   0.302 -0.1803 -0.3799  0.0743
15879SOL    HW149078   1.706   7.495   0.222 -1.7150  0.6291  0.4198
15879SOL    HW249079   1.840   7.509   0.290 -0.2934  0.2558 -2.1998
15880SOL     OW49080   0.752   5.090   5.715 -0.1783  0.7809 -0.1294
15880SOL    HW149081   0.661   5.082   5.745 -0.0825  0.6604  0.1320
15880SOL    HW249082   0.753   5.047   5.629 -0.4110  0.9549 -0.2222
15881SOL     OW49083   0.940   1.178  12.053 -0.0661  0.7269  0.2008
15881SOL    HW149084   0.868   1.234  12.080  0.2891  0.8453  0.9338
15881SOL    HW249085   1.010   1.197  12.115  0.0599 -0.5299  0.4683
15882SOL     OW49086   1.418   2.363  12.043  0.2303  0.0564 -0.1161
15882SOL    HW149087   1.324   2.369  12.023 -0.3030 -0.9458  1.8235
15882SOL    HW249088   1.452   2.449  12.022 -1.4044  0.8575  0.3114
15883SOL     OW49089   0.044   4.212   4.407 -0.0144 -0.3681 -0.0665
15883SOL    HW149090   0.033   4.126   4.449  0.3204 -0.3045  0.1625
15883SOL    HW249091  -0.024   4.267   4.446 -1.0386 -0.8421 -1.1136
15884SOL     OW49092   5.351   6.887   6.139 -0.4582  0.2294 -0.2743
15884SOL    HW149093   5.360   6.811   6.195 -0.7751  0.2018 -0.2566
15884SOL    HW249094   5.303   6.951   6.193  0.3142  0.6582 -0.0818
15885SOL     OW49095   4.720   2.557  11.305 -0.0345  0.1323  0.5098
15885SOL    HW149096   4.798   2.506  11.325 -0.1870  0.1806  1.2485
15885SOL    HW249097   4.753   2.639  11.268  0.2291 -0.1884  0.0159
15886SOL     OW49098   3.425   7.916   9.194 -0.0262  0.6721  0.0734
15886SOL    HW149099   3.335   7.912   9.225  0.2099 -1.3916  0.6234
15886SOL    HW249100   3.436   8.006   9.164 -1.6321  1.5399  1.8862
15887SOL     OW49101   2.225   4.577  11.615  0.4709 -0.4620  0.0963
15887SOL    HW149102   2.278   4.500  11.631 -0.5692 -0.9467  1.3646
15887SOL    HW249103   2.157   4.547  11.554  1.0039 -0.1062 -0.7005
15888SOL     OW49104   7.581   7.402   4.511  0.3378 -0.4726  0.4869
15888SOL    HW149105   7.626   7.378   4.592  0.6357 -1.5051  0.0317
15888SOL    HW249106   7.619   7.344   4.444  0.8736  1.0876 -0.6195
15889SOL     OW49107   7.504   5.259   0.069  0.2716  0.1255  0.4872
15889SOL    HW149108   7.553   5.188   0.027 -0.8814  0.7294 -2.1029
15889SOL    HW249109   7.510   5.240   0.163  1.8156 -2.1612  0.0161
15890SOL     OW49110   6.059   1.070  10.911  0.1689 -0.0594  0.7068
15890SOL    HW149111   6.119   1.106  10.976  0.5567  2.4752 -0.8906
15890SOL    HW249112   5.998   1.142  10.893 -0.2088 -0.8212 -1.3366
15891SOL     OW49113   2.159   1.935   9.546  0.1282  0.4190 -0.1673
15891SOL    HW149114   2.214   1.964   9.472  1.2187  0.4525  0.6216
15891SOL    HW249115   2.089   2.000   9.550  0.5429  0.9103 -0.6401
15892SOL     OW49116   5.398   6.830   2.521 -0.5613 -0.0284  0.0165
15892SOL    HW149117   5.443   6.748   2.501 -0.7993  0.2401 -1.8559
15892SOL    HW249118   5.332   6.838   2.452 -0.9716  1.4186  0.5483
15893SOL     OW49119   2.989   0.056  10.168  0.2733 -0.0858  1.0681
15893SOL    HW149120   2.897   0.037  10.184 -0.1965  1.1766  0.0894
15893SOL    HW249121   3.037  -0.005  10.224 -1.1462 -0.9559  1.3782
15894SOL     OW49122   4.646   1.588  12.079  0.3065  0.8705  0.1686
15894SOL    HW149123   4.654   1.512  12.022 -0.7589  1.6782 -1.1225
15894SOL    HW249124   4.566   1.573  12.129  0.5981  0.7209  0.5985
15895SOL     OW49125   5.178   7.374   3.545 -0.3384 -0.1993 -0.1228
15895SOL    HW149126   5.126   7.449   3.573 -2.7806 -2.7660  2.9769
15895SOL    HW249127   5.198   7.326   3.626 -0.5152 -3.8021 -1.9784
15896SOL     OW49128   4.981   0.495   9.871 -0.4228 -0.1371 -0.4444
15896SOL    HW149129   5.036   0.574   9.873  1.1268 -1.1660 -0.4847
15896SOL    HW249130   4.924   0.507   9.795  0.1595  0.7029 -0.7608
15897SOL     OW49131   2.239   3.506  11.375 -0.5735 -0.1261  0.0397
15897SOL    HW149132   2.234   3.446  11.449  1.4657 -0.5003 -0.0648
15897SOL    HW249133   2.195   3.459  11.304  0.0638 -1.0732  0.2482
15898SOL     OW49134   5.724   6.339   2.822  0.1915  0.1299  0.0593
15898SOL    HW149135   5.747   6.250   2.796  0.6344  0.2216  0.1227
15898SOL    HW249136   5.808   6.383   2.832  0.0911 -0.1022  2.3703
15899SOL     OW49137   6.009   2.237  11.497  0.2178  0.0710 -0.1398
15899SOL    HW149138   5.918   2.216  11.518  0.1477 -0.2466 -0.7303
15899SOL    HW249139   6.042   2.159  11.452 -0.1346  1.2416 -2.6431
15900SOL     OW49140   5.305   5.258   1.669  0.1606 -0.2806  0.2211
15900SOL    HW149141   5.284   5.263   1.576  2.3964 -2.1530 -0.5168
15900SOL    HW249142   5.247   5.190   1.703  0.9911 -1.3447 -0.4257
15901SOL     OW49143   7.418   6.820   5.383 -0.1610 -0.0411 -0.2665
15901SOL    HW149144   7.436   6.815   5.477 -0.3529 -0.2134 -0.2364
15901SOL    HW249145   7.464   6.898   5.354  1.9208 -1.2915 -0.4994
15902SOL     OW49146   7.420   2.243   3.745 -0.2267 -0.0997 -0.8404
15902SOL    HW149147   7.506   2.226   3.705  0.8996  1.3228  0.8448
15902SOL    HW249148   7.377   2.158   3.748  1.6058 -1.0523 -0.6702
15903SOL     OW49149   7.407   6.096   5.306  0.4481  0.3636 -0.0592
15903SOL    HW149150   7.492   6.063   5.276 -0.1169 -1.0323 -0.2218
15903SOL    HW249151   7.426   6.137   5.390  1.4139  0.8159 -0.4752
15904SOL     OW49152   3.805   7.244   6.776 -0.0444  0.3241 -0.3133
15904SOL    HW149153   3.830   7.177   6.712  0.0732  2.1095 -2.2215
15904SOL    HW249154   3.712   7.227   6.791 -0.2802  0.3348 -1.5850
15905SOL     OW49155   1.538   4.019  11.250  0.2281  0.6528 -0.1933
15905SOL    HW149156   1.582   4.009  11.165 -1.1967 -1.1039 -0.8079
15905SOL    HW249157   1.520   3.929  11.278  2.1918  1.0965  2.8922
15906SOL     OW49158   2.299   0.780   9.225  0.3051 -0.1003  0.0318
15906SOL    HW149159   2.337   0.802   9.140  1.3036  2.2346  0.9959
15906SOL    HW249160   2.230   0.716   9.204  0.7420  0.1206 -2.4684
15907SOL     OW49161   5.386   5.980   1.832 -0.2377  0.2377  0.1820
15907SOL    HW149162   5.444   6.051   1.857  0.0422  0.2904 -0.5934
15907SOL    HW249163   5.400   5.969   1.738 -0.5822 -0.5662  0.2135
15908SOL     OW49164   0.180   0.534  12.281  0.2728  0.3629  0.1995
15908SOL    HW149165   0.214   0.450  12.250  0.8432  0.1477  1.3503
15908SOL    HW249166   0.229   0.552  12.361 -1.0432  0.9617  0.9072
15909SOL     OW49167   5.018   6.011   4.612 -0.3330  0.7490 -0.1034
15909SOL    HW149168   4.970   5.934   4.644 -0.0326  0.8902  0.7258
15909SOL    HW249169   5.068   6.041   4.688  1.9099 -0.0206 -1.1694
15910SOL     OW49170   4.226   4.994   7.957 -0.0242  0.0887 -0.4556
15910SOL    HW149171   4.313   5.035   7.962 -0.0840  0.1429  0.4367
15910SOL    HW249172   4.243   4.902   7.938  0.4211 -0.4675  2.2428
15911SOL     OW49173   2.927   2.420   3.365  0.1181  0.1798 -0.0497
15911SOL    HW149174   2.908   2.412   3.271 -0.6460  1.5850 -0.0379
15911SOL    HW249175   2.842   2.441   3.405  0.4692 -0.2178  0.9400
15912SOL     OW49176   0.743   3.711   6.618  0.1263  0.2076 -0.8567
15912SOL    HW149177   0.688   3.716   6.696  0.3257  1.3778 -0.7807
15912SOL    HW249178   0.824   3.755   6.643 -0.8012  3.1678 -2.5424
15913SOL     OW49179   5.236   1.098   1.433  0.0686  0.0105 -0.0278
15913SOL    HW149180   5.278   1.183   1.446  0.1686 -0.1335  0.6365
15913SOL    HW249181   5.298   1.034   1.468  0.7602 -0.5155 -2.0680
15914SOL     OW49182   1.204   7.352   9.270 -0.1496  0.0927  0.6617
15914SOL    HW149183   1.136   7.408   9.232  0.7856  1.0536  0.3382
15914SOL    HW249184   1.164   7.314   9.348 -1.6584 -0.8420 -0.5324
15915SOL     OW49185   5.743   7.883   3.415  0.1773 -0.3791 -0.0467
15915SOL    HW149186   5.796   7.814   3.455 -1.1142 -0.9538  0.7513
15915SOL    HW249187   5.693   7.838   3.347  1.0686  0.2601 -1.1537
15916SOL     OW49188   5.632   0.886   7.127  0.6005 -0.4179 -0.6427
15916SOL    HW149189   5.581   0.956   7.087 -0.4297 -0.9429 -0.2765
15916SOL    HW249190   5.592   0.805   7.094 -0.1554 -0.8651  1.2690
15917SOL     OW49191   7.015   4.086   8.641  0.0200 -0.5044 -0.0817
15917SOL    HW149192   7.090   4.041   8.602  1.4632  0.1588  1.7564
15917SOL    HW249193   7.002   4.042   8.725  0.3961  1.3272  1.0093
15918SOL     OW49194   4.053   6.035   1.399  0.0168  0.0224  0.4549
15918SOL    HW149195   4.079   5.976   1.328 -0.8565 -0.6870  0.7058
15918SOL    HW249196   3.969   6.071   1.371 -0.3236 -0.2413  1.1048
15919SOL     OW49197   1.082   4.176   9.320 -0.4951  0.4488  0.0580
15919SOL    HW149198   1.148   4.229   9.275 -0.0182  0.1137  0.3694
15919SOL    HW249199   1.131   4.120   9.379 -0.8729 -1.3382 -1.2234
15920SOL     OW49200   4.157   0.071   1.130 -0.1107  0.1241  0.5301
15920SOL    HW149201   4.070   0.107   1.116  1.1423  2.6774 -1.6084
15920SOL    HW249202   4.192   0.122   1.203 -0.1263 -0.3285  0.8529
15921SOL     OW49203   5.016   2.297   9.821  0.1855 -0.0785  0.0080
15921SOL    HW149204   5.102   2.307   9.781  0.3435 -0.2357  0.3082
15921SOL    HW249205   4.955   2.329   9.755  0.5923  1.7342  0.4679
15922SOL     OW49206   6.752   4.763   5.599 -0.1175  0.4598 -0.4702
15922SOL    HW149207   6.684   4.756   5.666  1.1127  1.9226  1.0097
15922SOL    HW249208   6.800   4.680   5.605  0.4847  0.8878  1.0845
15923SOL     OW49209   1.881   1.220   7.599 -0.0853  0.8695 -0.1504
15923SOL    HW149210   1.936   1.284   7.552  2.9212 -1.1509  0.3478
15923SOL    HW249211   1.839   1.169   7.529 -1.2170  2.2555 -0.5394
15924SOL     OW49212   7.905   3.937   8.457 -0.2646 -0.1073 -0.2895
15924SOL    HW149213   7.918   4.032   8.454 -0.8567  0.0445  1.3410
15924SOL    HW249214   7.967   3.906   8.522  1.2833 -1.1318 -2.1608
15925SOL     OW49215   0.091   3.084   4.879 -0.2730  0.3351  0.3670
15925SOL    HW149216   0.110   3.140   4.954 -1.5192  0.3979  0.6614
15925SOL    HW249217   0.128   3.131   4.804  0.9455  0.2916  0.9205
15926SOL     OW49218   6.887   7.449   0.229  0.2271  0.1111 -0.1614
15926SOL    HW149219   6.893   7.380   0.163  2.3059 -0.0183  0.0937
15926SOL    HW249220   6.795   7.452   0.253  0.1007 -2.7649  0.0132
15927SOL     OW49221   0.724   2.013  12.391  0.5514  0.1895  0.0679
15927SOL    HW149222   0.773   2.040  12.313 -0.2364  1.3251 -0.0547
15927SOL    HW249223   0.646   1.970  12.357  0.2990  0.5162  0.2292
15928SOL     OW49224   3.100   1.680   3.031  0.5100 -0.3412 -0.0374
15928SOL    HW149225   3.070   1.730   3.106  1.1331  0.6801 -0.4541
15928SOL    HW249226   3.140   1.601   3.069  1.4007  0.4668  0.7432
15929SOL     OW49227   6.903   7.874   7.047 -0.5959  0.0035  0.0421
15929SOL    HW149228   6.838   7.908   6.986  0.9610 -0.3478 -1.9180
15929SOL    HW249229   6.985   7.874   6.997  0.4219 -1.9514  1.5737
15930SOL     OW49230   5.671   1.611   8.929 -0.3818  0.1128 -0.0776
15930SOL    HW149231   5.642   1.659   9.007 -1.9012 -0.6029 -0.1849
15930SOL    HW249232   5.763   1.637   8.919 -0.1356  0.1991  1.9586
15931SOL     OW49233   7.663   4.069   4.405 -0.0966 -0.2127  0.1470
15931SOL    HW149234   7.656   4.135   4.336  0.0681  0.0933  0.4217
15931SOL    HW249235   7.709   3.996   4.363  1.0771  0.4400  0.2597
15932SOL     OW49236   4.407   3.375  12.071 -0.7778  0.6514  0.4330
15932SOL    HW149237   4.419   3.282  12.088 -1.0965  0.4643 -0.3131
15932SOL    HW249238   4.495   3.412  12.077 -0.0470 -0.2807 -2.5547
15933SOL     OW49239   5.185   2.260   5.406  0.6760 -0.4364  0.2827
15933SOL    HW149240   5.166   2.346   5.444 -0.1804 -0.7671  0.6269
15933SOL    HW249241   5.126   2.254   5.331  2.7360  0.4458 -1.5144
15934SOL     OW49242   0.430   5.003   1.603 -0.2502 -0.1637  0.0744
15934SOL    HW149243   0.388   5.048   1.676  2.1504  1.8884  0.3267
15934SOL    HW249244   0.458   5.074   1.545 -0.0302 -1.6212 -1.6844
15935SOL     OW49245   2.608   4.463   3.663 -0.0093 -0.2785  0.4267
15935SOL    HW149246   2.645   4.516   3.734  1.7885  0.1706 -0.7467
15935SOL    HW249247   2.632   4.373   3.685  1.4596 -0.0434 -0.0573
15936SOL     OW49248   1.637   2.855   7.544 -0.3757 -0.2885 -0.2118
15936SOL    HW149249   1.711   2.875   7.601  0.1896  0.6459 -1.2485
15936SOL    HW249250   1.564   2.841   7.605 -0.0851  1.9305  0.7274
15937SOL     OW49251   4.648   7.213   3.695  0.1445  0.2721  0.4450
15937SOL    HW149252   4.702   7.158   3.638  0.6874 -0.9891  2.1298
15937SOL    HW249253   4.622   7.286   3.638  0.2896 -1.1346 -1.5617
15938SOL     OW49254   7.195   4.058   5.437  0.0167 -0.7033  0.1683
15938SOL    HW149255   7.168   3.980   5.486 -0.8070  0.1477  1.0962
15938SOL    HW249256   7.114   4.090   5.397 -0.2596  1.3306  2.2043
15939SOL     OW49257   4.560   7.024   1.668 -0.2273  0.7004  0.3058
15939SOL    HW149258   4.489   7.052   1.725  0.8964 -1.2148  2.8414
15939SOL    HW249259   4.546   6.930   1.655  0.8510  0.6355 -0.6206
15940SOL     OW49260   3.192   1.343   9.676  0.6791  0.2985 -0.6572
15940SOL    HW149261   3.195   1.433   9.709 -1.0090  0.5080 -0.9739
15940SOL    HW249262   3.145   1.294   9.743  0.1827  0.0002 -1.2151
15941SOL     OW49263   1.678   1.737  10.069 -0.0545 -0.6021  0.1088
15941SOL    HW149264   1.617   1.794  10.116  0.2484 -0.5237  0.4054
15941SOL    HW249265   1.740   1.707  10.135  0.3404 -0.5387 -0.2269
15942SOL     OW49266   3.195   7.478  10.923  0.0518  0.2087 -0.2818
15942SOL    HW149267   3.172   7.427  11.000 -0.3147  1.7592  0.6832
15942SOL    HW249268   3.195   7.569  10.954 -2.2829  1.1216 -2.5854
15943SOL     OW49269   6.040   5.072   2.438  0.2362  0.0096 -0.7476
15943SOL    HW149270   6.021   5.090   2.530  1.6091 -3.1310  0.2716
15943SOL    HW249271   5.960   5.030   2.405  0.4707 -0.7350 -0.3820
15944SOL     OW49272   1.557   6.639   6.146  0.6557 -0.3195 -0.2022
15944SOL    HW149273   1.515   6.615   6.229  0.6940  0.7177  0.1341
15944SOL    HW249274   1.650   6.645   6.168  0.4358  2.5864  0.4096
15945SOL     OW49275   5.402   3.331   3.179 -0.1702 -0.1807  0.2548
15945SOL    HW149276   5.345   3.389   3.128 -1.2860  0.1232  1.7726
15945SOL    HW249277   5.484   3.330   3.131 -1.1772  0.0454 -1.5645
15946SOL     OW49278   5.926   1.358   6.450  0.1473  0.0059  0.0092
15946SOL    HW149279   5.963   1.270   6.459 -1.4214 -0.5988  0.7868
15946SOL    HW249280   5.920   1.372   6.355  0.9716 -0.4608 -0.1225
15947SOL     OW49281   2.271   7.728   6.742 -0.5044 -0.1281 -0.0650
15947SOL    HW149282   2.321   7.655   6.706 -0.7305  0.2043 -1.0792
15947SOL    HW249283   2.259   7.706   6.835  0.4776 -0.7807 -0.0885
15948SOL     OW49284   7.786   3.414   2.932 -0.7372 -0.5523 -0.1206
15948SOL    HW149285   7.752   3.369   3.009  4.1235 -2.4565  1.2656
15948SOL    HW249286   7.825   3.345   2.878  1.5634  1.3418 -1.0598
15949SOL     OW49287   7.933   6.980   7.780  0.2627  0.5492  0.0939
15949SOL    HW149288   7.997   6.949   7.716  1.3547  1.1071  0.8814
15949SOL    HW249289   7.984   7.036   7.839 -0.6722 -0.0428  1.5132
15950SOL     OW49290   0.403   3.534   8.369 -0.2123  0.0984 -0.1783
15950SOL    HW149291   0.356   3.617   8.368  1.8185  1.3197 -0.2512
15950SOL    HW249292   0.424   3.517   8.277 -1.6955 -1.2046 -0.3236
15951SOL     OW49293   3.070   2.094  11.099  0.1960 -0.1850 -0.3188
15951SOL    HW149294   2.996   2.043  11.133  0.8481 -1.5500 -0.8861
15951SOL    HW249295   3.032   2.146  11.028 -0.7427  1.1280  1.0844
15952SOL     OW49296   7.691   3.373   1.438 -0.2659  0.7783 -0.0624
15952SOL    HW149297   7.779   3.337   1.443 -0.2787  0.8877  3.5579
15952SOL    HW249298   7.637   3.301   1.405  0.8242  0.0417 -0.2837
15953SOL     OW49299   2.548   4.835   9.012  0.3170  0.0870 -0.4475
15953SOL    HW149300   2.612   4.833   8.941 -0.0601  1.7818 -0.8951
15953SOL    HW249301   2.474   4.883   8.975  0.0588  0.8960  1.0490
15954SOL     OW49302   5.604   2.706   0.722 -0.7639 -0.0421  0.3265
15954SOL    HW149303   5.652   2.748   0.650  1.1410  0.8811  2.0264
15954SOL    HW249304   5.539   2.651   0.678  0.6497  0.0599 -2.1065
15955SOL     OW49305   6.839   2.648   1.843  0.1535 -0.6455 -0.6419
15955SOL    HW149306   6.910   2.707   1.817  0.3024 -0.8610 -0.7330
15955SOL    HW249307   6.769   2.705   1.873  0.3012 -0.4237 -0.7213
15956SOL     OW49308   5.361   6.283  12.433 -0.0124 -0.2408  0.1981
15956SOL    HW149309   5.410   6.244  12.361  1.0509  1.0309  0.2076
15956SOL    HW249310   5.421   6.345  12.474 -0.5619 -0.9487  2.2431
15957SOL     OW49311   4.607   2.603  11.546  0.3647  0.7897  0.6933
15957SOL    HW149312   4.647   2.541  11.485 -0.7868 -0.1821  0.8899
15957SOL    HW249313   4.679   2.662  11.571  2.1198 -1.7735  2.1887
15958SOL     OW49314   7.551   7.683   7.971  0.1605 -0.9885 -0.3830
15958SOL    HW149315   7.470   7.725   7.941  1.1900  1.8305  0.4513
15958SOL    HW249316   7.560   7.712   8.062  2.6375 -0.3212 -0.7868
15959SOL     OW49317   7.957   3.255   3.644 -0.2058 -0.1256 -0.5603
15959SOL    HW149318   8.006   3.303   3.577 -1.3041 -0.3791 -1.5736
15959SOL    HW249319   7.897   3.320   3.681  1.2628  0.3569  1.1406
15960SOL     OW49320   4.177   0.850   5.553  0.3272  0.0460  0.0585
15960SOL    HW149321   4.194   0.758   5.532  1.2046  0.6774 -2.3643
15960SOL    HW249322   4.258   0.896   5.528  0.7768  1.2910  3.2888
15961SOL     OW49323   5.729   2.820   0.504  0.2785 -0.0589  0.0568
15961SOL    HW149324   5.687   2.828   0.419  1.3906  2.5804 -0.3264
15961SOL    HW249325   5.785   2.743   0.497  4.0702  2.6176 -3.4302
15962SOL     OW49326   4.782   6.335  10.787  0.0608 -0.2031 -0.3443
15962SOL    HW149327   4.804   6.428  10.775  0.5908 -0.0444  1.4763
15962SOL    HW249328   4.744   6.308  10.703 -1.4251  2.0328 -0.4950
15963SOL     OW49329   3.854   4.386   6.286  0.0386 -0.0784  0.2342
15963SOL    HW149330   3.820   4.473   6.266  1.3765  0.1414 -1.3307
15963SOL    HW249331   3.849   4.338   6.203  1.0705 -0.8571  0.5903
15964SOL     OW49332   6.269   1.657   4.241 -0.3084 -0.1214 -0.0138
15964SOL    HW149333   6.186   1.703   4.226 -0.7867 -1.0220 -0.1874
15964SOL    HW249334   6.336   1.724   4.225 -0.9522  0.2155 -1.5004
15965SOL     OW49335   6.479   1.224   2.533  0.0250 -0.0384  0.4377
15965SOL    HW149336   6.474   1.129   2.536 -0.1379 -0.0038  1.9495
15965SOL    HW249337   6.467   1.246   2.441  0.4054 -1.4924  0.0205
15966SOL     OW49338   0.078   0.562   9.949 -0.1074  0.1984  0.1995
15966SOL    HW149339   0.152   0.603   9.993  0.3687 -1.0982  0.6491
15966SOL    HW249340   0.031   0.516  10.018  0.5341 -1.6948 -0.5527
15967SOL     OW49341   2.302   4.311   2.577  0.2094 -0.4630  0.0644
15967SOL    HW149342   2.350   4.375   2.629  1.0525  0.2604 -1.5237
15967SOL    HW249343   2.217   4.352   2.560  0.9605  0.5616 -1.4471
15968SOL     OW49344   1.528   0.655   2.935 -0.1061  0.3238 -0.3114
15968SOL    HW149345   1.458   0.673   2.872 -0.2551 -0.7540 -0.4774
15968SOL    HW249346   1.603   0.628   2.882  0.5638  1.7986 -0.1525
15969SOL     OW49347   3.522   4.824   2.494 -0.5864  0.3134 -0.5223
15969SOL    HW149348   3.477   4.909   2.491  0.6442  1.0017 -0.3709
15969SOL    HW249349   3.613   4.845   2.471  0.2860 -0.5390  1.8006
15970SOL     OW49350   6.102   5.605   6.084  0.5489  0.6550  0.2011
15970SOL    HW149351   6.046   5.660   6.139  1.0386 -0.6478  2.1309
15970SOL    HW249352   6.189   5.612   6.124  0.8386 -0.6336 -0.1317
15971SOL     OW49353   0.433   6.343   8.126  0.2757  0.6543 -0.0837
15971SOL    HW149354   0.414   6.398   8.050  0.0548 -0.4656 -0.8641
15971SOL    HW249355   0.375   6.377   8.195  0.2150  1.4468 -0.5159
15972SOL     OW49356   6.215   1.292   9.036 -0.4102  0.1999  0.4446
15972SOL    HW149357   6.236   1.320   8.947 -2.4844  1.8274  0.3865
15972SOL    HW249358   6.226   1.370   9.089 -0.7869 -0.3291  1.3245
15973SOL     OW49359   5.691   1.243   8.691  0.0948  0.5324  0.5407
15973SOL    HW149360   5.782   1.217   8.709 -0.1143 -0.3298  0.3921
15973SOL    HW249361   5.643   1.218   8.770  0.1107  1.7284  0.9545
15974SOL     OW49362   2.683   4.520   5.382  0.4406  0.1079 -0.2356
15974SOL    HW149363   2.665   4.550   5.471 -1.6599 -0.3924 -0.4489
15974SOL    HW249364   2.630   4.577   5.326 -0.3239 -1.2557 -0.9556
15975SOL     OW49365   0.862   3.501   8.604  0.5462  0.2720  0.7923
15975SOL    HW149366   0.774   3.483   8.638  0.6466  0.5583  1.2207
15975SOL    HW249367   0.847   3.553   8.525  0.3499  1.0583  1.3387
15976SOL     OW49368   1.225   7.158   7.493 -0.0947  0.4443 -0.0213
15976SOL    HW149369   1.250   7.248   7.512 -0.1028  0.1182  1.7206
15976SOL    HW249370   1.227   7.114   7.578 -4.4897 -0.1313  0.0040
15977SOL     OW49371   4.102   1.097  11.984 -0.7076  0.0578  0.3600
15977SOL    HW149372   4.133   1.145  12.062  0.4749 -2.5694  1.6345
15977SOL    HW249373   4.007   1.093  11.994 -0.6854  0.8394  0.9891
15978SOL     OW49374   7.813   4.964  10.773 -0.5395 -0.3780  0.1299
15978SOL    HW149375   7.866   4.982  10.695 -0.3728 -1.0956  0.0687
15978SOL    HW249376   7.745   5.032  10.773  0.7142  0.9159  0.5306
15979SOL     OW49377   4.251   1.707   2.082  0.1564  0.3412  0.2533
15979SOL    HW149378   4.264   1.802   2.079  0.2765  0.3384  0.7244
15979SOL    HW249379   4.332   1.671   2.048  0.2803  0.3963  0.4907
15980SOL     OW49380   3.059   5.515   2.626 -0.3114  0.2592 -0.0590
15980SOL    HW149381   3.060   5.426   2.660 -1.8442  0.1473 -0.2168
15980SOL    HW249382   3.120   5.563   2.682  0.8799 -0.9784 -0.2676
15981SOL     OW49383   4.294   0.773   2.407 -0.3952  0.1911 -0.2232
15981SOL    HW149384   4.264   0.814   2.489 -0.4860  0.6183 -0.4681
15981SOL    HW249385   4.383   0.808   2.395  0.0047 -0.6437  0.2115
15982SOL     OW49386   5.166   3.113   1.302 -0.2623  0.1902  0.5553
15982SOL    HW149387   5.188   3.134   1.212  1.9798 -0.6047  0.8525
15982SOL    HW249388   5.204   3.184   1.354 -1.3242  0.5176  0.9280
15983SOL     OW49389   1.896   0.484   4.504  0.3545 -0.0083  0.4753
15983SOL    HW149390   1.887   0.427   4.427 -1.6034  0.6965  0.1393
15983SOL    HW249391   1.974   0.536   4.486 -0.9728  1.3490 -1.9226
15984SOL     OW49392   1.435   7.211  11.011 -0.5150  0.2117 -0.3873
15984SOL    HW149393   1.401   7.265  11.083 -2.0414 -1.5831  0.3063
15984SOL    HW249394   1.530   7.218  11.020 -0.6346  2.3900 -0.0691
15985SOL     OW49395   1.457   6.350   4.110 -0.5568  0.5609  0.2908
15985SOL    HW149396   1.372   6.392   4.124 -0.4514  0.8250  0.1242
15985SOL    HW249397   1.444   6.260   4.141 -0.1735  1.2563  2.6653
15986SOL     OW49398   7.892   7.169   9.015  0.3333  0.0809 -0.0865
15986SOL    HW149399   7.872   7.231   8.944 -2.5213 -1.5604 -0.8676
15986SOL    HW249400   7.810   7.161   9.064  1.0670 -1.8845  0.9266
15987SOL     OW49401   7.875   4.858   2.116  0.0364  0.0752  0.1848
15987SOL    HW149402   7.807   4.805   2.075  0.2185  0.1656 -0.2406
15987SOL    HW249403   7.846   4.948   2.104 -0.9027  0.0556  2.0114
15988SOL     OW49404   7.838   7.664  10.605  0.2931  0.1117 -0.6127
15988SOL    HW149405   7.838   7.569  10.594  1.7728  0.0910 -0.6317
15988SOL    HW249406   7.929   7.686  10.624 -0.5072  1.1135  2.9100
15989SOL     OW49407   1.748   0.474  11.843 -0.4234  0.2123  0.6579
15989SOL    HW149408   1.791   0.484  11.758 -2.1085 -0.9931 -0.3757
15989SOL    HW249409   1.673   0.533  11.839 -1.5172 -1.1500  0.5935
15990SOL     OW49410   2.059   1.429   2.127 -0.4516  0.0025 -0.1612
15990SOL    HW149411   1.998   1.362   2.096 -0.5570  0.4285 -0.8877
15990SOL    HW249412   2.019   1.461   2.208 -0.6585 -0.4568 -0.0759
15991SOL     OW49413   0.673   7.198   3.646 -0.4750 -0.7525  0.8200
15991SOL    HW149414   0.592   7.234   3.683 -0.0454  2.2324 -0.8124
15991SOL    HW249415   0.678   7.236   3.558  2.3252 -1.4528  0.5842
15992SOL     OW49416   7.620   4.693  10.964 -0.1188 -0.1681  1.1017
15992SOL    HW149417   7.626   4.597  10.969  0.2636 -0.2709 -0.6093
15992SOL    HW249418   7.620   4.722  11.055 -0.5254 -1.8098  1.6614
15993SOL     OW49419   6.258   2.656   9.829 -0.1098  0.3650 -0.3441
15993SOL    HW149420   6.183   2.629   9.883  0.4813 -4.1479 -1.3854
15993SOL    HW249421   6.219   2.709   9.760 -2.0144  0.0323  0.4035
15994SOL     OW49422   0.833   7.109   2.735  0.3745  0.2285 -0.2761
15994SOL    HW149423   0.887   7.110   2.656  0.4896  1.4932 -0.1906
15994SOL    HW249424   0.821   7.015   2.754  0.8246 -0.0832 -1.4499
15995SOL     OW49425   7.073   3.662   2.358 -0.0538 -0.1038 -0.2092
15995SOL    HW149426   7.104   3.751   2.343  0.0084  0.1064  1.0118
15995SOL    HW249427   6.978   3.672   2.372  0.2016  0.0378  1.6593
15996SOL     OW49428   7.907   2.691   7.316 -0.2431 -0.5631 -0.6575
15996SOL    HW149429   7.828   2.707   7.367 -0.5284  0.1107 -1.3053
15996SOL    HW249430   7.887   2.614   7.263 -0.4581 -0.3962 -0.8161
15997SOL     OW49431   5.238   6.573   0.245  0.3353 -0.0879 -0.2139
15997SOL    HW149432   5.216   6.482   0.226 -1.5773  0.3446 -0.3298
15997SOL    HW249433   5.174   6.600   0.311  0.7697  1.2090 -0.2857
15998SOL     OW49434   0.536   2.871  11.898 -0.2756 -0.5857  0.1905
15998SOL    HW149435   0.490   2.787  11.901 -1.8190  0.2463  0.7944
15998SOL    HW249436   0.590   2.872  11.977  0.6061 -1.4354 -0.3681
15999SOL     OW49437   6.127   2.158   5.532  0.1966  0.0574  0.2059
15999SOL    HW149438   6.091   2.140   5.619 -1.6227  1.7553 -0.1338
15999SOL    HW249439   6.056   2.137   5.472  1.4739 -1.2072 -0.9336
16000SOL     OW49440   1.325   1.271   7.792 -0.0059  0.1225 -0.5392
16000SOL    HW149441   1.245   1.219   7.788  0.2998 -0.5951  1.4248
16000SOL    HW249442   1.389   1.221   7.742 -0.1799 -0.5159 -0.1374
16001SOL     OW49443   4.895   5.766   7.240  0.1146  0.2430  0.5812
16001SOL    HW149444   4.891   5.755   7.145 -1.3358  0.8264  0.5434
16001SOL    HW249445   4.934   5.684   7.271  4.3037  1.5063 -0.7162
16002SOL     OW49446   1.474   5.595   9.531 -0.4799  0.5041 -0.7845
16002SOL    HW149447   1.556   5.635   9.499 -1.2041  1.7140 -1.2064
16002SOL    HW249448   1.444   5.654   9.600 -0.6419 -0.3256 -0.1337
16003SOL     OW49449   7.646   4.290   6.892  0.1541 -0.1885 -0.0709
16003SOL    HW149450   7.699   4.370   6.900 -1.1633  0.6310  0.8659
16003SOL    HW249451   7.643   4.273   6.798  0.0276  1.1724 -0.3370
16004SOL     OW49452   1.937   2.665   5.545  0.1383  0.0989  0.0357
16004SOL    HW149453   1.956   2.591   5.603 -0.6482  0.0677  0.2721
16004SOL    HW249454   1.969   2.742   5.593 -2.7419  0.3754  1.7338
16005SOL     OW49455   4.555   1.586   7.264  0.1124 -0.2694  0.2686
16005SOL    HW149456   4.491   1.574   7.194 -0.4963 -1.1161  0.9384
16005SOL    HW249457   4.555   1.680   7.281 -1.0495 -0.2599  0.3324
16006SOL     OW49458   3.622   7.124   8.439 -0.1925  0.1571 -0.2354
16006SOL    HW149459   3.644   7.074   8.517  1.0312 -1.2960 -1.4497
16006SOL    HW249460   3.539   7.087   8.410 -1.6093  1.9422  1.3282
16007SOL     OW49461   0.721   3.779   1.950 -0.1380 -0.1818  0.1065
16007SOL    HW149462   0.786   3.777   1.879  0.8822  0.7492  0.9735
16007SOL    HW249463   0.638   3.796   1.906  0.2315 -1.0994 -1.0008
16008SOL     OW49464   2.278   1.281   7.052  0.1555  0.3779 -0.5214
16008SOL    HW149465   2.336   1.345   7.012 -1.1622  1.9009 -0.1290
16008SOL    HW249466   2.247   1.324   7.132  0.7585 -1.5622  0.8128
16009SOL     OW49467   5.993   5.006   5.212  0.3581  0.2741  0.0135
16009SOL    HW149468   5.955   5.092   5.227 -0.0245  0.3882 -1.3964
16009SOL    HW249469   6.064   5.022   5.150 -0.0835 -0.4764 -0.7131
16010SOL     OW49470   7.459   0.211  11.625  0.3692  0.3610  0.1844
16010SOL    HW149471   7.472   0.147  11.695  0.6456 -0.9337 -0.9899
16010SOL    HW249472   7.520   0.184  11.556  0.5129  1.9234 -0.3531
16011SOL     OW49473   4.748   4.338   8.427  0.0321  0.2285 -0.2172
16011SOL    HW149474   4.660   4.304   8.411 -0.3595  1.6246 -1.1475
16011SOL    HW249475   4.792   4.330   8.343  1.1221 -1.2624  0.4461
16012SOL     OW49476   3.816   6.336  11.672 -0.2176 -0.1469  0.7688
16012SOL    HW149477   3.760   6.283  11.729  1.9255 -1.5219  1.7029
16012SOL    HW249478   3.844   6.277  11.603 -0.4166  0.7072 -0.0640
16013SOL     OW49479   2.811   6.936   6.445 -0.3475 -0.4278 -0.0820
16013SOL    HW149480   2.769   6.900   6.522 -2.3008  0.1129 -0.8275
16013SOL    HW249481   2.869   6.866   6.414  1.6246 -0.1208  2.6358
16014SOL     OW49482   0.095   6.890   6.878  0.2258  0.0986  0.3393
16014SOL    HW149483   0.158   6.869   6.948  0.2108  0.8572  0.5929
16014SOL    HW249484   0.010   6.894   6.922 -0.5956 -3.9592 -0.4799
16015SOL     OW49485   1.564   7.222  11.634 -0.1725 -0.0243 -0.1746
16015SOL    HW149486   1.638   7.166  11.658 -0.1137 -0.0378 -0.3879
16015SOL    HW249487   1.526   7.180  11.557 -1.3912 -0.9268  0.8547
16016SOL     OW49488   0.887   0.722  10.032  0.2810  0.3103  0.4041
16016SOL    HW149489   0.958   0.744   9.971  0.1483 -0.4081 -0.0227
16016SOL    HW249490   0.906   0.633  10.060  0.0363  0.4369  0.9971
16017SOL     OW49491   6.564   3.885   0.158  0.0810  0.5463 -0.2760
16017SOL    HW149492   6.527   3.796   0.156  2.0941 -0.3621  0.4989
16017SOL    HW249493   6.508   3.932   0.220 -0.9120 -0.2072 -0.5594
16018SOL     OW49494   4.656   7.536   4.186 -0.4456  0.0048  0.4413
16018SOL    HW149495   4.599   7.459   4.178  0.5938 -0.7885  0.4001
16018SOL    HW249496   4.697   7.526   4.272  0.4747 -0.0592  0.0091
16019SOL     OW49497   7.390   6.755   1.274  0.2430  0.1413 -0.6199
16019SOL    HW149498   7.415   6.700   1.348 -1.5103  0.0863 -0.0356
16019SOL    HW249499   7.420   6.706   1.197 -0.9814 -1.5197 -0.1055
16020SOL     OW49500   4.519   0.807   7.480  0.0375  0.0577 -0.0833
16020SOL    HW149501   4.486   0.816   7.569  1.6182 -0.0623  0.5510
16020SOL    HW249502   4.450   0.843   7.425 -0.1748  1.9927  1.3380
16021SOL     OW49503   5.439   4.291   3.918 -0.5995 -0.2215 -0.1542
16021SOL    HW149504   5.420   4.326   3.831  0.4698  0.1926 -0.2268
16021SOL    HW249505   5.425   4.365   3.977  0.6338  0.0473 -0.1934
16022SOL     OW49506   6.773   6.388   8.519  0.0628  0.0699 -0.1356
16022SOL    HW149507   6.799   6.302   8.551 -0.6477  0.1749  0.7704
16022SOL    HW249508   6.682   6.398   8.548 -0.4320  0.4360 -1.6787
16023SOL     OW49509   2.038   1.404   7.492 -0.4106 -0.4714  0.6241
16023SOL    HW149510   2.097   1.392   7.418 -0.2228  1.2760  0.4550
16023SOL    HW249511   2.048   1.496   7.517 -0.7914 -0.8886  2.5431
16024SOL     OW49512   3.807   4.543  11.902  0.4721 -0.0890 -0.0244
16024SOL    HW149513   3.762   4.466  11.936  0.7596 -0.6642 -0.9025
16024SOL    HW249514   3.780   4.548  11.810  0.4773  0.8485  0.0107
16025SOL     OW49515   6.088   1.061   9.513  0.5077 -0.2421 -0.1579
16025SOL    HW149516   6.017   1.116   9.478 -0.6501 -1.0283  0.8664
16025SOL    HW249517   6.168   1.098   9.475 -0.3076  1.5482 -0.2566
16026SOL     OW49518   7.761   6.924  11.931 -0.0992 -0.2584  0.2216
16026SOL    HW149519   7.666   6.920  11.928 -0.0804 -1.6640  0.6777
16026SOL    HW249520   7.781   6.980  12.006 -0.5779 -0.8821  0.8239
16027SOL     OW49521   3.187   2.593   0.133 -0.4496  0.2745  0.0953
16027SOL    HW149522   3.200   2.575   0.226  0.1700  0.0821 -0.0291
16027SOL    HW249523   3.157   2.684   0.130 -0.3200  0.3285  0.4702
16028SOL     OW49524   7.128   5.663   9.971  0.7441 -0.3688  0.2657
16028SOL    HW149525   7.092   5.663  10.060  0.5367  2.5930  0.2602
16028SOL    HW249526   7.063   5.708   9.918  1.4373 -0.9864 -1.1776
16029SOL     OW49527   6.572   0.209   4.504  0.5451  0.4184  0.1283
16029SOL    HW149528   6.477   0.218   4.498  0.6501  0.9107 -1.2139
16029SOL    HW249529   6.587   0.115   4.495  0.1456  0.2167  1.3850
16030SOL     OW49530   7.672   5.383   5.158 -0.0776  0.1135  0.0687
16030SOL    HW149531   7.647   5.445   5.089  0.2493  0.6778  0.4527
16030SOL    HW249532   7.610   5.310   5.148  0.5370 -0.2286 -1.3825
16031SOL     OW49533   0.403   7.393   1.086  0.1205 -0.2236  0.2376
16031SOL    HW149534   0.357   7.425   1.009  0.0504 -0.6155  0.1128
16031SOL    HW249535   0.355   7.429   1.160  0.3921  0.4350  0.0924
16032SOL     OW49536   6.229   1.107   8.627  0.2383 -0.2107  0.2127
16032SOL    HW149537   6.279   1.104   8.545  1.1703  0.9133  0.7187
16032SOL    HW249538   6.202   1.016   8.642  1.9908 -0.8240 -0.1624
16033SOL     OW49539   1.710   5.132   7.000  0.3842  0.1451 -0.4976
16033SOL    HW149540   1.788   5.095   7.040  0.7449 -0.0977 -1.4065
16033SOL    HW249541   1.742   5.205   6.947 -0.1666  0.9164  0.1906
16034SOL     OW49542   3.693   1.147   9.920  0.1779  0.7526 -0.1763
16034SOL    HW149543   3.777   1.157   9.966 -1.3003 -1.5619  3.4458
16034SOL    HW249544   3.633   1.203   9.969 -1.4700 -1.7685  0.8935
16035SOL     OW49545   5.250   5.791  11.243  0.0281  0.1477 -0.2402
16035SOL    HW149546   5.187   5.842  11.193  1.2627  1.7717 -0.2244
16035SOL    HW249547   5.245   5.827  11.332 -0.8282 -1.4591  0.3969
16036SOL     OW49548   5.594   1.804   6.695  0.3703 -0.8006 -0.5838
16036SOL    HW149549   5.611   1.898   6.697  1.9418 -1.0613 -0.2633
16036SOL    HW249550   5.608   1.775   6.785  2.1328 -1.6614 -1.0964
16037SOL     OW49551   3.068   4.481  10.933  0.5076 -0.2696  0.0214
16037SOL    HW149552   3.018   4.510  11.009  0.5381 -0.5492  0.1519
16037SOL    HW249553   3.145   4.538  10.931 -0.2993  0.8179 -0.7678
16038SOL     OW49554   2.494   2.314   6.543 -0.4766  0.2230  0.6141
16038SOL    HW149555   2.541   2.275   6.470 -2.0025  1.4091 -1.0799
16038SOL    HW249556   2.562   2.334   6.607  1.2306  1.1050 -1.3723
16039SOL     OW49557   1.544   7.548  10.574 -0.4654  0.1669 -0.2566
16039SOL    HW149558   1.567   7.465  10.616 -0.4982 -0.2619 -1.0807
16039SOL    HW249559   1.459   7.533  10.533 -0.1821  0.4059 -0.9499
16040SOL     OW49560   3.828   6.615  11.547  0.3669 -0.3331  0.4450
16040SOL    HW149561   3.737   6.637  11.526  1.0066  1.7906 -0.4203
16040SOL    HW249562   3.825   6.526  11.581 -1.9333 -0.5848 -0.2916
16041SOL     OW49563   7.623   6.720   4.575 -0.2543 -0.3669 -0.1220
16041SOL    HW149564   7.561   6.773   4.525 -1.5279 -0.3554  1.3886
16041SOL    HW249565   7.703   6.772   4.577 -0.8437  0.5652 -0.3771
16042SOL     OW49566   5.779   6.417  11.979 -0.1721 -0.4025  0.0849
16042SOL    HW149567   5.818   6.391  11.895 -0.6919 -2.5596  0.4395
16042SOL    HW249568   5.690   6.444  11.956 -0.0542 -0.2074 -0.1476
16043SOL     OW49569   7.359   5.538   9.866  0.1995  0.2012  0.4148
16043SOL    HW149570   7.285   5.582   9.907  0.3045  0.0239  0.8005
16043SOL    HW249571   7.429   5.543   9.931 -0.1213 -1.5118  0.9367
16044SOL     OW49572   2.907   3.938  11.950 -0.4414 -0.4210 -0.4494
16044SOL    HW149573   2.853   3.904  11.879 -0.0206 -1.3523 -0.3316
16044SOL    HW249574   2.987   3.886  11.947  0.5430  1.0372 -0.7242
16045SOL     OW49575   2.424   6.729   2.076  0.2813 -0.1478  0.2577
16045SOL    HW149576   2.451   6.821   2.082 -1.5757  0.3808  1.1019
16045SOL    HW249577   2.495   6.687   2.027  1.5094  1.5809  0.4506
16046SOL     OW49578   2.493   7.556  12.195 -0.4661 -0.0470 -0.6266
16046SOL    HW149579   2.544   7.626  12.236 -0.3658  0.1727 -1.1240
16046SOL    HW249580   2.499   7.483  12.257  2.2185 -0.7697 -1.5537
16047SOL     OW49581   6.489   2.375   3.001  0.3340  0.1763 -0.0087
16047SOL    HW149582   6.461   2.285   2.988 -0.3791  0.1792  1.3386
16047SOL    HW249583   6.468   2.419   2.919  0.9896 -0.9420 -0.8020
16048SOL     OW49584   3.237   7.779   5.187  0.1160 -0.7115  0.1272
16048SOL    HW149585   3.149   7.748   5.163 -0.4922  0.9281  0.0753
16048SOL    HW249586   3.221   7.844   5.255  1.3741 -0.9864  0.7020
16049SOL     OW49587   3.915   4.008   9.637 -0.4633 -0.6828  0.1292
16049SOL    HW149588   3.979   4.078   9.649  0.5573 -1.7186  0.9644
16049SOL    HW249589   3.855   4.041   9.570  0.0423  0.9385  0.4355
16050SOL     OW49590   7.076   6.329   0.360 -0.4199 -0.4361  0.0978
16050SOL    HW149591   6.993   6.332   0.408 -1.1513 -0.0031 -1.1549
16050SOL    HW249592   7.134   6.386   0.410 -1.3242  0.4146  0.2113
16051SOL     OW49593   2.541   6.656   8.284 -0.0742  0.1642  0.3069
16051SOL    HW149594   2.495   6.620   8.360 -0.9324 -1.0559 -0.7431
16051SOL    HW249595   2.482   6.722   8.249  0.0344  0.2758  0.3345
16052SOL     OW49596   2.156   5.768   7.582 -0.3001  0.2888  0.4481
16052SOL    HW149597   2.107   5.704   7.531  0.2649  0.2801 -0.0907
16052SOL    HW249598   2.116   5.765   7.669 -0.1353 -0.9407  0.4890
16053SOL     OW49599   2.347   1.130   5.233  0.0518  0.1645 -0.0862
16053SOL    HW149600   2.343   1.225   5.236  1.7424  0.2432  1.0175
16053SOL    HW249601   2.260   1.103   5.203 -1.5352  1.9263  2.5577
16054SOL     OW49602   0.020   7.749   3.763  0.3951 -0.2066  0.3988
16054SOL    HW149603   0.039   7.806   3.838 -0.9122  1.3259 -0.3700
16054SOL    HW249604   0.002   7.664   3.803  1.5142  0.1123  1.6659
16055SOL     OW49605   5.599   4.839   1.142 -0.0126 -0.1368  0.3349
16055SOL    HW149606   5.644   4.825   1.226  1.6491 -0.6090 -0.5804
16055SOL    HW249607   5.589   4.752   1.105  0.6248  0.1599 -0.5920
16056SOL     OW49608   1.401   1.633   3.538 -0.1862 -0.5369 -0.0923
16056SOL    HW149609   1.315   1.655   3.502 -0.0057 -0.4616 -0.4842
16056SOL    HW249610   1.390   1.641   3.632 -0.4796 -0.0397 -0.1655
16057SOL     OW49611   3.122   3.763   7.486  0.6858  0.2142  0.4639
16057SOL    HW149612   3.045   3.819   7.497  0.2152 -0.3534  0.1847
16057SOL    HW249613   3.096   3.679   7.524  1.7852  0.4890  1.9188
16058SOL     OW49614   3.845   2.594   9.580 -0.0207  0.2821  0.3536
16058SOL    HW149615   3.830   2.595   9.486  1.5896 -0.6264  0.0420
16058SOL    HW249616   3.939   2.612   9.589 -0.0718 -0.0517  1.7522
16059SOL     OW49617   2.512   0.658   1.065 -0.2176  0.1320 -0.0059
16059SOL    HW149618   2.559   0.677   0.984 -0.0991 -2.6724 -0.7088
16059SOL    HW249619   2.452   0.587   1.042 -2.8142  1.6680  1.5563
16060SOL     OW49620   5.111   2.635   7.838 -0.4160 -0.2128  0.0593
16060SOL    HW149621   5.069   2.719   7.817  0.8382  0.3976 -0.1099
16060SOL    HW249622   5.204   2.655   7.838 -0.0676 -1.7684 -0.5812
16061SOL     OW49623   7.464   6.846  11.547 -0.2504 -0.1240 -0.2529
16061SOL    HW149624   7.491   6.874  11.634  0.7142 -1.2988 -0.1507
16061SOL    HW249625   7.398   6.779  11.563  1.2168 -1.6480 -0.3462
16062SOL     OW49626   4.621   6.611  11.859  0.3493  0.4284 -0.4404
16062SOL    HW149627   4.566   6.655  11.923 -0.0320  1.6401 -1.5593
16062SOL    HW249628   4.705   6.598  11.904 -0.5749 -0.7704  1.0254
16063SOL     OW49629   3.153   7.642   8.784  0.0841 -0.7088  0.4978
16063SOL    HW149630   3.121   7.587   8.712  0.0208  0.5916 -0.4998
16063SOL    HW249631   3.245   7.656   8.764 -0.5791  2.0816 -1.0070
16064SOL     OW49632   4.614   1.831  11.636  0.5605  0.1444 -0.3486
16064SOL    HW149633   4.536   1.882  11.616  1.1215  0.8356 -0.8687
16064SOL    HW249634   4.612   1.818  11.731  0.2580  0.9058 -0.2453
16065SOL     OW49635   3.816   4.563   5.870 -0.0573  0.4878 -0.1404
16065SOL    HW149636   3.888   4.542   5.811  0.2261 -1.0118  0.7028
16065SOL    HW249637   3.746   4.502   5.847 -0.1124  0.1997  0.7586
16066SOL     OW49638   5.348   1.864   5.127 -0.1693 -0.1165 -0.0276
16066SOL    HW149639   5.367   1.773   5.107 -0.9305 -0.8079  2.1414
16066SOL    HW249640   5.434   1.906   5.135  0.1838 -0.6579 -0.9055
16067SOL     OW49641   4.792   5.927   8.447  0.2540  0.1605  0.5487
16067SOL    HW149642   4.883   5.949   8.465  0.0463 -0.9987  3.6844
16067SOL    HW249643   4.794   5.842   8.405  0.6335  0.5792 -0.2895
16068SOL     OW49644   5.358   5.140  10.504  0.1966 -0.2091 -0.7608
16068SOL    HW149645   5.402   5.078  10.562  0.2550 -0.3275 -0.9281
16068SOL    HW249646   5.331   5.212  10.561 -0.1264 -0.5215 -0.5126
16069SOL     OW49647   5.102   2.499   1.108  0.3623 -0.3246  0.0239
16069SOL    HW149648   5.108   2.408   1.138  1.3238 -0.1098  0.5144
16069SOL    HW249649   5.014   2.506   1.072  0.5779 -1.7075 -0.8530
16070SOL     OW49650   2.944   6.654   8.919  0.3245 -0.5384 -0.8502
16070SOL    HW149651   2.949   6.674   8.826  1.2548  0.4345 -0.6185
16070SOL    HW249652   2.857   6.683   8.945  0.8881  1.4531 -0.9691
16071SOL     OW49653   3.097   5.255   2.762 -0.2067  0.3786  0.0512
16071SOL    HW149654   3.188   5.265   2.736 -0.1592  0.8664  0.3855
16071SOL    HW249655   3.098   5.184   2.827  0.0296  0.7968  0.5117
16072SOL     OW49656   0.460   0.238   6.947 -0.0701 -0.1746 -0.1194
16072SOL    HW149657   0.492   0.152   6.973 -2.7442 -1.7151 -1.4724
16072SOL    HW249658   0.518   0.264   6.874  3.5410  1.3800  2.9714
16073SOL     OW49659   4.828   0.291   5.536 -0.0866  0.2341 -0.2681
16073SOL    HW149660   4.854   0.354   5.468 -0.3595  1.2115  0.5115
16073SOL    HW249661   4.746   0.253   5.504 -0.9438  1.6881  0.1085
16074SOL     OW49662   0.958   5.259   9.960  0.6618 -0.0841 -0.2503
16074SOL    HW149663   0.936   5.280  10.050 -0.0560 -0.2883 -0.3675
16074SOL    HW249664   0.910   5.323   9.908 -0.0621 -0.8342 -0.5336
16075SOL     OW49665   0.471   3.742   0.989 -0.1575 -0.1218 -0.1302
16075SOL    HW149666   0.537   3.808   1.009 -2.0832  1.8635  0.1203
16075SOL    HW249667   0.446   3.761   0.898  0.5906 -1.7901 -0.7207
16076SOL     OW49668   1.267   2.124   4.486  0.1906  0.7610  0.3054
16076SOL    HW149669   1.226   2.188   4.428  1.3431  0.6942 -0.6275
16076SOL    HW249670   1.336   2.173   4.531  1.1670  0.1938 -0.5120
16077SOL     OW49671   3.990   5.836   1.933  0.2034 -0.0566 -0.3618
16077SOL    HW149672   3.936   5.862   1.859  0.3131  0.7070 -0.1880
16077SOL    HW249673   4.059   5.782   1.895 -0.2098 -0.3455 -0.7001
16078SOL     OW49674   2.578   0.300  11.385 -0.5664  0.1835 -0.3032
16078SOL    HW149675   2.674   0.295  11.386 -0.5880 -0.2913 -0.1564
16078SOL    HW249676   2.559   0.391  11.364 -0.0841  0.1304 -1.0012
16079SOL     OW49677   7.211   4.238   4.009 -0.0071  0.5284  0.4064
16079SOL    HW149678   7.234   4.178   3.938  0.4658  0.5889  0.5069
16079SOL    HW249679   7.294   4.279   4.034 -0.0085 -0.1870  1.6429
16080SOL     OW49680   3.495   7.800   2.564 -0.2300 -0.4294 -0.1371
16080SOL    HW149681   3.466   7.712   2.586 -1.9868 -0.1312 -1.1149
16080SOL    HW249682   3.421   7.856   2.584  0.6162  0.7480 -0.1827
16081SOL     OW49683   5.088   5.877   7.388 -0.1754 -0.1313  0.2771
16081SOL    HW149684   5.010   5.888   7.334 -0.3708 -0.4684  0.4812
16081SOL    HW249685   5.119   5.788   7.368  0.6592  0.3060 -0.4423
16082SOL     OW49686   5.063   7.495  10.609 -0.0239  0.0844 -0.5916
16082SOL    HW149687   4.968   7.488  10.606 -0.0091  0.1812 -2.8691
16082SOL    HW249688   5.086   7.547  10.532  1.9257 -0.5186 -0.4693
16083SOL     OW49689   7.743   7.463  11.666 -0.0111  0.8164  0.2353
16083SOL    HW149690   7.793   7.468  11.584 -1.2046 -0.9320 -0.6409
16083SOL    HW249691   7.664   7.514  11.649 -0.3538  0.2840  0.2270
16084SOL     OW49692   5.839   2.752   4.270 -0.1236 -0.2987  0.3411
16084SOL    HW149693   5.785   2.798   4.207  0.7101  0.7142  0.3332
16084SOL    HW249694   5.926   2.792   4.262 -0.0617  0.0957  2.3427
16085SOL     OW49695   0.941   4.278   1.042  0.1544 -0.2408  0.2838
16085SOL    HW149696   0.916   4.203   0.988 -1.1301  0.4709 -0.1338
16085SOL    HW249697   0.964   4.347   0.979 -0.0251  0.1579  0.6516
16086SOL     OW49698   6.453   7.579  10.590 -0.2501  0.2286 -0.0960
16086SOL    HW149699   6.389   7.512  10.565  1.6398 -1.0986 -1.7164
16086SOL    HW249700   6.499   7.541  10.664  0.0480  0.2360 -0.2756
16087SOL     OW49701   2.557   2.031  11.011 -0.2938  0.1543 -0.1607
16087SOL    HW149702   2.478   2.069  10.972  1.3272  3.3625 -0.6045
16087SOL    HW249703   2.566   1.946  10.968 -2.9911  0.0257 -0.6803
16088SOL     OW49704   4.379   1.933   1.079 -0.0757  0.9732 -0.5061
16088SOL    HW149705   4.434   1.909   1.153 -1.6680  0.8995  0.7009
16088SOL    HW249706   4.374   1.853   1.026  0.1696  0.6872 -0.1023
16089SOL     OW49707   5.830   5.154   6.669 -0.4318  0.1869  0.0714
16089SOL    HW149708   5.854   5.180   6.580 -2.1876 -0.5760 -0.6697
16089SOL    HW249709   5.764   5.219   6.696  0.3569  0.6346  0.9797
16090SOL     OW49710   5.338   6.531   9.226 -0.7708 -0.5940 -0.0818
16090SOL    HW149711   5.418   6.569   9.189  0.4205 -2.0503  0.8602
16090SOL    HW249712   5.319   6.455   9.170 -1.2246 -0.5388 -0.0094
16091SOL     OW49713   3.667   5.110   9.322 -0.2487  0.1859 -0.1721
16091SOL    HW149714   3.582   5.148   9.346 -0.1982  1.2119 -1.5092
16091SOL    HW249715   3.729   5.182   9.333  0.4521 -0.5236  0.6686
16092SOL     OW49716   2.698   6.486   1.358 -0.0694  0.1425 -0.6225
16092SOL    HW149717   2.730   6.506   1.446  0.1658  0.6469 -0.8171
16092SOL    HW249718   2.777   6.465   1.308 -0.1632  0.2436 -0.8140
16093SOL     OW49719   7.496   6.637   6.969 -0.1165 -0.3914 -0.6344
16093SOL    HW149720   7.565   6.625   7.034  1.4209  0.2942 -2.0525
16093SOL    HW249721   7.454   6.719   6.993  0.6019 -0.0151 -0.6260
16094SOL     OW49722   0.988   1.434   9.946  0.7289  0.4565 -0.4358
16094SOL    HW149723   0.900   1.407   9.974  0.5062  2.0003  0.5374
16094SOL    HW249724   0.979   1.528   9.928  2.0457  0.5085 -0.9119
16095SOL     OW49725   7.924   2.539   2.045  0.1322  0.4328 -0.6452
16095SOL    HW149726   7.955   2.449   2.058  1.1428  0.9516  0.9125
16095SOL    HW249727   7.986   2.576   1.983 -0.7850 -0.1632 -1.9523
16096SOL     OW49728   4.073   4.519  11.813  0.1045 -0.4997  0.4180
16096SOL    HW149729   3.985   4.539  11.846  0.1567 -0.2452  0.4069
16096SOL    HW249730   4.104   4.602  11.777  0.7451 -0.3355  1.3235
16097SOL     OW49731   3.621   2.974   5.153  0.2331  0.1056 -0.5578
16097SOL    HW149732   3.692   2.987   5.215  0.1026 -1.5329 -0.0052
16097SOL    HW249733   3.557   2.920   5.200 -0.1017 -0.7602 -1.9323
16098SOL     OW49734   6.477   3.135   9.550  0.3750  0.2461  0.0065
16098SOL    HW149735   6.434   3.063   9.597  2.2179 -0.9417 -0.0469
16098SOL    HW249736   6.568   3.133   9.581  0.3717  2.9306  0.4046
16099SOL     OW49737   7.201   6.101   0.237 -0.5269 -0.2724  0.2543
16099SOL    HW149738   7.174   6.189   0.262  1.6390  0.5530 -0.0306
16099SOL    HW249739   7.296   6.101   0.251 -0.3980 -2.3878 -0.2973
16100SOL     OW49740   1.252   7.599   3.434 -0.0662  0.2957  0.1455
16100SOL    HW149741   1.164   7.592   3.396 -0.6944 -0.3721  1.6265
16100SOL    HW249742   1.265   7.516   3.481  1.3466  0.4062 -0.0017
16101SOL     OW49743   3.069   2.000   2.566 -0.4903 -0.0856  0.4476
16101SOL    HW149744   3.111   1.920   2.596  0.8863  0.5261  0.2316
16101SOL    HW249745   3.080   2.062   2.638  1.2783  0.8491 -0.5488
16102SOL     OW49746   0.052   6.432   7.939 -0.1246 -0.5423  0.3443
16102SOL    HW149747   0.130   6.483   7.959  0.0088 -0.8656  0.6581
16102SOL    HW249748  -0.007   6.448   8.012 -1.1428  1.2189 -0.7862
16103SOL     OW49749   5.042   0.316   6.007 -0.5771  0.1900  0.2826
16103SOL    HW149750   5.060   0.230   6.045 -0.3410  1.2114  2.6663
16103SOL    HW249751   4.999   0.297   5.924  1.8300 -2.2455 -0.5459
16104SOL     OW49752   1.056   2.859   9.999  0.0292 -0.2992 -0.4411
16104SOL    HW149753   1.128   2.869   9.936 -0.9545  1.6825 -1.3203
16104SOL    HW249754   0.988   2.814   9.950 -0.2261  0.0069 -0.3690
16105SOL     OW49755   1.610   3.849   6.188  0.2199  0.0777  0.6087
16105SOL    HW149756   1.614   3.913   6.259 -0.5245  1.6811 -0.7048
16105SOL    HW249757   1.536   3.793   6.210 -0.7465  1.2933  0.5603
16106SOL     OW49758   2.087   0.158   4.761 -0.1520 -0.3270  0.0433
16106SOL    HW149759   2.003   0.154   4.716  0.5477 -2.3894 -1.2081
16106SOL    HW249760   2.147   0.106   4.707  1.2962 -1.0975  2.1951
16107SOL     OW49761   7.227   0.264   4.704 -0.0758  0.5676 -0.4228
16107SOL    HW149762   7.227   0.323   4.779 -0.9128 -1.6071  1.4280
16107SOL    HW249763   7.319   0.258   4.678  0.0400  2.4990 -0.5891
16108SOL     OW49764   1.122   2.653  10.836  0.4996 -0.1719  0.2912
16108SOL    HW149765   1.182   2.654  10.762 -0.2625 -1.0440 -0.3683
16108SOL    HW249766   1.177   2.672  10.912  1.3886  0.2078 -0.4291
16109SOL     OW49767   5.024   0.099   5.831  0.3324 -0.8269 -0.0927
16109SOL    HW149768   5.066   0.110   5.746  0.3637 -3.3175 -0.4933
16109SOL    HW249769   4.964   0.173   5.839  1.3525  0.2055 -1.6312
16110SOL     OW49770   4.386   3.908   2.197  0.2227  0.4323  0.5827
16110SOL    HW149771   4.352   3.920   2.286 -0.5462  0.1702  0.3256
16110SOL    HW249772   4.346   3.979   2.147 -0.0647  0.0289  0.2432
16111SOL     OW49773   0.128   1.268  11.270 -0.3050 -0.0110 -0.0509
16111SOL    HW149774   0.191   1.196  11.265  1.6407  1.5958  0.1007
16111SOL    HW249775   0.127   1.306  11.183 -0.5498  0.4050  0.1287
16112SOL     OW49776   3.820   2.378   2.818 -0.0695  0.2599 -0.0347
16112SOL    HW149777   3.815   2.456   2.874  1.5971  0.4724 -0.0996
16112SOL    HW249778   3.836   2.413   2.730 -1.0150 -0.1175 -0.3639
16113SOL     OW49779   6.007   2.744  12.461  0.5578 -0.1948  0.4484
16113SOL    HW149780   5.931   2.690  12.439  1.8637 -1.9979  0.1595
16113SOL    HW249781   5.973   2.808  12.524 -0.6950 -2.5961  2.3984
16114SOL     OW49782   7.128   6.619   8.899 -0.0073  0.0690  0.0516
16114SOL    HW149783   7.181   6.699   8.893  0.1711  0.2247  2.6034
16114SOL    HW249784   7.179   6.561   8.955 -0.8940 -1.2255 -0.4351
16115SOL     OW49785   5.511   1.038   1.773 -0.2927  0.2450 -0.8673
16115SOL    HW149786   5.510   0.989   1.691  0.6180 -0.1410 -0.6614
16115SOL    HW249787   5.428   1.014   1.816  1.3056 -3.5077  0.5576
16116SOL     OW49788   2.171   5.441   4.068  0.1758 -0.6972 -0.1970
16116SOL    HW149789   2.176   5.452   4.163  1.5647 -1.4505 -0.1578
16116SOL    HW249790   2.197   5.350   4.053 -0.1852 -0.6328 -1.2970
16117SOL     OW49791   1.790   4.065   7.100  0.2355  0.0369  0.0347
16117SOL    HW149792   1.754   4.137   7.047  0.4493  2.4311  2.8855
16117SOL    HW249793   1.880   4.091   7.118  0.1238 -0.5804  1.6693
16118SOL     OW49794   6.585   5.270   1.000 -1.1275 -0.2873 -0.1381
16118SOL    HW149795   6.594   5.215   1.078  1.0182 -0.0099 -0.1365
16118SOL    HW249796   6.641   5.345   1.017 -0.4328 -0.3293 -2.0168
16119SOL     OW49797   5.718   3.715   8.848  0.3631  0.6248 -0.3647
16119SOL    HW149798   5.643   3.680   8.801 -0.2209 -0.8704  1.5629
16119SOL    HW249799   5.792   3.663   8.817 -0.0460 -0.4744  0.4377
16120SOL     OW49800   6.978   7.215  11.201  0.0576 -0.3620 -0.5600
16120SOL    HW149801   6.983   7.176  11.114 -1.3386  0.8809 -1.2411
16120SOL    HW249802   7.070   7.221  11.230  0.4452 -2.0667 -1.3182
16121SOL     OW49803   2.190   1.844  11.338  0.6559  0.1624  0.0025
16121SOL    HW149804   2.250   1.802  11.276 -0.7822 -1.5260 -0.3273
16121SOL    HW249805   2.125   1.777  11.358  0.1969  1.1715  2.1744
16122SOL     OW49806   4.215   3.075   9.212 -0.3076  0.8033 -0.1694
16122SOL    HW149807   4.124   3.049   9.195 -0.0236  0.1772 -0.7657
16122SOL    HW249808   4.216   3.170   9.197 -0.8685  0.8230 -0.1071
16123SOL     OW49809   3.389   0.695   0.149  0.3399  0.0498  0.6742
16123SOL    HW149810   3.301   0.704   0.112  0.4505 -0.3059  0.3203
16123SOL    HW249811   3.408   0.602   0.143  0.7562  0.1319  0.7121
16124SOL     OW49812   1.601   6.256   2.151 -0.1181  0.8252  0.2166
16124SOL    HW149813   1.616   6.308   2.072 -0.0038  0.8904  0.2813
16124SOL    HW249814   1.687   6.247   2.191 -0.4241  2.3760  1.3176
16125SOL     OW49815   5.880   7.860   8.932  0.3029  0.6259  0.1732
16125SOL    HW149816   5.802   7.835   8.882  0.0921 -0.0255  0.8167
16125SOL    HW249817   5.942   7.891   8.866 -0.6051  1.4451 -0.3205
16126SOL     OW49818   5.995   5.412  11.439 -0.1047  0.3162 -0.2964
16126SOL    HW149819   5.975   5.324  11.472  2.9213 -0.3016  0.1659
16126SOL    HW249820   6.038   5.398  11.355 -0.4057  1.4432 -0.6638
16127SOL     OW49821   0.197   2.348   5.563  0.2014 -0.5237  0.6758
16127SOL    HW149822   0.281   2.309   5.586  0.2505 -0.0974  1.2259
16127SOL    HW249823   0.196   2.347   5.467  0.7603 -0.6847  0.6697
16128SOL     OW49824   0.095   3.031   7.131 -0.2054 -0.4153  0.2430
16128SOL    HW149825   0.070   3.079   7.053 -1.6869 -1.4340  0.0400
16128SOL    HW249826   0.070   2.940   7.112  3.4089 -1.5325  0.1923
16129SOL     OW49827   0.955   4.221  12.160 -0.6280 -0.0141 -0.9326
16129SOL    HW149828   0.982   4.308  12.190 -0.0677 -0.1887 -0.9140
16129SOL    HW249829   0.882   4.197  12.218 -1.3417  0.7846 -1.4811
16130SOL     OW49830   4.194   4.737  11.664 -0.2813 -0.1540 -0.0227
16130SOL    HW149831   4.239   4.723  11.581 -0.2477 -0.2510  0.0125
16130SOL    HW249832   4.122   4.796  11.642 -1.8686 -2.2256 -0.6278
16131SOL     OW49833   4.459   3.759  11.167 -0.6717  0.0867 -0.2693
16131SOL    HW149834   4.384   3.781  11.112 -0.6923 -0.7524 -0.5959
16131SOL    HW249835   4.440   3.670  11.198  0.0835 -0.0535 -0.1949
16132SOL     OW49836   1.680   4.577  11.059 -0.3171 -0.1508 -0.0273
16132SOL    HW149837   1.727   4.495  11.046 -0.1001 -0.1788  0.8969
16132SOL    HW249838   1.613   4.577  10.991  2.2156  0.8257 -2.7163
16133SOL     OW49839   5.852   4.502   7.031 -0.3696 -0.2025 -0.0349
16133SOL    HW149840   5.869   4.556   7.108  1.3441 -1.3155  0.4301
16133SOL    HW249841   5.921   4.525   6.969 -1.7205  0.6637 -1.2685
16134SOL     OW49842   5.511   4.691   6.180 -0.3861 -0.1247  0.0843
16134SOL    HW149843   5.479   4.612   6.135  0.4419 -1.6464  2.0196
16134SOL    HW249844   5.577   4.727   6.121 -0.4048 -1.1831 -0.6169
16135SOL     OW49845   3.694   0.863   8.590 -0.1330  0.1912  0.0491
16135SOL    HW149846   3.701   0.832   8.681  0.0599 -0.3357 -0.1462
16135SOL    HW249847   3.666   0.955   8.599  1.8106  0.7759  0.7067
16136SOL     OW49848   0.885   6.070   3.404  0.2682  0.4343 -0.1383
16136SOL    HW149849   0.862   6.015   3.329 -0.5438  0.5505  0.0178
16136SOL    HW249850   0.804   6.117   3.425  0.8340  1.3668  0.0091
16137SOL     OW49851   3.395   4.869  11.990 -0.3442  0.3078  0.0578
16137SOL    HW149852   3.362   4.916  11.913 -0.2062  1.0862  0.4614
16137SOL    HW249853   3.424   4.785  11.956  0.2838  0.8749 -0.8590
16138SOL     OW49854   6.318   6.074   0.593  0.2165 -0.0909  0.0401
16138SOL    HW149855   6.297   6.165   0.571 -1.0581 -0.1140  1.0599
16138SOL    HW249856   6.329   6.074   0.688  1.5016 -0.7835 -0.0750
16139SOL     OW49857   4.280   5.108   3.405 -0.3895 -0.1970  0.1608
16139SOL    HW149858   4.306   5.078   3.492  0.2323  2.3956  0.9595
16139SOL    HW249859   4.185   5.109   3.408 -0.3932  1.9203  1.6726
16140SOL     OW49860   3.094   1.492   6.178  0.5480  0.8791  0.0172
16140SOL    HW149861   3.081   1.400   6.157  2.3519  0.4721  0.5168
16140SOL    HW249862   3.159   1.522   6.115 -1.5671  2.4593 -1.5795
16141SOL     OW49863   4.051   6.328  10.425 -0.3657 -0.1746  0.5307
16141SOL    HW149864   4.059   6.367  10.338 -0.9811  0.0095  0.5529
16141SOL    HW249865   4.141   6.316  10.455  0.1017 -3.7900 -1.7147
16142SOL     OW49866   3.256   0.758   0.488  0.1071  0.5240 -0.6159
16142SOL    HW149867   3.224   0.817   0.556  1.3894  1.8948 -1.1488
16142SOL    HW249868   3.180   0.742   0.433 -0.9425 -0.5670  1.0437
16143SOL     OW49869   7.484   6.707  11.203 -0.0073  0.2292 -0.4617
16143SOL    HW149870   7.524   6.622  11.223 -1.0469 -0.4364 -1.0916
16143SOL    HW249871   7.446   6.736  11.286 -0.6414 -0.4940 -0.4814
16144SOL     OW49872   3.550   6.978  10.555  0.3568  0.1706 -0.4705
16144SOL    HW149873   3.486   6.964  10.485 -1.1103  0.4773  0.7527
16144SOL    HW249874   3.598   7.057  10.528  1.0284 -0.7054 -1.9440
16145SOL     OW49875   2.325   2.482   6.285  0.3917  0.1620  0.0997
16145SOL    HW149876   2.388   2.547   6.315  0.9050  0.4936 -1.5864
16145SOL    HW249877   2.378   2.414   6.245 -0.1659 -1.1611  1.5137
16146SOL     OW49878   7.280   5.313   8.983  0.5620  0.5884  0.2075
16146SOL    HW149879   7.253   5.299   9.073  0.3888 -0.6233 -0.0211
16146SOL    HW249880   7.199   5.340   8.938  0.4381  0.2062  0.2032
16147SOL     OW49881   2.105   3.701   7.034 -0.2142 -0.6672 -0.0518
16147SOL    HW149882   2.178   3.757   7.009 -1.3349  2.3006  2.5805
16147SOL    HW249883   2.040   3.714   6.965  0.0262  0.3699 -0.1041
16148SOL     OW49884   3.240   2.471   1.356  0.2429 -0.0697  0.7643
16148SOL    HW149885   3.144   2.477   1.350  0.3248  1.9169  0.7838
16148SOL    HW249886   3.258   2.472   1.450  0.2813 -1.0479  0.7797
16149SOL     OW49887   2.735   1.101   8.279 -0.3520 -0.3985 -0.0180
16149SOL    HW149888   2.686   1.130   8.356  0.8067  0.3024  0.4731
16149SOL    HW249889   2.763   1.181   8.236 -1.3375 -0.7695 -1.4426
16150SOL     OW49890   5.890   4.162   4.301  0.5345 -0.1505  0.8850
16150SOL    HW149891   5.920   4.166   4.392 -0.1681 -1.4013  1.1928
16150SOL    HW249892   5.818   4.225   4.297  0.8482  0.2256  1.0752
16151SOL     OW49893   7.026   2.976   9.930 -0.1476 -0.4648  0.6069
16151SOL    HW149894   6.947   2.927   9.906 -0.2473  0.4671 -1.1946
16151SOL    HW249895   7.096   2.934   9.879  0.2438 -0.3549  1.0482
16152SOL     OW49896   5.758   6.575  12.393 -0.1432 -0.5876 -0.2748
16152SOL    HW149897   5.708   6.494  12.382 -2.6459  0.9896 -1.5559
16152SOL    HW249898   5.720   6.616  12.471  0.2436 -0.0538 -0.3639
16153SOL     OW49899   6.201   0.078  10.817  0.1281 -0.5083  0.0401
16153SOL    HW149900   6.273   0.141  10.815  0.2418 -0.6159  0.6517
16153SOL    HW249901   6.243  -0.007  10.798  0.1642 -0.5641  0.3522
16154SOL     OW49902   5.075   4.335   2.026 -0.1027 -0.6148  0.7322
16154SOL    HW149903   5.046   4.244   2.028  0.5411 -0.8999 -0.9959
16154SOL    HW249904   5.004   4.382   1.984  0.3848 -0.6918 -0.2094
16155SOL     OW49905   1.167   0.260   4.500  0.0564 -0.2794  0.5784
16155SOL    HW149906   1.125   0.339   4.465  0.6878 -0.0877  0.2300
16155SOL    HW249907   1.246   0.293   4.544 -0.4192 -0.5762  1.6939
16156SOL     OW49908   3.088   3.033   3.095  0.4941  0.0197  1.1333
16156SOL    HW149909   3.163   3.037   3.035 -2.2549 -0.7548 -2.7621
16156SOL    HW249910   3.090   2.944   3.130 -0.5960 -1.4757 -2.1504
16157SOL     OW49911   0.296   5.012   5.111  0.0013  0.4655 -0.4054
16157SOL    HW149912   0.308   5.106   5.104 -1.5811  0.7527  0.3861
16157SOL    HW249913   0.224   4.992   5.051 -1.0201  0.1026  0.8868
16158SOL     OW49914   7.829   0.397  11.325 -0.9003 -0.1558  0.0736
16158SOL    HW149915   7.896   0.431  11.384 -1.1939 -0.1120  0.3865
16158SOL    HW249916   7.746   0.422  11.366 -1.1400 -1.5270  0.4948
16159SOL     OW49917   2.748   7.685   5.153 -0.3711  0.1507 -0.4444
16159SOL    HW149918   2.744   7.779   5.173 -1.1394  0.5020 -2.0350
16159SOL    HW249919   2.678   7.646   5.205 -0.9931  0.7110 -0.8321
16160SOL     OW49920   2.248   4.956   6.711  0.1251  0.4572  0.0676
16160SOL    HW149921   2.172   5.001   6.748  0.2443  0.1402  0.7135
16160SOL    HW249922   2.232   4.956   6.616 -0.8774  0.0355  0.2226
16161SOL     OW49923   2.585   7.473   6.247  0.3133 -0.0957 -0.3241
16161SOL    HW149924   2.613   7.495   6.335 -1.8779  1.2936  0.1095
16161SOL    HW249925   2.548   7.385   6.255  1.2568 -0.4859 -0.1522
16162SOL     OW49926   7.367   5.890   8.353 -0.1729 -0.6661  0.3121
16162SOL    HW149927   7.279   5.859   8.331 -0.4288  0.1675  0.1385
16162SOL    HW249928   7.353   5.960   8.417  0.2006  0.9592 -1.2969
16163SOL     OW49929   1.106   7.465   3.978 -0.1233 -0.6252 -0.3500
16163SOL    HW149930   1.114   7.399   3.909 -0.6402 -1.4593  0.3627
16163SOL    HW249931   1.077   7.543   3.932 -0.1659 -1.0829 -1.1275
16164SOL     OW49932   6.211   0.406   9.921 -0.3227  0.1508  0.3734
16164SOL    HW149933   6.174   0.410  10.010  0.2090  1.7671  0.5603
16164SOL    HW249934   6.149   0.455   9.867 -0.6197 -0.7880 -0.1559
16165SOL     OW49935   4.640   5.292   9.507 -0.1410 -0.1879 -0.5479
16165SOL    HW149936   4.592   5.333   9.436 -2.0074  0.5487  1.0380
16165SOL    HW249937   4.721   5.342   9.514 -0.0857 -0.0566 -1.8904
16166SOL     OW49938   4.692   6.736   5.403  0.4592 -0.4836 -0.4130
16166SOL    HW149939   4.721   6.803   5.342 -1.8076  1.6115  0.6468
16166SOL    HW249940   4.728   6.763   5.487  0.0017 -0.9175 -0.0711
16167SOL     OW49941   5.302   7.411  11.129 -0.6549  0.0059 -0.1143
16167SOL    HW149942   5.377   7.470  11.127 -0.5683 -0.1190 -0.6439
16167SOL    HW249943   5.237   7.456  11.184 -1.1487  1.2736 -1.6828
16168SOL     OW49944   2.765   5.252   1.334 -0.2215 -0.4786 -0.3421
16168SOL    HW149945   2.837   5.261   1.397  2.0032 -2.9167 -2.2687
16168SOL    HW249946   2.701   5.197   1.378  0.1528 -0.1258  0.6645
16169SOL     OW49947   4.889   1.689   2.490  0.6202  0.0294  0.3158
16169SOL    HW149948   4.869   1.609   2.538  0.5985  0.3926  0.9165
16169SOL    HW249949   4.836   1.683   2.411 -0.6352  0.2068  1.1189
16170SOL     OW49950   3.108   7.938   5.346  0.2417  0.1231  0.2682
16170SOL    HW149951   3.016   7.963   5.338  0.8958  2.9317  0.4484
16170SOL    HW249952   3.113   7.891   5.430 -1.0102 -0.0913  0.2368
16171SOL     OW49953   2.538   0.539   6.859  0.0137 -0.9296  0.0432
16171SOL    HW149954   2.506   0.519   6.772 -0.6521  1.1884 -0.2633
16171SOL    HW249955   2.461   0.536   6.915 -0.2452  1.1802 -0.1335
16172SOL     OW49956   2.318   6.041  11.771 -0.2394 -0.2718  0.0648
16172SOL    HW149957   2.273   5.968  11.814 -1.6474  0.3829 -0.2258
16172SOL    HW249958   2.295   6.118  11.824  0.8653  0.0382  0.1218
16173SOL     OW49959   2.887   5.008  12.352 -0.4018  0.4667 -0.4492
16173SOL    HW149960   2.802   4.999  12.309 -0.6886  2.6869 -0.4311
16173SOL    HW249961   2.945   5.043  12.284 -0.2645  1.7467  0.2838
16174SOL     OW49962   5.229   0.136   1.825 -0.0123  0.0880  0.0963
16174SOL    HW149963   5.311   0.101   1.858 -1.6235 -1.4869  2.8407
16174SOL    HW249964   5.171   0.059   1.819 -1.4732  1.2186 -1.2163
16175SOL     OW49965   2.833   7.137   9.270 -0.2958 -0.1754  0.1601
16175SOL    HW149966   2.813   7.115   9.361 -0.9361  0.5076  0.1993
16175SOL    HW249967   2.843   7.053   9.226 -1.0338 -0.5256  0.6380
16176SOL     OW49968   7.234   1.291   6.511 -0.1349 -0.3113  0.3437
16176SOL    HW149969   7.225   1.360   6.577 -0.3558  0.4454 -0.4544
16176SOL    HW249970   7.274   1.336   6.436 -1.5130 -0.7278 -0.6748
16177SOL     OW49971   7.038   3.477   9.683  0.3060  0.0982 -0.2882
16177SOL    HW149972   7.103   3.411   9.708 -0.6273 -0.9937 -0.6833
16177SOL    HW249973   7.060   3.499   9.592 -0.6114 -1.1898 -0.8377
16178SOL     OW49974   7.577   0.157   7.985 -0.2533 -0.0920 -0.0782
16178SOL    HW149975   7.534   0.107   8.055 -0.4399  1.2095  0.7722
16178SOL    HW249976   7.597   0.242   8.025  5.0503 -1.1712  0.4249
16179SOL     OW49977   2.726   4.233   3.773 -0.2706  0.0894  0.4758
16179SOL    HW149978   2.790   4.164   3.760  1.4302  1.5524  0.7618
16179SOL    HW249979   2.724   4.248   3.867 -2.6637 -1.3599  0.7443
16180SOL     OW49980   3.117   0.783   3.856  0.3503  0.2586  0.0517
16180SOL    HW149981   3.059   0.715   3.892 -0.8393  0.7787 -0.8067
16180SOL    HW249982   3.146   0.832   3.932 -1.6531  0.9734  0.4185
16181SOL     OW49983   6.333   5.853   9.373  0.2547 -0.2633  0.2026
16181SOL    HW149984   6.252   5.894   9.341  0.3183  0.6357  1.1494
16181SOL    HW249985   6.399   5.876   9.307  0.2459  1.0312  0.6186
16182SOL     OW49986   6.697   5.106  10.186  0.0765 -0.0131 -0.1537
16182SOL    HW149987   6.621   5.163  10.183  1.2257  1.5889  0.1610
16182SOL    HW249988   6.709   5.086  10.279 -0.4377 -0.9701 -0.2777
16183SOL     OW49989   3.466   1.634  11.936  0.2299  0.1882 -0.7501
16183SOL    HW149990   3.502   1.723  11.925 -0.8136  0.5608 -1.2719
16183SOL    HW249991   3.405   1.641  12.009  1.6768 -0.6082  0.5985
16184SOL     OW49992   3.621   7.620   1.715 -0.4100 -0.4904  0.0379
16184SOL    HW149993   3.616   7.665   1.630 -1.5169 -0.7383 -0.0542
16184SOL    HW249994   3.531   7.589   1.730 -0.5749  0.7912  1.9836
16185SOL     OW49995   6.254   7.569   8.082 -0.5028 -0.5846 -0.1571
16185SOL    HW149996   6.244   7.534   8.171  0.3025 -0.5872 -0.0614
16185SOL    HW249997   6.232   7.495   8.025 -0.9376 -0.6072  0.0379
16186SOL     OW49998   0.372   2.285   7.348 -0.0267 -0.0719 -0.5282
16186SOL    HW149999   0.279   2.309   7.348  0.1613  0.8706 -2.3707
16186SOL    HW250000   0.373   2.194   7.377 -1.4593  0.0884  0.1156
16187SOL     OW50001   6.702   5.315  11.815  0.0032 -0.5441  0.5521
16187SOL    HW150002   6.621   5.364  11.805  0.1049 -0.5003 -0.1467
16187SOL    HW250003   6.749   5.331  11.733  0.7337 -0.5354  0.9633
16188SOL     OW50004   2.113   0.553   9.173 -0.5124  0.1482  0.2870
16188SOL    HW150005   2.029   0.525   9.135  0.2784 -0.5971 -0.9834
16188SOL    HW250006   2.163   0.473   9.183  0.9788  0.8001 -1.3516
16189SOL     OW50007   7.549   2.929   7.549 -0.1098  0.4204 -0.1108
16189SOL    HW150008   7.487   2.957   7.483  1.0069  0.7325 -1.0590
16189SOL    HW250009   7.548   2.999   7.614 -1.8638 -0.2992  0.7139
16190SOL     OW50010   6.522   7.949   0.106  0.0033 -0.2374  0.1674
16190SOL    HW150011   6.428   7.938   0.120 -0.1415 -0.3073 -0.7774
16190SOL    HW250012   6.558   7.861   0.114  0.3907  0.0790  3.0313
16191SOL     OW50013   2.178   5.120  11.635  0.2851  0.1436 -0.5052
16191SOL    HW150014   2.157   5.027  11.641  0.6337  0.0307 -0.9988
16191SOL    HW250015   2.104   5.164  11.676  0.0389 -0.3455 -0.4231
16192SOL     OW50016   7.574   7.627   4.273  0.4579 -0.1022  0.8204
16192SOL    HW150017   7.514   7.617   4.199  0.0105  1.8373  0.8646
16192SOL    HW250018   7.660   7.644   4.232  0.5235 -0.5476  0.7641
16193SOL     OW50019   0.648   1.276   7.537 -0.0709  0.6906  0.6133
16193SOL    HW150020   0.567   1.327   7.545 -0.2409  0.7308 -1.0240
16193SOL    HW250021   0.649   1.221   7.615 -2.1445  0.0678  0.2782
16194SOL     OW50022   7.706   0.073   3.609 -0.0749 -0.4208 -0.1942
16194SOL    HW150023   7.653   0.112   3.539  0.7293  0.2787 -0.4299
16194SOL    HW250024   7.783   0.038   3.564 -0.4302 -1.6582  0.1143
16195SOL     OW50025   6.968   0.742   8.382  0.2347  0.1671  0.6717
16195SOL    HW150026   6.962   0.649   8.360  0.7487  0.1227  0.7237
16195SOL    HW250027   7.006   0.744   8.470  2.0162  0.4782 -0.0630
16196SOL     OW50028   3.421   1.535   0.171 -0.5331  0.6330  0.2144
16196SOL    HW150029   3.491   1.582   0.217 -0.4939  0.3768  0.4158
16196SOL    HW250030   3.343   1.551   0.224 -1.0590  2.5206 -1.0066
16197SOL     OW50031   0.465   1.339   4.967  0.0878  0.1079  0.1052
16197SOL    HW150032   0.448   1.422   4.922 -1.8071 -0.0288  0.4769
16197SOL    HW250033   0.516   1.363   5.044 -0.6716  0.9914  0.3514
16198SOL     OW50034   1.148   6.062   5.910  0.3475 -0.0861  0.3777
16198SOL    HW150035   1.198   6.120   5.967  2.3535  0.0573 -1.4171
16198SOL    HW250036   1.110   6.120   5.844  0.3852 -0.5658 -0.0670
16199SOL     OW50037   5.057   4.254   8.432  0.2755 -0.0923  0.1646
16199SOL    HW150038   4.968   4.241   8.401  0.1760  0.0444  0.3851
16199SOL    HW250039   5.063   4.348   8.450  0.0993 -0.2746  1.2322
16200SOL     OW50040   3.777   5.782   5.034 -0.6497 -0.0760  0.2067
16200SOL    HW150041   3.690   5.764   4.998 -0.9425  2.4837 -0.6286
16200SOL    HW250042   3.835   5.784   4.958  0.0466 -1.1814  0.6901
16201SOL     OW50043   7.832   7.671  11.911  0.3240 -0.1463 -0.3132
16201SOL    HW150044   7.914   7.641  11.951 -0.2892 -0.2212  0.9408
16201SOL    HW250045   7.859   7.742  11.852  1.2640  0.0563  0.3337
16202SOL     OW50046   2.569   1.817   6.369  0.1786  1.1092 -0.3868
16202SOL    HW150047   2.619   1.756   6.424 -0.2254  1.8367  0.8225
16202SOL    HW250048   2.636   1.865   6.321  0.5055 -0.2776 -1.3952
16203SOL     OW50049   1.693   1.508   0.222 -0.1285  0.4705 -0.1713
16203SOL    HW150050   1.702   1.415   0.200  0.1782  0.2118  0.9716
16203SOL    HW250051   1.640   1.508   0.302  0.2273  1.2611  0.0673
16204SOL     OW50052   7.686   2.880   2.349 -0.1856  0.3788 -0.2975
16204SOL    HW150053   7.619   2.939   2.314  0.2028 -0.4580 -2.6170
16204SOL    HW250054   7.760   2.890   2.289 -0.0131 -2.2211 -0.6271
16205SOL     OW50055   7.400   1.043   1.978  0.1214  0.0480 -0.3233
16205SOL    HW150056   7.316   1.086   1.963  0.4279  0.2535 -1.5507
16205SOL    HW250057   7.465   1.113   1.970  0.3749  0.1242  1.7406
16206SOL     OW50058   0.014   5.296   4.119  0.0865 -0.3187  0.0020
16206SOL    HW150059  -0.030   5.295   4.034  1.2215 -1.1701 -0.5931
16206SOL    HW250060  -0.058   5.300   4.183 -0.7603  0.9167 -0.9859
16207SOL     OW50061   4.486   2.235   5.227 -0.0021  0.1404  0.0770
16207SOL    HW150062   4.552   2.225   5.296 -0.2516 -0.4409  0.2389
16207SOL    HW250063   4.534   2.215   5.146  0.1239  0.1325  0.1530
16208SOL     OW50064   0.523   2.997   8.683 -0.4981 -0.4191  0.0748
16208SOL    HW150065   0.499   2.924   8.740 -1.4585  0.6791  1.1460
16208SOL    HW250066   0.483   3.073   8.724  1.0851  0.8424 -0.6007
16209SOL     OW50067   4.436   0.567   2.023 -0.1860  0.6281  0.6041
16209SOL    HW150068   4.439   0.530   1.935  1.5072  0.6368  0.6122
16209SOL    HW250069   4.371   0.637   2.018 -1.5560 -0.6444 -0.0838
16210SOL     OW50070   7.424   5.673   7.117  0.2955  0.5322 -0.6018
16210SOL    HW150071   7.422   5.638   7.206 -2.8953  0.0158 -0.7305
16210SOL    HW250072   7.484   5.616   7.070  0.3857 -0.5465  0.7633
16211SOL     OW50073   5.704   1.314  11.071  0.1704  0.7305  0.1528
16211SOL    HW150074   5.740   1.227  11.054 -0.5830  0.4502 -0.0779
16211SOL    HW250075   5.772   1.375  11.043 -0.2392  0.2557 -2.1391
16212SOL     OW50076   5.253   4.076   9.636 -0.5812 -0.3774  0.3827
16212SOL    HW150077   5.342   4.067   9.602 -0.3523 -0.0191  0.8604
16212SOL    HW250078   5.212   3.991   9.619  0.2259 -0.9577  1.1909
16213SOL     OW50079   5.310   5.865   6.236  0.3354 -0.1971  0.4292
16213SOL    HW150080   5.245   5.933   6.217  0.4237  0.3866  2.0668
16213SOL    HW250081   5.277   5.787   6.190  1.0224  1.2437 -2.7794
16214SOL     OW50082   6.291   4.334   7.464  0.1677  0.1051  0.2828
16214SOL    HW150083   6.351   4.267   7.497 -1.5348 -1.5825  0.0728
16214SOL    HW250084   6.321   4.351   7.374 -0.5151 -1.8028 -0.3373
16215SOL     OW50085   5.216   7.025   8.138  0.0611 -0.5257  0.0325
16215SOL    HW150086   5.258   7.028   8.052 -0.5679  1.8301 -0.2664
16215SOL    HW250087   5.269   7.083   8.193 -0.3615 -0.8867  0.8502
16216SOL     OW50088   6.254   6.518   2.102 -0.1073 -0.3190  0.4298
16216SOL    HW150089   6.202   6.525   2.023  0.3035 -4.1637 -0.4118
16216SOL    HW250090   6.337   6.480   2.073  1.0968  0.6146  2.4135
16217SOL     OW50091   4.938   4.443   4.036 -0.3346  0.6439 -0.0444
16217SOL    HW150092   4.967   4.520   4.084 -1.6604  1.4905 -0.5400
16217SOL    HW250093   4.876   4.477   3.972 -0.5040 -0.7734 -0.6689
16218SOL     OW50094   1.390   6.936   9.590  0.1809 -0.2268 -0.0169
16218SOL    HW150095   1.350   6.981   9.664 -2.2027  0.6763 -1.6990
16218SOL    HW250096   1.435   7.006   9.541  3.3826 -1.1017  1.4143
16219SOL     OW50097   4.718   5.820   5.531  0.1346  0.2906  0.8910
16219SOL    HW150098   4.707   5.822   5.436  0.5557 -1.7927  0.7587
16219SOL    HW250099   4.658   5.887   5.563  0.4418  1.4732 -0.8597
16220SOL     OW50100   0.791   0.178   2.797  0.4549  0.2840 -0.3143
16220SOL    HW150101   0.707   0.199   2.837  0.1423 -2.2116  0.5238
16220SOL    HW250102   0.854   0.185   2.868  0.2975 -1.6260  0.0713
16221SOL     OW50103   1.674   1.315   6.822 -0.3950  0.2672  0.2103
16221SOL    HW150104   1.590   1.362   6.816 -0.8229 -0.5189 -0.0064
16221SOL    HW250105   1.655   1.227   6.792  0.7369  0.3370 -0.7690
16222SOL     OW50106   1.182   3.416   5.666  0.0334  0.1129  0.2272
16222SOL    HW150107   1.221   3.473   5.731 -0.3463  1.2659 -0.5250
16222SOL    HW250108   1.089   3.438   5.666  0.3698  2.1173 -2.5209
16223SOL     OW50109   0.196   4.042  11.067  0.2070 -0.6092 -0.5302
16223SOL    HW150110   0.215   3.997  11.149  1.3479 -0.3399 -0.6353
16223SOL    HW250111   0.115   4.089  11.084  0.7223 -0.1064  0.6254
16224SOL     OW50112   5.096   7.612   0.041 -0.4074  0.2898  0.2041
16224SOL    HW150113   5.158   7.542   0.063  0.9826  1.3577 -0.1476
16224SOL    HW250114   5.024   7.567  -0.004  1.1348 -0.7673 -1.3234
16225SOL     OW50115   1.517   0.394  11.215  0.4457 -0.3529 -0.5145
16225SOL    HW150116   1.473   0.396  11.300  1.5249 -1.2015  0.0886
16225SOL    HW250117   1.458   0.343  11.159  1.0812 -2.4443  0.5892
16226SOL     OW50118   3.731   1.558   3.134 -0.2053  0.1095  0.6246
16226SOL    HW150119   3.642   1.527   3.153  0.1716 -0.8537  0.8785
16226SOL    HW250120   3.749   1.524   3.046 -0.2416  0.6770  0.3923
16227SOL     OW50121   0.819   6.305   2.559  0.5288 -0.1481  0.5870
16227SOL    HW150122   0.733   6.347   2.557  1.0785  0.9852 -0.6789
16227SOL    HW250123   0.881   6.378   2.555  1.5253 -1.0256 -0.9440
16228SOL     OW50124   7.645   0.137   7.411 -0.5712  0.0331  0.8920
16228SOL    HW150125   7.680   0.171   7.494 -1.1626  1.3175  0.6327
16228SOL    HW250126   7.550   0.140   7.422 -0.6524  0.0720  0.2219
16229SOL     OW50127   6.293   3.097   7.424 -0.6940  0.0836 -0.2025
16229SOL    HW150128   6.220   3.090   7.363  0.7039 -0.7361 -1.8672
16229SOL    HW250129   6.331   3.009   7.427 -0.0094  0.3954  0.9343
16230SOL     OW50130   4.366   7.087   0.264 -0.7912 -0.1067  0.3917
16230SOL    HW150131   4.296   7.134   0.219 -0.6940 -1.3702 -1.1688
16230SOL    HW250132   4.346   6.995   0.251  1.1260 -0.5178 -0.0886
16231SOL     OW50133   3.471   7.172   5.462 -0.6956  0.6492 -0.2165
16231SOL    HW150134   3.401   7.131   5.512  1.4333 -0.5959  1.9214
16231SOL    HW250135   3.481   7.117   5.385 -0.6972 -0.3864  0.5092
16232SOL     OW50136   3.498   0.967   5.796  0.2303 -0.0281 -0.0359
16232SOL    HW150137   3.518   1.025   5.722  2.6421  0.9249  1.2514
16232SOL    HW250138   3.428   1.013   5.843  0.0161  0.3131 -0.6659
16233SOL     OW50139   0.422   3.555   8.972 -0.2161 -0.1215  0.3202
16233SOL    HW150140   0.394   3.583   9.060 -1.0529 -0.4586  0.1723
16233SOL    HW250141   0.341   3.553   8.921  0.2413 -0.0875 -0.4226
16234SOL     OW50142   3.701   6.896   0.462  0.0875  0.2582 -0.0800
16234SOL    HW150143   3.756   6.883   0.385 -0.4398  0.3315 -0.4745
16234SOL    HW250144   3.733   6.830   0.525  0.2178 -0.1152 -0.5276
16235SOL     OW50145   0.533   3.492   6.575  0.3152 -0.3016  0.8435
16235SOL    HW150146   0.628   3.491   6.587  0.4990 -1.7960 -0.4331
16235SOL    HW250147   0.522   3.524   6.485 -0.3409 -0.9811  0.6798
16236SOL     OW50148   5.563   7.778   1.122  0.0380  0.1337 -0.5477
16236SOL    HW150149   5.473   7.779   1.153  0.4324 -1.7154  0.8245
16236SOL    HW250150   5.566   7.706   1.059  0.6582 -0.1428 -0.2126
16237SOL     OW50151   4.167   5.362   4.475  0.3975 -0.2931 -0.2971
16237SOL    HW150152   4.170   5.275   4.516  1.5109 -0.9778 -1.7203
16237SOL    HW250153   4.244   5.364   4.418  1.1800  2.1840  0.7148
16238SOL     OW50154   3.443   3.460   0.448  0.2673 -0.5658  0.4044
16238SOL    HW150155   3.466   3.549   0.477  0.1006 -0.4476  0.1763
16238SOL    HW250156   3.373   3.433   0.506 -0.0341 -0.3475  0.1456
16239SOL     OW50157   0.822   5.324   5.807 -0.0974  0.1278 -0.2056
16239SOL    HW150158   0.907   5.336   5.848  0.2517  0.8050 -1.0961
16239SOL    HW250159   0.822   5.233   5.777  1.0292  0.5773 -1.7237
16240SOL     OW50160   0.442   0.935   9.506 -0.5589 -0.0094 -0.3723
16240SOL    HW150161   0.431   1.028   9.484  0.3331  0.4339  0.9218
16240SOL    HW250162   0.528   0.912   9.469 -0.4229 -0.0905 -0.0115
16241SOL     OW50163   0.885   5.181   3.589 -0.1002  0.1092 -0.3050
16241SOL    HW150164   0.835   5.202   3.510 -2.4062  1.2676  1.3549
16241SOL    HW250165   0.970   5.152   3.556 -1.5375 -1.1768 -3.2582
16242SOL     OW50166   4.047   7.542   1.704 -0.2244 -0.2915  0.2115
16242SOL    HW150167   4.090   7.490   1.636  2.0721  1.8114 -0.1353
16242SOL    HW250168   3.997   7.608   1.655  0.4070  0.4417  0.5224
16243SOL     OW50169   2.905   6.527   1.562  0.1581 -0.0076 -0.3606
16243SOL    HW150170   2.952   6.577   1.629 -0.0585  0.5855 -0.6480
16243SOL    HW250171   2.974   6.490   1.506  0.4484 -1.9545  1.1636
16244SOL     OW50172   7.133   4.657   1.543  0.4256 -0.4408  0.4473
16244SOL    HW150173   7.056   4.602   1.527  1.9780 -2.8411  0.6030
16244SOL    HW250174   7.163   4.681   1.455 -0.9453  1.2441  0.4083
16245SOL     OW50175   0.261   5.681  10.983 -0.2556  0.7992 -0.5809
16245SOL    HW150176   0.177   5.722  11.006 -0.6814 -0.4458  0.1715
16245SOL    HW250177   0.244   5.639  10.898  0.0521  1.7786 -1.1398
16246SOL     OW50178   4.718   6.759   8.303  0.2909 -0.5037  0.0776
16246SOL    HW150179   4.693   6.845   8.271  1.1461  0.2656  1.3721
16246SOL    HW250180   4.668   6.697   8.249  1.5109  0.6837 -2.5512
16247SOL     OW50181   0.575   5.444   3.918  0.2034  0.2146 -0.2854
16247SOL    HW150182   0.638   5.463   3.849 -1.1872 -0.5590 -1.8440
16247SOL    HW250183   0.521   5.523   3.925 -1.3290 -0.6219 -2.0141
16248SOL     OW50184   1.666   3.380   4.308 -0.0403  0.2108  0.3483
16248SOL    HW150185   1.693   3.291   4.286 -0.4157  0.1046  0.3136
16248SOL    HW250186   1.706   3.435   4.241 -0.0357  0.0371  0.2093
16249SOL     OW50187   0.890   0.902   8.047 -0.3923 -0.1726  0.0084
16249SOL    HW150188   0.860   0.939   7.963 -1.8814 -0.3066  0.4406
16249SOL    HW250189   0.985   0.897   8.039 -0.4192  0.8130 -1.2635
16250SOL     OW50190   6.379   1.958   4.909  0.2517  0.1349 -0.1972
16250SOL    HW150191   6.389   1.934   4.816  0.0802 -1.8135  0.2354
16250SOL    HW250192   6.299   2.010   4.912 -1.2414 -2.0034 -0.8278
16251SOL     OW50193   6.497   7.195   3.656  0.5832 -0.3817 -0.4362
16251SOL    HW150194   6.455   7.167   3.737 -0.5268 -0.1386 -0.9168
16251SOL    HW250195   6.588   7.211   3.681  0.5160 -1.3955  0.5071
16252SOL     OW50196   5.673   7.752   8.823 -0.0154  0.0589  0.0124
16252SOL    HW150197   5.607   7.742   8.754 -0.2889  0.9213  0.1415
16252SOL    HW250198   5.668   7.671   8.873 -0.6533 -0.0732 -0.2598
16253SOL     OW50199   7.486   7.314   4.060  0.4752 -0.2866 -0.1469
16253SOL    HW150200   7.496   7.409   4.052 -0.5284  0.0211  1.6129
16253SOL    HW250201   7.536   7.278   3.987 -0.1369  1.6295 -1.6027
16254SOL     OW50202   4.865   6.585  11.979 -0.2765  0.0916  0.1078
16254SOL    HW150203   4.913   6.648  12.032 -0.4726  1.4500 -1.2690
16254SOL    HW250204   4.933   6.531  11.939 -0.0382  0.2898  0.2435
16255SOL     OW50205   1.572   7.597   8.416 -0.7202  0.1111  0.3550
16255SOL    HW150206   1.607   7.685   8.431  0.4712 -0.0795 -1.1293
16255SOL    HW250207   1.607   7.545   8.488 -1.9626  0.9391  1.6257
16256SOL     OW50208   7.718   1.973   7.097  0.0691 -0.3294 -0.3173
16256SOL    HW150209   7.716   1.930   7.183  1.9978 -1.3946 -0.7341
16256SOL    HW250210   7.728   1.900   7.035  1.4740  0.5580 -1.2019
16257SOL     OW50211   3.974   3.378   7.597  0.1034 -0.0177 -0.2339
16257SOL    HW150212   3.922   3.456   7.615  0.1472  0.0719 -0.4924
16257SOL    HW250213   4.041   3.407   7.535 -0.6752 -0.5409 -1.3702
16258SOL     OW50214   7.183   1.837   8.530  0.3590  0.0952  0.0919
16258SOL    HW150215   7.088   1.847   8.536  0.4719  0.9469  0.6279
16258SOL    HW250216   7.204   1.869   8.442  0.3661  2.0027  0.7254
16259SOL     OW50217   7.309   4.523   7.438  0.1287  0.1358  0.0339
16259SOL    HW150218   7.257   4.590   7.393 -0.7866 -1.0149 -0.6692
16259SOL    HW250219   7.290   4.536   7.530  0.7800  1.5014  0.0040
16260SOL     OW50220   3.974   3.044  11.470 -0.0945  0.3303 -0.1575
16260SOL    HW150221   4.006   2.956  11.448 -0.5343  0.7956 -3.1678
16260SOL    HW250222   4.030   3.073  11.541  0.5810 -2.0810  0.3803
16261SOL     OW50223   1.534   3.129   8.048 -0.0531 -0.8549 -0.2863
16261SOL    HW150224   1.514   3.037   8.064  0.1269 -0.9729 -0.7395
16261SOL    HW250225   1.582   3.130   7.965 -2.2248 -0.1029 -1.6255
16262SOL     OW50226   6.216   2.666   1.481 -0.8451 -0.2640  0.5748
16262SOL    HW150227   6.187   2.722   1.553  0.2356 -0.8411  1.5046
16262SOL    HW250228   6.234   2.582   1.523 -1.3061 -0.9529 -0.5926
16263SOL     OW50229   2.894   1.040   1.971  0.0649  0.0662  1.1227
16263SOL    HW150230   2.812   1.014   2.014 -0.4569 -1.2284 -0.5122
16263SOL    HW250231   2.886   1.134   1.959 -1.3929 -0.0903  0.6508
16264SOL     OW50232   5.765   2.002   8.466 -0.4370  0.2574 -0.1541
16264SOL    HW150233   5.833   1.988   8.400 -0.0902 -0.7108  0.3874
16264SOL    HW250234   5.805   1.972   8.548 -0.3956  2.6202  0.7683
16265SOL     OW50235   4.694   7.626   6.098  0.3903 -0.3511 -0.0692
16265SOL    HW150236   4.638   7.559   6.059  0.1888 -1.1124  1.4426
16265SOL    HW250237   4.782   7.591   6.090  0.7293  0.7890 -2.3309
16266SOL     OW50238   6.988   7.706   4.220  0.4737 -0.3022  0.5122
16266SOL    HW150239   7.021   7.692   4.309  0.7642  1.1961  0.6678
16266SOL    HW250240   7.041   7.777   4.186 -0.8782  0.4123 -0.1833
16267SOL     OW50241   5.355   6.933   1.304 -0.1063  0.0541 -0.6930
16267SOL    HW150242   5.309   7.006   1.346  0.9971  0.1626  0.3827
16267SOL    HW250243   5.373   6.871   1.375  2.1936  0.4449 -0.8432
16268SOL     OW50244   6.261   5.210   7.880  0.1590  0.0610  0.0754
16268SOL    HW150245   6.322   5.220   7.953 -1.3957  2.3152  1.1513
16268SOL    HW250246   6.269   5.291   7.831 -0.5159 -0.4762 -0.9591
16269SOL     OW50247   4.211   6.756   2.572 -0.1349 -0.2878  0.1900
16269SOL    HW150248   4.221   6.712   2.657 -3.1464  0.1012  0.8654
16269SOL    HW250249   4.239   6.691   2.508 -0.8362 -1.8105  1.3491
16270SOL     OW50250   6.612   3.123   6.513  0.1720 -0.0067 -0.4603
16270SOL    HW150251   6.607   3.037   6.471  0.7676 -1.2318  1.8277
16270SOL    HW250252   6.645   3.106   6.601 -0.5340  2.4778  0.3909
16271SOL     OW50253   7.272   0.332   1.806  0.3024  0.1560  0.0237
16271SOL    HW150254   7.305   0.350   1.894  0.8779  2.2840 -0.5571
16271SOL    HW250255   7.294   0.411   1.756  2.4103 -1.9610 -2.7262
16272SOL     OW50256   5.892   1.949  12.452  0.2744  0.1919 -0.1621
16272SOL    HW150257   5.865   1.860  12.430  1.1366  0.1999 -1.3283
16272SOL    HW250258   5.823   2.005  12.417 -1.2330 -0.0557  2.1879
16273SOL     OW50259   0.393   6.028   9.502  0.1292  0.3478 -0.1751
16273SOL    HW150260   0.459   6.067   9.444  0.9034 -0.9635 -0.2258
16273SOL    HW250261   0.354   6.102   9.548  1.7543  1.1779 -0.0454
16274SOL     OW50262   0.067   5.360   9.112 -0.0105 -0.2982  0.2635
16274SOL    HW150263  -0.027   5.368   9.126 -0.0788  1.2411 -0.7847
16274SOL    HW250264   0.098   5.307   9.185 -1.8275 -1.7903  0.0368
16275SOL     OW50265   6.845   7.983  11.458  0.2508  0.0153 -0.4208
16275SOL    HW150266   6.828   8.037  11.535 -1.6175 -0.6940 -0.2732
16275SOL    HW250267   6.879   7.901  11.494  1.0786  0.3233 -0.4919
16276SOL     OW50268   4.368   6.509   6.010 -0.3484  0.2329 -0.2668
16276SOL    HW150269   4.436   6.568   5.977 -0.0582  0.8408  1.3526
16276SOL    HW250270   4.383   6.506   6.104 -1.2904 -1.2753 -0.1398
16277SOL     OW50271   2.642   6.067  10.023 -0.6096  0.0565 -0.1199
16277SOL    HW150272   2.549   6.044  10.025 -0.6263  0.1086 -0.2919
16277SOL    HW250273   2.686   5.988   9.993 -0.5334 -0.1706  0.5863
16278SOL     OW50274   2.481   5.021   2.285  0.2981  0.1168  0.2474
16278SOL    HW150275   2.504   4.940   2.332 -1.3762 -0.1858  0.5960
16278SOL    HW250276   2.545   5.085   2.315  0.9589 -0.7901  0.8270
16279SOL     OW50277   7.554   7.589  11.879 -0.0929 -0.3317 -0.0912
16279SOL    HW150278   7.542   7.644  11.957 -1.1684 -0.3535 -0.2157
16279SOL    HW250279   7.647   7.566  11.879 -0.4038 -1.9915  2.3515
16280SOL     OW50280   5.844   0.190   8.285  0.4018  0.7751  0.8832
16280SOL    HW150281   5.896   0.114   8.313 -0.2933  0.1478  0.5029
16280SOL    HW250282   5.896   0.230   8.215  0.9112  0.8306  1.2854
16281SOL     OW50283   4.722   6.840   3.824 -0.5791 -0.3663  0.0828
16281SOL    HW150284   4.781   6.771   3.795  0.3179  0.0382  0.8886
16281SOL    HW250285   4.730   6.841   3.919 -0.3575  1.0135  0.0728
16282SOL     OW50286   5.613   0.976  11.964  0.1632  0.4278  0.4403
16282SOL    HW150287   5.645   1.013  12.046  0.7117 -0.7173  0.7710
16282SOL    HW250288   5.676   1.005  11.898  1.2508 -0.8076  0.8872
16283SOL     OW50289   0.198   7.945   8.020 -0.0120  0.3462  0.2933
16283SOL    HW150290   0.235   8.033   8.031  0.8325 -0.0802  0.9694
16283SOL    HW250291   0.231   7.896   8.095  0.7474 -0.9675 -0.8642
16284SOL     OW50292   7.668   5.957  10.179  0.9295 -0.6149  0.1079
16284SOL    HW150293   7.611   6.035  10.180 -0.0322 -1.2279 -1.8569
16284SOL    HW250294   7.671   5.931  10.087  2.7385 -1.8438  0.4698
16285SOL     OW50295   5.298   7.378   9.725  0.5180  0.1905 -0.4504
16285SOL    HW150296   5.318   7.296   9.680 -0.8681 -0.6773  0.4547
16285SOL    HW250297   5.311   7.359   9.818  1.1440  1.2973 -0.2926
16286SOL     OW50298   1.928   0.402   0.709  0.2536  0.3513 -0.1885
16286SOL    HW150299   2.005   0.376   0.760  0.3685 -0.4308 -0.7403
16286SOL    HW250300   1.912   0.493   0.734  0.9418  0.3085  0.4421
16287SOL     OW50301   0.720   3.504   3.544  0.3064  0.4456  0.2772
16287SOL    HW150302   0.700   3.420   3.504  0.1160  0.1737  0.9294
16287SOL    HW250303   0.698   3.493   3.637  0.8516  1.0168  0.4881
16288SOL     OW50304   2.899   5.721  12.422  0.1462 -0.0534  0.1561
16288SOL    HW150305   2.864   5.705  12.510  2.2648 -1.7238  0.7751
16288SOL    HW250306   2.960   5.794  12.433  0.0687  0.0403 -0.0277
16289SOL     OW50307   5.562   1.218   3.001 -0.0655  0.2160  0.0557
16289SOL    HW150308   5.654   1.207   2.980 -0.2895 -1.6322 -0.1051
16289SOL    HW250309   5.516   1.170   2.933 -1.2027  1.5219 -0.1570
16290SOL     OW50310   7.296   7.821   0.019  0.3601 -0.2457  0.0585
16290SOL    HW150311   7.209   7.860   0.022  0.5166  0.0481  1.3594
16290SOL    HW250312   7.300   7.779  -0.067 -0.5882  0.8105 -0.5380
16291SOL     OW50313   7.864   6.486   8.164 -0.1261 -0.1347 -0.1333
16291SOL    HW150314   7.877   6.443   8.249 -2.4401  0.6291  0.6863
16291SOL    HW250315   7.807   6.560   8.184 -0.7623  0.0351 -2.3809
16292SOL     OW50316   1.673   0.858  11.913 -0.1852 -0.0799  0.3131
16292SOL    HW150317   1.750   0.865  11.857  0.6853  3.7680  1.6450
16292SOL    HW250318   1.708   0.829  11.998 -0.7705 -1.3602  0.1420
16293SOL     OW50319   4.305   0.406   3.580  0.4743  0.3467 -0.1061
16293SOL    HW150320   4.282   0.314   3.586 -1.3430  0.6731 -1.2306
16293SOL    HW250321   4.360   0.422   3.657  1.2651 -1.7535 -0.1672
16294SOL     OW50322   2.040   0.602   7.900 -0.1900 -0.1409 -0.2760
16294SOL    HW150323   1.989   0.563   7.829 -1.6393  0.2445  0.4959
16294SOL    HW250324   2.099   0.663   7.857 -0.5012 -0.4684 -1.1966
16295SOL     OW50325   2.276   7.763   8.813 -0.2397 -0.2629  0.4200
16295SOL    HW150326   2.274   7.841   8.758  0.6015 -0.6349 -0.1613
16295SOL    HW250327   2.289   7.796   8.902  0.8367  0.2299  0.0912
16296SOL     OW50328   7.489   0.195   1.199 -0.1915 -0.2677 -0.0769
16296SOL    HW150329   7.567   0.212   1.145 -0.7378 -0.5011 -0.9511
16296SOL    HW250330   7.523   0.146   1.274  0.4990 -0.3879 -0.4574
16297SOL     OW50331   1.461   0.545   3.929  0.2053 -0.7141  0.4797
16297SOL    HW150332   1.521   0.562   3.857 -0.4203 -2.0545 -0.3893
16297SOL    HW250333   1.510   0.490   3.990 -0.4663 -2.8392 -0.8109
16298SOL     OW50334   5.966   3.222   4.078  0.2335 -0.0606  0.0456
16298SOL    HW150335   5.886   3.257   4.038 -0.1980 -0.3320  0.6652
16298SOL    HW250336   6.015   3.300   4.105 -0.2451  0.0911  0.4925
16299SOL     OW50337   2.920   2.275  12.112 -0.1780 -0.0269  0.1003
16299SOL    HW150338   2.825   2.282  12.112 -0.3559 -1.8129  0.3795
16299SOL    HW250339   2.946   2.298  12.023 -0.8648  0.4833  0.0268
16300SOL     OW50340   7.912   4.068   9.905  0.2431  0.3620  0.0368
16300SOL    HW150341   7.842   4.134   9.910  0.1435  0.2388  0.2879
16300SOL    HW250342   7.987   4.116   9.871 -0.2527  0.2630 -1.2616
16301SOL     OW50343   5.009   4.643   0.209  0.4757 -0.1335  0.0892
16301SOL    HW150344   5.063   4.603   0.277  0.1575  0.4595  0.7056
16301SOL    HW250345   4.919   4.628   0.236  0.3304 -0.5011 -0.5686
16302SOL     OW50346   2.139   7.068   8.034 -0.5787  0.3113  0.0758
16302SOL    HW150347   2.153   7.100   8.123 -1.8505  2.7886 -0.5302
16302SOL    HW250348   2.167   7.140   7.977  2.5383 -2.0759 -1.7374
16303SOL     OW50349   1.210   6.363   5.251  0.4818  0.2894  0.2013
16303SOL    HW150350   1.295   6.347   5.210  1.8631  0.1092  2.9199
16303SOL    HW250351   1.201   6.458   5.250  0.7000  0.3103 -0.0993
16304SOL     OW50352   5.481   2.883   9.391 -0.1996 -0.3812  0.0951
16304SOL    HW150353   5.554   2.847   9.442  0.5074  2.3037  1.1562
16304SOL    HW250354   5.467   2.819   9.320  2.4856 -1.4975  0.4562
16305SOL     OW50355   5.878   6.773  10.259  0.4646 -0.0039  0.6087
16305SOL    HW150356   5.804   6.783  10.200 -0.3107 -0.6977  1.4282
16305SOL    HW250357   5.842   6.789  10.346  1.2619 -0.3846  1.0221
16306SOL     OW50358   2.753   7.625   9.908  0.1152  0.5631  0.0310
16306SOL    HW150359   2.764   7.530   9.901  1.7432  0.5557  1.8797
16306SOL    HW250360   2.660   7.637   9.927 -0.1035 -0.6744 -0.1716
16307SOL     OW50361   3.002   1.374  11.459 -0.6429  0.5043  0.3006
16307SOL    HW150362   3.011   1.291  11.505 -2.2651  1.1762  1.9565
16307SOL    HW250363   3.036   1.439  11.521  0.4299  1.1249 -0.8922
16308SOL     OW50364   4.054   6.337   9.927  0.6459 -0.2786 -0.0417
16308SOL    HW150365   4.130   6.365   9.876 -0.3437 -1.3773 -2.2595
16308SOL    HW250366   3.979   6.376   9.882 -0.3451 -2.0644 -0.0308
16309SOL     OW50367   6.408   2.330   9.245 -0.2293 -0.2192 -0.2998
16309SOL    HW150368   6.410   2.311   9.151 -1.9733 -0.1784 -0.3765
16309SOL    HW250369   6.356   2.410   9.253  1.4372  0.8513  0.5821
16310SOL     OW50370   0.032   1.404   0.351  0.6803  0.2298 -0.2491
16310SOL    HW150371   0.078   1.321   0.343  0.7670  0.2320  0.1702
16310SOL    HW250372   0.084   1.466   0.300 -0.4222 -0.3665 -2.1821
16311SOL     OW50373   1.923   3.832  12.107  0.4738  0.4591  0.2951
16311SOL    HW150374   1.862   3.876  12.166  0.7084  0.3535  0.6222
16311SOL    HW250375   1.888   3.847  12.020 -2.6583 -3.4275  0.6247
16312SOL     OW50376   1.932   4.781   5.371 -0.4516 -0.0674 -0.2942
16312SOL    HW150377   1.955   4.747   5.458  0.3590  0.2890 -0.3502
16312SOL    HW250378   1.872   4.853   5.389  1.9263  1.9188  0.2259
16313SOL     OW50379   2.028   6.742   8.131 -0.3221 -0.4609 -0.2921
16313SOL    HW150380   1.969   6.774   8.062 -0.0825 -1.5121 -1.0084
16313SOL    HW250381   2.041   6.650   8.110  3.0614  0.0972 -1.2681
16314SOL     OW50382   7.653   2.227   9.022  0.4013 -0.5284 -0.4204
16314SOL    HW150383   7.609   2.142   9.034  0.7833 -0.8758 -1.3925
16314SOL    HW250384   7.745   2.208   9.039  0.2114  0.2616  1.9072
16315SOL     OW50385   3.518   7.577  10.138 -0.0997 -0.1259 -0.1481
16315SOL    HW150386   3.524   7.546  10.048 -1.2281 -2.9783  0.6609
16315SOL    HW250387   3.576   7.519  10.188  0.2992  1.2312  1.0335
16316SOL     OW50388   6.042   7.606   6.684 -0.6977  0.1606  0.0703
16316SOL    HW150389   6.093   7.602   6.603  0.6502 -0.9423  0.9469
16316SOL    HW250390   6.106   7.621   6.753 -1.6120 -0.7531  1.1520
16317SOL     OW50391   3.880   7.147   5.602  0.0723 -0.1333 -0.2294
16317SOL    HW150392   3.951   7.197   5.562 -0.0411 -1.5831 -2.3848
16317SOL    HW250393   3.803   7.202   5.591  0.7478  1.3708  1.9643
16318SOL     OW50394   4.969   0.789   7.184 -0.3637  0.1945 -0.6152
16318SOL    HW150395   5.042   0.816   7.240 -0.4043 -0.4054 -0.2628
16318SOL    HW250396   4.910   0.742   7.243 -0.6240 -0.0546 -1.0716
16319SOL     OW50397   4.276   7.433   6.459 -0.2735  0.3557  0.4724
16319SOL    HW150398   4.311   7.505   6.512  0.1487 -1.6289  3.1058
16319SOL    HW250399   4.182   7.440   6.469 -0.3559  1.5711 -0.8288
16320SOL     OW50400   3.391   7.606   5.329 -0.0484  0.4749 -0.0521
16320SOL    HW150401   3.312   7.654   5.303 -0.1044  1.3912  1.6385
16320SOL    HW250402   3.461   7.647   5.279 -0.5135  0.2482 -0.9070
16321SOL     OW50403   2.062   7.159   4.210  0.2391 -0.0783 -0.9923
16321SOL    HW150404   2.119   7.170   4.286  0.2271  0.4852 -1.0582
16321SOL    HW250405   1.973   7.166   4.245  0.1339 -2.3772 -0.6595
16322SOL     OW50406   1.644   3.243  11.785  0.8259 -0.2170 -0.3199
16322SOL    HW150407   1.554   3.212  11.797  0.6892 -0.7840 -2.4201
16322SOL    HW250408   1.694   3.164  11.765  1.6077  0.2281 -0.1620
16323SOL     OW50409   3.007   4.978  10.400  0.1612  0.0150 -0.1620
16323SOL    HW150410   2.979   5.069  10.397 -0.7342 -0.1963  0.9757
16323SOL    HW250411   2.928   4.927  10.381  0.8281 -0.5344 -1.6448
16324SOL     OW50412   0.002   2.759  10.730 -0.1564 -0.0205  0.4205
16324SOL    HW150413   0.082   2.796  10.768  0.0768 -0.2833  0.1892
16324SOL    HW250414   0.016   2.765  10.635 -0.5449  0.2223  0.3766
16325SOL     OW50415   0.805   4.306   6.930  1.0662 -0.0349  0.3921
16325SOL    HW150416   0.727   4.360   6.938  0.2031 -1.2783  0.7013
16325SOL    HW250417   0.855   4.346   6.859  0.3469  1.0055  0.4488
16326SOL     OW50418   6.826   1.092   6.064 -0.1258  0.3322  0.1639
16326SOL    HW150419   6.784   1.093   5.979 -0.0662  2.1160  0.1263
16326SOL    HW250420   6.876   1.010   6.065  0.8918  0.8480 -2.0225
16327SOL     OW50421   2.729   4.075   2.073 -0.1479 -0.0493  0.1244
16327SOL    HW150422   2.655   4.128   2.046  0.2310 -0.0137 -0.8812
16327SOL    HW250423   2.786   4.071   1.996  0.6827 -0.4382  0.7375
16328SOL     OW50424   6.925   4.522  11.714 -0.3382  0.2257  0.6631
16328SOL    HW150425   6.847   4.497  11.765 -0.5842 -0.2578  0.0663
16328SOL    HW250426   6.973   4.440  11.703 -0.4917  0.2406 -0.2109
16329SOL     OW50427   3.190   1.596  11.285  0.0824 -0.6626  0.0048
16329SOL    HW150428   3.159   1.623  11.372  1.1298 -0.1418  0.2290
16329SOL    HW250429   3.124   1.533  11.255 -1.7536  1.1167  0.0471
16330SOL     OW50430   5.261   4.388   1.575  0.4068 -0.1128 -0.0046
16330SOL    HW150431   5.271   4.403   1.669  1.6155 -0.8297 -0.0011
16330SOL    HW250432   5.188   4.445   1.550  0.4736  0.5701  1.2383
16331SOL     OW50433   0.893   1.358   9.643 -0.0709 -0.3158 -0.4257
16331SOL    HW150434   0.964   1.294   9.635  0.6849  0.1738  1.7683
16331SOL    HW250435   0.938   1.441   9.657 -1.0384 -0.1228  1.8460
16332SOL     OW50436   6.173   1.651  10.525 -0.0574 -0.3115 -0.2055
16332SOL    HW150437   6.208   1.565  10.550 -0.1857 -0.2289  0.2617
16332SOL    HW250438   6.249   1.698  10.491  0.4990  0.1711  1.5950
16333SOL     OW50439   5.367   0.223   0.519 -0.3280 -0.4907  0.1995
16333SOL    HW150440   5.278   0.252   0.500 -0.3957 -1.8868 -2.0125
16333SOL    HW250441   5.357   0.168   0.598 -1.5307 -0.9888 -0.2628
16334SOL     OW50442   0.966   5.232   6.534  0.2097 -0.1460  0.0628
16334SOL    HW150443   0.901   5.292   6.571  1.5067  1.5663 -0.3440
16334SOL    HW250444   0.988   5.173   6.606 -1.0672 -0.1333  0.4882
16335SOL     OW50445   2.378   7.245   7.936  0.4037 -0.1702  0.1120
16335SOL    HW150446   2.428   7.243   7.854 -1.1701  0.8317 -0.9132
16335SOL    HW250447   2.334   7.330   7.936 -1.3621 -1.0284  0.9176
16336SOL     OW50448   2.198   4.057   3.418 -0.1979 -0.0411  0.5063
16336SOL    HW150449   2.176   4.085   3.329 -2.1178  1.6355  1.4390
16336SOL    HW250450   2.267   4.118   3.446 -1.8506  1.5752  1.2490
16337SOL     OW50451   4.069   7.249   7.966  0.2826 -0.2521 -0.2722
16337SOL    HW150452   4.066   7.155   7.947  2.0527 -0.1471 -1.2946
16337SOL    HW250453   4.137   7.258   8.033  0.9808  0.4112 -1.0520
16338SOL     OW50454   0.650   0.596   1.911 -0.0858  0.3878  0.4013
16338SOL    HW150455   0.641   0.691   1.901 -3.2801  0.2579  0.9336
16338SOL    HW250456   0.688   0.567   1.828 -1.8260  1.8919 -1.0158
16339SOL     OW50457   1.768   4.541   5.731  0.6519  0.2767 -0.1098
16339SOL    HW150458   1.686   4.512   5.770  0.8514  0.2178  0.2731
16339SOL    HW250459   1.746   4.559   5.639  0.3188 -0.1924 -0.1277
16340SOL     OW50460   1.387   0.424  11.706  0.1570 -0.3501 -0.1598
16340SOL    HW150461   1.438   0.469  11.774  1.4640 -1.1885 -0.5517
16340SOL    HW250462   1.298   0.458  11.717  0.7912  1.2316  0.5030
16341SOL     OW50463   0.863   5.089   7.495  0.4353  0.1612  0.1798
16341SOL    HW150464   0.935   5.081   7.432  0.7240  0.1547  0.5117
16341SOL    HW250465   0.807   5.158   7.459  0.6284  0.1966 -0.0531
16342SOL     OW50466   1.399   3.722  10.683 -0.9548  0.0221 -0.1368
16342SOL    HW150467   1.353   3.660  10.739 -1.6535 -0.0136 -0.7432
16342SOL    HW250468   1.492   3.700  10.695 -1.2364 -2.3226 -1.6394
16343SOL     OW50469   1.360   5.134   6.230 -0.2055  0.0485  0.1365
16343SOL    HW150470   1.267   5.146   6.248 -0.4910 -0.3117 -1.0105
16343SOL    HW250471   1.402   5.147   6.315 -1.2737  0.4193  0.6368
16344SOL     OW50472   6.616   4.734   4.253  0.1736  0.1766 -0.4407
16344SOL    HW150473   6.673   4.792   4.304  0.1522  1.0434 -1.3683
16344SOL    HW250474   6.542   4.717   4.311  0.7093  0.1696  0.2609
16345SOL     OW50475   3.809   3.420   5.189 -0.2819 -0.0914  1.0317
16345SOL    HW150476   3.719   3.410   5.158 -0.4581  1.6968  0.9025
16345SOL    HW250477   3.812   3.366   5.269 -0.6971 -2.2360 -0.2985
16346SOL     OW50478   4.389   0.718   8.510  0.7858  0.2476  0.5284
16346SOL    HW150479   4.466   0.764   8.476  1.2677 -1.9251 -1.6169
16346SOL    HW250480   4.419   0.628   8.521 -0.8141 -0.1385  2.0558
16347SOL     OW50481   7.432   1.093   1.641 -0.0260  0.1813 -0.5245
16347SOL    HW150482   7.458   1.115   1.551  0.8992  0.5330 -0.1844
16347SOL    HW250483   7.426   1.178   1.684 -1.9003  0.1247 -0.6112
16348SOL     OW50484   7.809   5.523   7.998  0.3739  0.1967 -0.3702
16348SOL    HW150485   7.816   5.433   7.967 -2.6581  0.5368 -2.5524
16348SOL    HW250486   7.731   5.523   8.054  0.4514  1.3997 -0.2362
16349SOL     OW50487   7.524   5.950  11.119  0.3789  0.1796 -0.0430
16349SOL    HW150488   7.440   5.921  11.083  0.4502  0.1533 -0.1868
16349SOL    HW250489   7.523   5.920  11.210  1.1469 -1.7056 -0.6204
16350SOL     OW50490   2.057   0.324   2.298  0.3609 -0.6179  0.3418
16350SOL    HW150491   2.056   0.384   2.372  0.6165  0.2306 -0.3208
16350SOL    HW250492   1.966   0.323   2.267  0.1758 -1.2762  0.8994
16351SOL     OW50493   1.810   4.936   3.005 -0.5962 -0.3860  0.0435
16351SOL    HW150494   1.776   4.870   3.065 -1.9746  0.3989  0.1688
16351SOL    HW250495   1.819   5.015   3.059 -2.0326  0.3818 -0.7811
16352SOL     OW50496   7.196   7.654   4.413 -0.4102  0.0429  0.0537
16352SOL    HW150497   7.232   7.724   4.358  1.8699  0.5758  1.9914
16352SOL    HW250498   7.239   7.575   4.382 -1.3408 -0.1671 -0.7440
16353SOL     OW50499   7.661   3.423   7.049 -0.2433  0.2629 -0.6615
16353SOL    HW150500   7.673   3.494   7.112 -2.7499 -2.2616  3.1032
16353SOL    HW250501   7.739   3.368   7.060 -0.2037  0.3483 -0.5098
16354SOL     OW50502   3.766   5.305  11.317  0.6455  0.1394 -0.6435
16354SOL    HW150503   3.726   5.240  11.375  3.0349 -0.6553  0.2310
16354SOL    HW250504   3.718   5.386  11.335 -1.0332 -0.9059 -0.2422
16355SOL     OW50505   4.157   2.078   2.852  0.2608 -0.3012 -0.5073
16355SOL    HW150506   4.144   2.003   2.795  0.1309  0.1568 -1.0890
16355SOL    HW250507   4.243   2.064   2.891  0.0901 -0.9209 -0.3407
16356SOL     OW50508   0.979   6.092   9.449 -0.2121  0.2544 -0.5606
16356SOL    HW150509   1.049   6.155   9.466 -0.2954 -0.3017  2.4595
16356SOL    HW250510   1.006   6.045   9.371  2.6037  0.3632  0.2553
16357SOL     OW50511   1.990   7.302   8.342  0.3503  0.0662 -0.3597
16357SOL    HW150512   1.944   7.226   8.378 -0.5106  0.3747 -0.7673
16357SOL    HW250513   1.922   7.349   8.293  0.8343  1.1791  0.0187
16358SOL     OW50514   2.825   1.452   2.575 -0.1053  0.2486 -0.5299
16358SOL    HW150515   2.752   1.396   2.604  2.0816 -2.3214  0.4726
16358SOL    HW250516   2.831   1.436   2.480 -0.3360 -0.1992 -0.4729
16359SOL     OW50517   6.580   1.824   8.580  0.1283  0.1500 -0.5559
16359SOL    HW150518   6.578   1.818   8.485 -1.3610  0.9210 -0.6052
16359SOL    HW250519   6.516   1.759   8.609 -0.8445  1.2244 -0.1979
16360SOL     OW50520   3.499   2.521   7.021 -0.3267 -0.1120  0.3030
16360SOL    HW150521   3.566   2.546   6.958 -1.3539 -1.3376 -1.3736
16360SOL    HW250522   3.538   2.450   7.072 -0.0733 -0.2946 -0.1448
16361SOL     OW50523   0.345   2.863   6.358  0.8086 -0.4491  0.3774
16361SOL    HW150524   0.434   2.846   6.328  0.9860 -1.3890  1.3763
16361SOL    HW250525   0.338   2.959   6.360  1.4027 -0.3592 -0.7676
16362SOL     OW50526   2.096   0.845   9.697 -0.3627  0.1945  0.6122
16362SOL    HW150527   2.015   0.820   9.742 -0.0449 -0.5388  0.7918
16362SOL    HW250528   2.139   0.906   9.757 -0.9060  0.8065  0.3920
16363SOL     OW50529   6.956   1.386   0.825 -0.0722  0.0170  0.0562
16363SOL    HW150530   6.957   1.411   0.918  0.3039 -0.4209  0.1707
16363SOL    HW250531   6.869   1.347   0.812 -0.6189  1.2261 -0.0924
16364SOL     OW50532   6.410   4.144   6.743  0.1365  0.0122 -0.0106
16364SOL    HW150533   6.327   4.102   6.720 -0.0507  0.4351 -0.1160
16364SOL    HW250534   6.407   4.229   6.699  1.0166 -0.3296 -0.7530
16365SOL     OW50535   0.812   2.705   5.932 -0.3495  0.2369  0.1507
16365SOL    HW150536   0.890   2.717   5.879  0.2787 -1.7884  0.5180
16365SOL    HW250537   0.837   2.732   6.020 -0.2829  0.2655  0.1227
16366SOL     OW50538   0.161   1.416   4.926  0.2418 -0.5100 -0.3958
16366SOL    HW150539   0.247   1.452   4.903  0.1896  0.0616  0.2710
16366SOL    HW250540   0.101   1.489   4.913  0.0162 -0.5890  0.1978
16367SOL     OW50541   3.831   5.225   5.383  0.1020  0.2934  0.3824
16367SOL    HW150542   3.841   5.310   5.341 -3.3134  1.3381  1.3956
16367SOL    HW250543   3.888   5.228   5.459  0.3529  1.4800  0.1565
16368SOL     OW50544   3.551   0.791  11.781  0.1965  0.0281 -0.1622
16368SOL    HW150545   3.565   0.764  11.691  0.4427 -2.4088  0.5177
16368SOL    HW250546   3.639   0.810  11.814  0.0345  1.7590 -0.6062
16369SOL     OW50547   3.162   0.361   5.643 -0.5612 -0.5118 -0.1310
16369SOL    HW150548   3.151   0.293   5.710  4.4995 -2.4280 -0.8557
16369SOL    HW250549   3.162   0.313   5.560 -0.0258  0.8355 -0.9398
16370SOL     OW50550   2.512   3.439   9.549 -0.0730  0.1075 -0.2248
16370SOL    HW150551   2.483   3.465   9.636  0.4596  1.4524 -0.4307
16370SOL    HW250552   2.588   3.493   9.531  1.5084 -2.0375 -0.4468
16371SOL     OW50553   7.594   5.861   2.394  0.0335  0.7375 -0.2108
16371SOL    HW150554   7.511   5.827   2.428  0.3534  0.0152 -0.1267
16371SOL    HW250555   7.568   5.919   2.322 -0.5154 -0.8656 -1.3912
16372SOL     OW50556   4.823   3.174  11.983  1.0058 -0.0658  0.1859
16372SOL    HW150557   4.779   3.213  12.059  1.6046  0.0270  0.4907
16372SOL    HW250558   4.906   3.222  11.976  1.3191 -0.6285 -0.0299
16373SOL     OW50559   1.075   2.460   4.596 -0.5043 -0.2657 -0.0051
16373SOL    HW150560   1.029   2.532   4.639 -0.7116 -1.3285  1.6438
16373SOL    HW250561   1.166   2.488   4.593 -0.7533  0.5404 -0.4522
16374SOL     OW50562   3.897   7.019   4.161  0.1166  0.0785  0.8319
16374SOL    HW150563   3.834   6.949   4.144 -1.5751  0.8138  3.3646
16374SOL    HW250564   3.879   7.045   4.251 -0.3968  4.7425 -0.3635
16375SOL     OW50565   3.064   4.178   0.017  0.4633 -0.7409  0.7072
16375SOL    HW150566   2.995   4.153   0.079  1.5655 -0.0319  2.2887
16375SOL    HW250567   3.064   4.274   0.018 -0.2273 -0.6792 -1.2760
16376SOL     OW50568   4.411   0.332  12.368  0.3667 -0.1886  0.2626
16376SOL    HW150569   4.452   0.326  12.454  0.6809  1.6447  0.2763
16376SOL    HW250570   4.482   0.320  12.306  0.5434  0.7243  0.2795
16377SOL     OW50571   1.196   2.595   4.836  0.3170  0.7525  0.1904
16377SOL    HW150572   1.203   2.686   4.807 -1.3647  0.2221 -2.2605
16377SOL    HW250573   1.155   2.600   4.922  0.6974  2.3265  0.3190
16378SOL     OW50574   0.647   6.155   4.469  0.1591 -0.4009 -0.2243
16378SOL    HW150575   0.558   6.129   4.490  0.6749 -1.4958  0.7172
16378SOL    HW250576   0.701   6.111   4.535  1.3269  0.8713 -0.2858
16379SOL     OW50577   6.814   5.968   1.573 -0.5557 -0.5549  0.1131
16379SOL    HW150578   6.818   6.056   1.535 -2.9026 -0.6101 -0.4201
16379SOL    HW250579   6.856   5.911   1.508 -0.9286 -0.1075 -0.5282
16380SOL     OW50580   1.504   7.006   7.679 -0.3921  0.3460  0.3709
16380SOL    HW150581   1.579   6.954   7.709 -0.5049  0.2278  0.4437
16380SOL    HW250582   1.456   7.027   7.759 -0.5356  0.2725  0.3036
16381SOL     OW50583   4.119   5.643   6.560 -0.6459 -0.0955 -0.0525
16381SOL    HW150584   4.108   5.637   6.655  0.1261  2.8543  0.3308
16381SOL    HW250585   4.136   5.553   6.532 -0.9484 -1.0632  2.5868
16382SOL     OW50586   6.225   3.606   7.792 -0.0875 -0.3098  0.8311
16382SOL    HW150587   6.143   3.618   7.839 -0.7918 -0.1263 -0.3980
16382SOL    HW250588   6.255   3.519   7.818 -0.7839 -0.4730  1.1140
16383SOL     OW50589   6.442   0.857   4.536  0.0809 -0.2436 -0.0630
16383SOL    HW150590   6.396   0.815   4.609  1.5713 -0.6734  0.6829
16383SOL    HW250591   6.529   0.816   4.536  0.5163  0.6072 -1.3346
16384SOL     OW50592   6.991   1.996   1.674 -0.2765 -0.6106 -0.0803
16384SOL    HW150593   7.043   2.076   1.680  0.9313 -1.3549 -0.3449
16384SOL    HW250594   6.918   2.010   1.734  1.1025 -0.1786  1.5783
16385SOL     OW50595   5.119   2.461   0.193 -0.1493 -0.2889  0.6668
16385SOL    HW150596   5.125   2.368   0.172 -1.5372 -0.1778 -0.3749
16385SOL    HW250597   5.110   2.464   0.289  0.3143 -1.1839  0.7459
16386SOL     OW50598   5.499   4.428   2.734 -0.4307 -0.2945 -0.2178
16386SOL    HW150599   5.549   4.364   2.785 -1.1881 -1.2574 -0.6491
16386SOL    HW250600   5.500   4.507   2.788  0.0161 -0.8441  0.6101
16387SOL     OW50601   1.912   2.620   1.054  0.3081 -0.1329  0.2293
16387SOL    HW150602   1.960   2.584   1.129  1.6081  0.9235 -0.0534
16387SOL    HW250603   1.877   2.544   1.009  1.1220 -0.9042  0.8701
16388SOL     OW50604   3.052   0.596   6.025 -0.4550 -0.2314 -0.6795
16388SOL    HW150605   2.959   0.606   6.003 -0.5177 -1.7369 -1.2170
16388SOL    HW250606   3.063   0.501   6.038  0.6046  0.1049  1.2573
16389SOL     OW50607   5.428   5.703   3.487  0.3621  0.0429  0.0255
16389SOL    HW150608   5.468   5.790   3.479 -0.5929  0.3521 -3.0957
16389SOL    HW250609   5.334   5.720   3.496  0.2697 -0.6793  0.5421
16390SOL     OW50610   4.803   6.520  12.352  0.0123  0.2730  0.1375
16390SOL    HW150611   4.710   6.527  12.370  0.1476 -0.1215  1.0370
16390SOL    HW250612   4.821   6.426  12.356  0.2411  0.2498 -1.1353
16391SOL     OW50613   5.800   2.801   1.130 -0.1787  0.1858 -0.4041
16391SOL    HW150614   5.817   2.727   1.070  1.0938 -0.7028  1.0001
16391SOL    HW250615   5.726   2.771   1.183  0.7426 -0.3876  0.5956
16392SOL     OW50616   6.735   0.528  10.793 -0.1557  0.2990  0.5042
16392SOL    HW150617   6.655   0.528  10.846 -0.5948  0.7586 -0.1464
16392SOL    HW250618   6.711   0.483  10.713  0.6359 -0.7893  0.8571
16393SOL     OW50619   2.612   5.492   0.227 -0.0905 -0.0577 -0.8441
16393SOL    HW150620   2.574   5.430   0.165 -0.8011 -2.1983  1.5537
16393SOL    HW250621   2.568   5.473   0.309  2.1266  1.3433  0.7757
16394SOL     OW50622   5.956   6.239  12.091  0.2992  0.6366 -0.6454
16394SOL    HW150623   6.031   6.251  12.033 -0.6952  1.0383 -1.8724
16394SOL    HW250624   5.909   6.322  12.088  0.5163  0.8844  1.2088
16395SOL     OW50625   5.257   1.688   6.775  0.0757 -0.9499  0.0431
16395SOL    HW150626   5.175   1.696   6.727 -0.1375 -1.0067  0.3926
16395SOL    HW250627   5.286   1.779   6.787 -0.2606 -0.8927  0.4649
16396SOL     OW50628   1.440   5.387   3.498  0.7878  0.7411 -0.1448
16396SOL    HW150629   1.467   5.314   3.554 -1.7721  0.7903  1.3021
16396SOL    HW250630   1.427   5.347   3.412  1.4405 -0.0669  0.1158
16397SOL     OW50631   4.939   0.160   1.115 -0.3149  0.4412 -0.4223
16397SOL    HW150632   4.940   0.252   1.143 -1.7120  0.5440 -0.6153
16397SOL    HW250633   4.948   0.111   1.197 -0.5866  0.7483 -0.2045
16398SOL     OW50634   1.617   2.728   8.999  0.0930  0.9982  0.4907
16398SOL    HW150635   1.649   2.726   8.909 -1.3622  2.0496 -0.0830
16398SOL    HW250636   1.687   2.771   9.048  0.1002  2.1782 -0.5085
16399SOL     OW50637   5.211   1.450   2.011 -0.3258 -0.1193 -0.7265
16399SOL    HW150638   5.279   1.384   1.995 -0.7838 -0.6391 -0.5447
16399SOL    HW250639   5.182   1.433   2.100 -0.5193  0.2722 -0.7119
16400SOL     OW50640   4.852   5.724   5.760 -1.3118  0.1207  0.2730
16400SOL    HW150641   4.851   5.794   5.694 -1.1249  1.9022  2.0576
16400SOL    HW250642   4.773   5.673   5.742 -0.8896  0.1007 -1.7503
16401SOL     OW50643   7.349   7.149   6.175  0.0560 -0.2647  0.0283
16401SOL    HW150644   7.438   7.127   6.145 -0.4248 -0.3858 -1.3775
16401SOL    HW250645   7.300   7.166   6.094 -0.4979  2.6728  0.8636
16402SOL     OW50646   7.735   3.686  10.422  0.1987  0.4546  0.0671
16402SOL    HW150647   7.761   3.767  10.378 -0.1209  0.3433 -0.3335
16402SOL    HW250648   7.702   3.630  10.352  1.2465 -0.3653  0.2042
16403SOL     OW50649   2.272   3.089   6.255  0.1230 -0.2050 -0.1890
16403SOL    HW150650   2.223   3.170   6.271  0.6495  0.2332 -0.7136
16403SOL    HW250651   2.342   3.090   6.320  0.4096  0.0094 -0.4929
16404SOL     OW50652   6.687   0.660  11.209  0.5116  0.0633  0.6029
16404SOL    HW150653   6.633   0.581  11.216  0.0441  0.4817  1.9303
16404SOL    HW250654   6.777   0.628  11.214  0.4077 -0.5817 -1.0593
16405SOL     OW50655   2.246   2.564   5.523  0.1140  0.4578 -0.2450
16405SOL    HW150656   2.216   2.474   5.509  0.0542  0.4279  0.0552
16405SOL    HW250657   2.262   2.569   5.618  0.1458  0.7542 -0.2647
16406SOL     OW50658   7.198   2.383   7.718  0.1124 -0.0346 -0.3813
16406SOL    HW150659   7.219   2.410   7.628  0.8064  1.9384  0.3332
16406SOL    HW250660   7.283   2.381   7.763 -0.3688  0.4415  0.5810
16407SOL     OW50661   4.315   0.992   0.975 -0.5931  0.2675 -0.2597
16407SOL    HW150662   4.389   1.024   0.923  0.8805 -1.3825  0.7078
16407SOL    HW250663   4.275   1.071   1.011  0.0453  1.2604 -1.6154
16408SOL     OW50664   3.383   1.132   3.476  0.2358 -0.0090 -0.0956
16408SOL    HW150665   3.333   1.135   3.557 -0.7778 -1.5076 -0.6074
16408SOL    HW250666   3.336   1.068   3.422  1.3695  0.3209 -1.5287
16409SOL     OW50667   0.689   7.099   5.661  0.2321 -0.2538 -0.0548
16409SOL    HW150668   0.679   7.105   5.756 -0.6685 -1.2840 -0.0611
16409SOL    HW250669   0.646   7.177   5.627 -0.3130 -0.3674  0.3532
16410SOL     OW50670   1.736   0.933   0.405 -0.1044  0.5265  0.2054
16410SOL    HW150671   1.645   0.928   0.431 -0.5225  0.6202 -1.1647
16410SOL    HW250672   1.752   1.026   0.389  0.0248  0.4299 -0.2386
16411SOL     OW50673   3.947   6.337   1.655  0.2243  0.1974  0.1361
16411SOL    HW150674   3.855   6.323   1.680 -0.1213  0.7950 -0.7695
16411SOL    HW250675   3.977   6.405   1.715  0.0235  0.1145  0.3335
16412SOL     OW50676   5.144   1.602   2.558 -0.1441 -0.6855  0.0680
16412SOL    HW150677   5.150   1.686   2.603  0.1946 -0.8024  0.2437
16412SOL    HW250678   5.063   1.608   2.507  0.7727  0.4701 -1.3675
16413SOL     OW50679   0.966   1.188   7.237 -0.3170  0.2232  0.1900
16413SOL    HW150680   0.994   1.179   7.328  2.0660  0.0124 -0.5127
16413SOL    HW250681   0.905   1.116   7.224  0.6355 -0.8044  1.1667
16414SOL     OW50682   4.290   7.698   3.508 -0.3553 -0.1913  0.8065
16414SOL    HW150683   4.240   7.714   3.427 -0.9096 -1.2290  0.9265
16414SOL    HW250684   4.253   7.759   3.571  1.7620  2.4521 -0.3283
16415SOL     OW50685   7.257   3.469   6.037 -0.1174  0.0392 -0.3039
16415SOL    HW150686   7.325   3.535   6.032  1.3763 -1.3983  0.0734
16415SOL    HW250687   7.303   3.390   6.066 -2.2348 -0.5768  1.6615
16416SOL     OW50688   5.332   6.386   2.049  0.2623 -0.0782 -0.1544
16416SOL    HW150689   5.352   6.463   1.997  0.9955 -0.8730 -1.0851
16416SOL    HW250690   5.354   6.411   2.139  0.5857  0.7472 -0.4577
16417SOL     OW50691   7.281   4.555  11.726  0.2352 -0.0628 -0.6505
16417SOL    HW150692   7.263   4.579  11.817  0.1265 -0.7528 -0.4805
16417SOL    HW250693   7.215   4.602  11.675  0.9764  1.1944 -0.4869
16418SOL     OW50694   5.182   5.066   7.174  1.0577 -0.3179  0.2741
16418SOL    HW150695   5.269   5.105   7.176  1.0591 -0.3324  0.5596
16418SOL    HW250696   5.132   5.114   7.240  0.5458  0.3822 -0.6151
16419SOL     OW50697   6.934   2.769   7.029 -0.0501 -0.2628  0.3151
16419SOL    HW150698   6.866   2.738   6.969 -1.3652 -0.2247  1.7227
16419SOL    HW250699   6.975   2.842   6.982 -1.7747  0.4915 -0.1315
16420SOL     OW50700   4.624   2.232   3.545 -0.3749  0.3019 -0.1387
16420SOL    HW150701   4.640   2.313   3.593  1.8940  0.5524 -1.1822
16420SOL    HW250702   4.710   2.189   3.541 -1.4963 -2.2052  0.4209
16421SOL     OW50703   3.415   1.608   1.460  0.3503  0.1822 -0.6952
16421SOL    HW150704   3.486   1.545   1.452  1.0875  1.0937 -1.7096
16421SOL    HW250705   3.390   1.605   1.552  1.0655 -0.8293 -0.5213
16422SOL     OW50706   1.273   3.403   5.160 -0.0567 -0.3577  0.2282
16422SOL    HW150707   1.327   3.481   5.149  0.9342 -0.7440  1.9072
16422SOL    HW250708   1.335   3.330   5.158 -1.0366 -1.2161 -1.9882
16423SOL     OW50709   6.033   4.705  11.462 -0.4648  0.4361  0.6226
16423SOL    HW150710   6.120   4.735  11.487 -0.1805 -1.4947  2.1774
16423SOL    HW250711   5.974   4.748  11.523 -0.4771  0.8664  0.3070
16424SOL     OW50712   2.108   3.445   1.627 -0.2740  1.0168  0.2774
16424SOL    HW150713   2.040   3.507   1.654 -0.0912  0.6301  1.6933
16424SOL    HW250714   2.084   3.421   1.537 -1.7842  1.1998  0.5995
16425SOL     OW50715   3.754   0.240   8.537  0.6752 -0.5073  0.0229
16425SOL    HW150716   3.791   0.228   8.625 -1.0336  0.9102  0.9822
16425SOL    HW250717   3.663   0.263   8.552  0.9169  2.1790 -2.0234
16426SOL     OW50718   5.552   6.257   1.181 -0.1065 -0.4863 -0.3770
16426SOL    HW150719   5.554   6.174   1.228  0.6914 -0.8743 -1.0552
16426SOL    HW250720   5.460   6.269   1.157 -0.0773 -1.7787 -1.2699
16427SOL     OW50721   5.344   6.496   2.338  0.0807  0.3960 -0.5284
16427SOL    HW150722   5.398   6.574   2.348 -1.3774  1.2055  1.5676
16427SOL    HW250723   5.369   6.440   2.412 -2.6271  1.2763  1.1729
16428SOL     OW50724   0.244   4.711   7.176 -0.0827  0.5175  0.0261
16428SOL    HW150725   0.198   4.705   7.260 -2.9916  0.4592 -1.4746
16428SOL    HW250726   0.239   4.803   7.152  0.4685  0.4793 -0.2497
16429SOL     OW50727   3.800   7.970   6.253  0.8007  0.3583 -0.0523
16429SOL    HW150728   3.796   8.019   6.335  1.1102  0.9043 -0.3623
16429SOL    HW250729   3.876   8.005   6.207 -0.7071  1.7564 -1.6372
16430SOL     OW50730   7.070   6.501   9.587 -0.0479 -0.4809 -0.6626
16430SOL    HW150731   7.041   6.580   9.540  0.3848 -1.0651 -1.9522
16430SOL    HW250732   7.009   6.433   9.559 -0.6704 -0.5316  0.7658
16431SOL     OW50733   3.297   7.684   4.686 -0.1944 -0.4337 -0.0856
16431SOL    HW150734   3.346   7.733   4.620  2.6790 -2.6355  0.2076
16431SOL    HW250735   3.258   7.612   4.637  1.3004 -1.6334  0.4133
16432SOL     OW50736   2.672   0.717   7.721  0.2436 -0.1475  0.1699
16432SOL    HW150737   2.619   0.797   7.721  0.5685  0.1005  1.8428
16432SOL    HW250738   2.755   0.743   7.683  0.8054  0.6769  1.8693
16433SOL     OW50739   4.352   1.553  10.813 -0.3078 -0.1830 -0.1615
16433SOL    HW150740   4.360   1.476  10.870  1.5453 -0.2348 -0.4030
16433SOL    HW250741   4.299   1.524  10.739 -1.0246 -0.7168  0.5501
16434SOL     OW50742   4.827   5.834   7.562 -0.1085  0.6654  0.0814
16434SOL    HW150743   4.911   5.875   7.542 -0.0046  0.4024 -0.0159
16434SOL    HW250744   4.846   5.776   7.636 -0.0903  0.1937 -0.2940
16435SOL     OW50745   0.181   1.721  10.100  0.0569  0.2674  0.0964
16435SOL    HW150746   0.147   1.633  10.119 -0.1488  0.4376  0.5391
16435SOL    HW250747   0.115   1.760  10.043 -0.5009  0.5889  0.9370
16436SOL     OW50748   4.595   1.358   1.117  0.1510 -0.3619  0.0525
16436SOL    HW150749   4.609   1.268   1.144 -0.1849  0.3022  2.6888
16436SOL    HW250750   4.675   1.404   1.145 -0.1521  0.3604 -0.2482
16437SOL     OW50751   0.958   5.197   0.624  0.5612 -0.4453  0.2057
16437SOL    HW150752   1.004   5.256   0.685 -0.4009 -0.0297  0.5516
16437SOL    HW250753   0.915   5.133   0.681  0.6000 -0.7519 -0.1079
16438SOL     OW50754   4.551   6.568   1.484 -0.0323  0.4028  0.4553
16438SOL    HW150755   4.478   6.512   1.456 -1.5306  0.9339  2.9354
16438SOL    HW250756   4.535   6.652   1.441 -2.4639  1.3074  2.7956
16439SOL     OW50757   2.683   2.272  10.578 -0.6876 -0.9197  0.0901
16439SOL    HW150758   2.749   2.246  10.514 -0.4963 -2.3193  0.8141
16439SOL    HW250759   2.690   2.367  10.584  0.9257 -1.0067 -0.2124
16440SOL     OW50760   1.652   0.043  11.849  0.1757 -0.4632  0.2838
16440SOL    HW150761   1.738   0.009  11.826  0.9647  0.7345  1.3595
16440SOL    HW250762   1.626   0.095  11.772 -0.6008 -2.5538 -0.9525
16441SOL     OW50763   6.074   6.382   9.139  0.2304  0.2277 -0.3298
16441SOL    HW150764   6.071   6.475   9.159  0.1287  0.6229 -2.0459
16441SOL    HW250765   5.982   6.355   9.135  0.2359 -0.5169  2.3690
16442SOL     OW50766   4.116   2.762   0.283 -0.0496  0.0276  0.1665
16442SOL    HW150767   4.161   2.678   0.274 -1.1098 -0.7823  1.8972
16442SOL    HW250768   4.140   2.793   0.371 -3.1366 -0.6796  1.3690
16443SOL     OW50769   6.536   2.775   7.709  0.0422  0.4859 -0.1673
16443SOL    HW150770   6.594   2.699   7.710  0.6488  0.9443 -0.1900
16443SOL    HW250771   6.528   2.800   7.801 -1.7832 -0.8135  0.0719
16444SOL     OW50772   6.311   3.885   7.327  0.4480 -0.5728  0.0699
16444SOL    HW150773   6.229   3.891   7.376  0.6488 -2.8020  0.7848
16444SOL    HW250774   6.358   3.966   7.349 -2.0439  1.4543 -1.4561
16445SOL     OW50775   1.445   7.680   7.898  0.7624 -0.0208  0.0364
16445SOL    HW150776   1.531   7.715   7.876  0.5103  1.1090  0.7886
16445SOL    HW250777   1.454   7.651   7.989  0.4301 -0.1801  0.0207
16446SOL     OW50778   5.210   6.302   0.173 -0.6043 -0.0233 -0.1192
16446SOL    HW150779   5.260   6.285   0.093  0.4792 -0.5074  0.6308
16446SOL    HW250780   5.118   6.292   0.147 -0.4396  2.1493 -1.8422
16447SOL     OW50781   3.578   5.385   2.145  0.0799  0.6510 -0.0434
16447SOL    HW150782   3.662   5.356   2.182 -0.8608 -0.0386  1.7154
16447SOL    HW250783   3.581   5.357   2.054  1.5512  0.1573  0.1238
16448SOL     OW50784   7.041   0.010  11.196 -0.0149  0.7185  0.1928
16448SOL    HW150785   6.973  -0.020  11.256  1.3006 -0.5695  1.1229
16448SOL    HW250786   7.048  -0.059  11.130  0.3479  0.8625  0.0774
16449SOL     OW50787   4.344   1.109   7.763  0.3045  0.1640  0.8154
16449SOL    HW150788   4.299   1.172   7.819  0.0616  0.9601 -0.2470
16449SOL    HW250789   4.325   1.138   7.674 -0.5480 -1.9119  0.2477
16450SOL     OW50790   6.308   5.483  10.978 -0.7229  0.7306  0.7480
16450SOL    HW150791   6.266   5.450  10.899 -0.7394 -0.9009  1.3954
16450SOL    HW250792   6.400   5.457  10.969 -0.8532 -0.0712  1.5378
16451SOL     OW50793   1.664   4.807   3.190 -0.0667  0.1629  0.0278
16451SOL    HW150794   1.618   4.768   3.264 -2.1429 -1.2829 -1.9092
16451SOL    HW250795   1.596   4.852   3.140  0.9842 -0.1656 -1.7981
16452SOL     OW50796   6.913   0.814   4.067  0.3710 -0.0263  0.0866
16452SOL    HW150797   6.894   0.906   4.048  2.2777  0.4117  0.1495
16452SOL    HW250798   6.952   0.814   4.154  0.7106 -0.8462 -0.0538
16453SOL     OW50799   6.456   4.872   4.664 -0.1793 -0.3457  0.7546
16453SOL    HW150800   6.454   4.937   4.595 -0.5739 -1.5471 -0.4120
16453SOL    HW250801   6.549   4.852   4.676 -0.0773  0.2093  0.9214
16454SOL     OW50802   2.784   1.410   1.363 -0.3810 -0.6277  0.3608
16454SOL    HW150803   2.876   1.432   1.380  0.0084 -0.3290 -1.8290
16454SOL    HW250804   2.785   1.315   1.349 -0.6084 -0.7896  1.3670
16455SOL     OW50805   4.258   7.274   8.519 -0.0154  0.1799  0.4234
16455SOL    HW150806   4.265   7.192   8.470  4.8118  0.9455 -0.6424
16455SOL    HW250807   4.205   7.331   8.463 -0.8502 -1.2210 -0.2709
16456SOL     OW50808   3.869   5.302   9.420 -0.3648  0.0870 -0.1710
16456SOL    HW150809   3.958   5.273   9.442 -0.7666 -1.1147 -0.0535
16456SOL    HW250810   3.854   5.377   9.478  0.8271  0.7647 -0.7072
16457SOL     OW50811   4.840   4.802  11.827 -0.5854 -0.4808 -0.1819
16457SOL    HW150812   4.902   4.829  11.895 -1.1035  0.4709 -0.0702
16457SOL    HW250813   4.762   4.856  11.842 -0.4120  0.3601 -2.0387
16458SOL     OW50814   2.763   1.718  11.359 -0.4010 -0.0573  0.2555
16458SOL    HW150815   2.770   1.739  11.452 -1.3265 -0.1476  0.3583
16458SOL    HW250816   2.699   1.646  11.356 -0.1299 -0.2768 -0.4210
16459SOL     OW50817   7.173   4.271  11.547  0.0059  0.4754 -0.2044
16459SOL    HW150818   7.212   4.228  11.624 -0.4240  0.4601  0.0100
16459SOL    HW250819   7.244   4.324  11.511  0.4596 -0.1663 -0.2881
16460SOL     OW50820   1.187   6.845   2.714 -0.1191 -0.0530 -0.0322
16460SOL    HW150821   1.104   6.858   2.760 -0.2520  2.0107 -0.7555
16460SOL    HW250822   1.247   6.908   2.755  0.5511 -0.2134 -0.7498
16461SOL     OW50823   6.527   1.931   2.653 -0.1188  0.2450  0.0596
16461SOL    HW150824   6.548   1.908   2.743 -1.5429  1.3604  0.7364
16461SOL    HW250825   6.475   1.857   2.620  0.6988 -0.3187  0.0298
16462SOL     OW50826   4.285   3.938   5.514  0.3583 -0.2455 -0.0323
16462SOL    HW150827   4.348   3.970   5.450  0.2457 -1.8173 -0.9782
16462SOL    HW250828   4.203   3.931   5.466  0.3588 -1.7976  0.1551
16463SOL     OW50829   2.634   7.772   5.777 -0.4235 -0.5328 -0.0089
16463SOL    HW150830   2.564   7.804   5.835  0.0119 -0.3261  0.4080
16463SOL    HW250831   2.588   7.721   5.710 -0.9018 -1.2230  0.8151
16464SOL     OW50832   6.256   4.675   0.010  0.2833 -0.5915  0.4127
16464SOL    HW150833   6.171   4.632   0.003  0.6032 -1.3271  0.9801
16464SOL    HW250834   6.286   4.655   0.099  2.3399 -2.8127 -0.6607
16465SOL     OW50835   1.822   3.737  10.382 -0.3790  0.2511 -0.4272
16465SOL    HW150836   1.793   3.810  10.437  2.3178  0.0200  1.5077
16465SOL    HW250837   1.897   3.771  10.334 -1.0866 -0.3535 -2.0292
16466SOL     OW50838   4.859   4.198   4.231  0.6351 -0.1020 -0.6733
16466SOL    HW150839   4.772   4.191   4.270  0.9258  2.0339  0.5173
16466SOL    HW250840   4.845   4.242   4.147  0.5247 -0.1928 -0.7025
16467SOL     OW50841   0.865   1.859   0.936 -0.6985 -0.6211  0.1300
16467SOL    HW150842   0.845   1.826   1.023  0.0885  1.0818  0.9929
16467SOL    HW250843   0.945   1.909   0.947 -1.5259  1.0896 -1.2102
16468SOL     OW50844   0.268   4.123   0.851  0.5138 -0.0820  0.1428
16468SOL    HW150845   0.218   4.134   0.770  0.4797 -2.2085 -0.1911
16468SOL    HW250846   0.289   4.029   0.853 -0.3917 -0.3279  3.1150
16469SOL     OW50847   3.331   0.821   6.304  0.0712 -0.1204  0.3925
16469SOL    HW150848   3.328   0.856   6.215  0.5769 -0.1833  0.3514
16469SOL    HW250849   3.243   0.838   6.339 -0.8850 -2.1154 -0.8725
16470SOL     OW50850   5.989   7.686   2.121 -0.1013  0.0292 -0.1511
16470SOL    HW150851   6.047   7.694   2.046  0.2877  1.1292  0.2515
16470SOL    HW250852   6.017   7.605   2.165  0.1119 -0.2517 -0.7950
16471SOL     OW50853   5.964   4.307   4.841 -0.3038  0.0971  0.1045
16471SOL    HW150854   5.996   4.352   4.920 -1.9735  1.4722  0.0729
16471SOL    HW250855   5.904   4.371   4.801 -0.8340 -1.2545 -1.3242
16472SOL     OW50856   3.336   0.348  11.251  0.6031 -0.0108  0.6935
16472SOL    HW150857   3.287   0.430  11.241 -0.9228 -0.7837  1.5935
16472SOL    HW250858   3.365   0.348  11.342  1.4565 -0.0437  0.4397
16473SOL     OW50859   3.730   5.701   0.816 -0.0340 -0.2566 -0.0160
16473SOL    HW150860   3.697   5.791   0.827  1.5763  0.6046 -1.5971
16473SOL    HW250861   3.824   5.709   0.831  0.0293 -1.8742  0.5802
16474SOL     OW50862   0.163   2.412  10.386  0.4619  0.0116 -0.1834
16474SOL    HW150863   0.107   2.410  10.464  2.6989  0.3210  1.5435
16474SOL    HW250864   0.192   2.322  10.376 -2.1890 -0.7371 -2.6583
16475SOL     OW50865   6.278   0.972  11.299 -0.2018  0.3183 -0.2485
16475SOL    HW150866   6.292   0.890  11.347 -3.3037  0.5083  1.2263
16475SOL    HW250867   6.275   1.039  11.367  0.0103  1.3354 -1.2187
16476SOL     OW50868   3.333   0.555   2.883 -0.0448  0.0190 -0.2712
16476SOL    HW150869   3.242   0.535   2.903  0.3978 -1.7115  0.1921
16476SOL    HW250870   3.384   0.493   2.936  1.3138 -1.2613 -2.8455
16477SOL     OW50871   5.572   3.474   9.614  0.0938 -0.0432  0.1228
16477SOL    HW150872   5.523   3.445   9.537  2.1837 -0.6599 -1.0660
16477SOL    HW250873   5.506   3.488   9.682 -1.6256 -1.3100 -1.2260
16478SOL     OW50874   5.827   3.680   1.793 -0.4017  0.2627  0.0966
16478SOL    HW150875   5.913   3.672   1.751  0.1246 -0.4898  1.2586
16478SOL    HW250876   5.786   3.754   1.749  1.6329  1.9200  0.8269
16479SOL     OW50877   1.329   5.166   5.681  0.3947  0.4857  0.5917
16479SOL    HW150878   1.254   5.145   5.625  1.5198  1.4615 -1.3944
16479SOL    HW250879   1.311   5.121   5.764 -1.9984  0.0912 -0.0752
16480SOL     OW50880   3.573   0.799   3.793 -0.0797  0.1464 -0.2350
16480SOL    HW150881   3.619   0.865   3.741 -0.3560 -0.1407 -0.8513
16480SOL    HW250882   3.483   0.801   3.759  0.2260 -1.5235 -1.2269
16481SOL     OW50883   4.321   6.763   9.061 -0.0970 -0.4844 -0.0846
16481SOL    HW150884   4.375   6.685   9.059  0.3206 -0.2122  0.3383
16481SOL    HW250885   4.301   6.776   9.154  0.5777  0.4015 -0.0466
16482SOL     OW50886   5.691   2.093  12.289 -0.2876  0.4167  0.2704
16482SOL    HW150887   5.596   2.081  12.296 -0.3068  0.0254 -0.5529
16482SOL    HW250888   5.702   2.188  12.276 -0.5513  0.4813  0.5006
16483SOL     OW50889   2.804   0.845   8.345 -0.5271  0.0756 -1.0699
16483SOL    HW150890   2.780   0.929   8.307 -0.6902 -0.2785 -1.7688
16483SOL    HW250891   2.880   0.817   8.295 -0.3925 -0.1277 -0.7509
16484SOL     OW50892   7.285   3.042   1.246  0.2056  0.1659  0.3957
16484SOL    HW150893   7.296   3.052   1.151 -0.9407  0.1167  0.2524
16484SOL    HW250894   7.251   3.126   1.275  0.2250  0.0649  0.7124
16485SOL     OW50895   2.705   2.253   5.295  0.4192 -0.1820 -0.4245
16485SOL    HW150896   2.740   2.169   5.325  0.0744 -0.5575 -1.0318
16485SOL    HW250897   2.660   2.289   5.371  0.4656 -0.6139 -0.1889
16486SOL     OW50898   2.483   3.997  11.425  0.1822  0.1375 -0.3481
16486SOL    HW150899   2.568   4.006  11.382  1.6293  2.7868  2.6429
16486SOL    HW250900   2.486   3.912  11.467  1.5682  0.3755  0.0702
16487SOL     OW50901   3.074   6.752  11.496 -0.2990 -0.5693  0.1287
16487SOL    HW150902   3.113   6.834  11.468 -0.7547 -0.4568 -0.2016
16487SOL    HW250903   2.985   6.755  11.460 -1.3888  0.1592  2.6384
16488SOL     OW50904   2.173   0.421   6.278 -0.0571 -0.0615 -0.0205
16488SOL    HW150905   2.191   0.463   6.195  4.2306  0.1983  0.8066
16488SOL    HW250906   2.144   0.333   6.254  0.7603  0.1086 -1.8112
16489SOL     OW50907   2.622   1.765  11.002 -0.4040 -0.3092  0.0485
16489SOL    HW150908   2.713   1.738  11.011 -0.5453 -0.4762  1.1559
16489SOL    HW250909   2.573   1.696  11.047 -1.0551 -0.0589 -0.2664
16490SOL     OW50910   1.734   0.961   8.088  0.2614 -0.3085 -0.3738
16490SOL    HW150911   1.669   0.935   8.154 -0.1641 -0.8089 -0.9842
16490SOL    HW250912   1.774   0.880   8.059 -0.6999 -0.2869 -1.8974
16491SOL     OW50913   1.066   2.219  10.961  0.4034  0.0813 -0.1597
16491SOL    HW150914   1.036   2.246  11.048 -0.4845  0.9239 -0.7026
16491SOL    HW250915   1.114   2.294  10.928 -1.7816  0.9734 -1.5437
16492SOL     OW50916   5.871   4.048   2.641  0.3316 -0.2369  0.4316
16492SOL    HW150917   5.874   3.996   2.721 -0.7101  0.4719  0.9590
16492SOL    HW250918   5.778   4.057   2.622  0.5674 -1.3144 -1.5020
16493SOL     OW50919   2.217   4.515  10.807  0.3932  0.2758 -0.1471
16493SOL    HW150920   2.292   4.574  10.801  1.2471 -0.6823  0.7456
16493SOL    HW250921   2.254   4.428  10.790  0.1098 -0.6047  3.0275
16494SOL     OW50922   2.322   1.095   7.354 -0.3641  0.3972  0.7048
16494SOL    HW150923   2.227   1.108   7.349 -0.5904 -1.3423 -1.9609
16494SOL    HW250924   2.332   1.002   7.374  0.7227  0.3552  0.0700
16495SOL     OW50925   5.954   2.666   8.270 -0.3965  0.4819  0.1151
16495SOL    HW150926   5.929   2.576   8.291 -0.3913  0.7684  1.4550
16495SOL    HW250927   5.883   2.719   8.306 -0.7803  0.9855 -1.3474
16496SOL     OW50928   6.400   5.936  11.779 -1.0129 -0.4744  0.1403
16496SOL    HW150929   6.459   5.885  11.723  1.1042 -0.7336  2.4074
16496SOL    HW250930   6.312   5.917  11.746 -0.0368 -2.5343 -1.4936
16497SOL     OW50931   2.367   4.081   9.188  0.1831  0.2455  0.2563
16497SOL    HW150932   2.326   4.168   9.194  0.8872  0.5784  0.3628
16497SOL    HW250933   2.446   4.096   9.135 -1.1306 -0.8558 -2.2207
16498SOL     OW50934   7.428   2.335   0.722 -0.0276  0.0373  0.5312
16498SOL    HW150935   7.495   2.402   0.713  1.7163 -1.7773 -0.8805
16498SOL    HW250936   7.396   2.346   0.812  2.6030  0.6355  1.4974
16499SOL     OW50937   2.346   6.446   9.425  0.3660 -0.6180 -0.2913
16499SOL    HW150938   2.372   6.509   9.358 -0.6153 -0.3209 -0.3965
16499SOL    HW250939   2.251   6.453   9.430  0.2737 -1.8444 -0.0539
16500SOL     OW50940   5.997   7.620   9.088 -0.2560  0.6766 -0.1271
16500SOL    HW150941   5.938   7.686   9.051 -1.4327  0.0135  0.5222
16500SOL    HW250942   6.020   7.655   9.175  2.7315  2.3746 -1.4362
16501SOL     OW50943   0.111   4.855  10.681 -0.4422  0.4851  0.1382
16501SOL    HW150944   0.200   4.829  10.703 -0.6826 -1.9726 -1.4388
16501SOL    HW250945   0.108   4.852  10.585 -1.8452  1.9825  0.0800
16502SOL     OW50946   1.474   6.180  11.442  0.0689  0.6584  0.2249
16502SOL    HW150947   1.432   6.128  11.373 -0.0550 -0.9086  1.4195
16502SOL    HW250948   1.402   6.228  11.483  0.1525  1.6448 -0.7569
16503SOL     OW50949   1.077   2.185   5.612 -0.6016  0.1685  0.0526
16503SOL    HW150950   0.993   2.147   5.587  0.0446 -0.1269 -1.9261
16503SOL    HW250951   1.089   2.258   5.551 -0.1748  1.2893  1.4260
16504SOL     OW50952   1.948   2.718   3.992  0.1639  0.1704  0.1417
16504SOL    HW150953   1.988   2.800   4.021  0.0256  0.9788 -1.8192
16504SOL    HW250954   2.020   2.666   3.957 -0.0010  0.2098 -0.2635
16505SOL     OW50955   3.383   6.066  10.646  0.0837  0.4801 -0.5952
16505SOL    HW150956   3.307   6.036  10.696  0.9171  1.0253  1.0576
16505SOL    HW250957   3.349   6.137  10.591 -0.8452 -0.1151 -0.8138
16506SOL     OW50958   0.862   7.849  10.856  0.2945 -0.2498 -0.0650
16506SOL    HW150959   0.923   7.916  10.825 -2.5129  0.9676 -3.7584
16506SOL    HW250960   0.890   7.769  10.811 -0.6248  0.2898 -1.6971
16507SOL     OW50961   5.790   7.737   4.324 -1.0671 -0.0852  0.2447
16507SOL    HW150962   5.827   7.672   4.265  1.1872 -0.0138  1.4953
16507SOL    HW250963   5.805   7.702   4.412 -3.7066  0.1399  0.8877
16508SOL     OW50964   0.544   6.401   0.062 -0.3452 -0.4837 -0.0683
16508SOL    HW150965   0.509   6.316   0.033  2.0370 -1.6315  0.2377
16508SOL    HW250966   0.627   6.380   0.103 -0.0041  1.9710  0.6291
16509SOL     OW50967   4.170   2.068   9.976  0.1658 -0.4475  0.3681
16509SOL    HW150968   4.231   2.095  10.045 -0.1683 -0.9368  0.8649
16509SOL    HW250969   4.085   2.103  10.005 -0.0300 -0.9186  0.3606
16510SOL     OW50970   7.202   0.707   0.015  0.2319 -0.0248  0.2739
16510SOL    HW150971   7.203   0.797   0.045 -0.5930 -0.2838  1.1257
16510SOL    HW250972   7.171   0.712  -0.076 -1.0829  0.4450  0.7310
16511SOL     OW50973   1.968   2.369   8.826  0.0423 -0.3238 -0.3071
16511SOL    HW150974   1.997   2.394   8.738 -0.6537  0.2758 -0.3775
16511SOL    HW250975   2.010   2.432   8.884  0.5215 -0.7348 -0.2010
16512SOL     OW50976   2.707   5.113   8.796  0.1693 -0.0059  0.4785
16512SOL    HW150977   2.682   5.078   8.882  1.9936  0.8273  1.4147
16512SOL    HW250978   2.800   5.091   8.788  0.7033  2.2378 -0.0720
16513SOL     OW50979   2.236   3.888   9.062  0.0908 -0.3545  0.0151
16513SOL    HW150980   2.295   3.816   9.083 -0.5294 -1.1516 -0.9047
16513SOL    HW250981   2.281   3.966   9.093  1.8201 -0.8845 -1.0834
16514SOL     OW50982   4.636   0.438   3.184  0.2782 -0.4113  0.0742
16514SOL    HW150983   4.594   0.479   3.260  0.7505  1.3539 -0.5491
16514SOL    HW250984   4.629   0.505   3.115  1.3457 -1.3095 -0.9386
16515SOL     OW50985   6.941   6.610   2.545 -0.0271 -0.4454 -0.8288
16515SOL    HW150986   6.974   6.683   2.598  0.0650 -1.4867  0.5922
16515SOL    HW250987   6.888   6.559   2.605 -0.3334 -1.4089 -1.8861
16516SOL     OW50988   3.010   2.383   0.161 -0.3161 -0.2003 -0.8434
16516SOL    HW150989   3.048   2.470   0.169 -0.0661 -0.3253 -0.6721
16516SOL    HW250990   3.069   2.326   0.211 -2.4770  0.0962  2.3707
16517SOL     OW50991   3.851   6.385  12.434 -0.1626 -0.6394 -0.2280
16517SOL    HW150992   3.946   6.378  12.437 -0.0977 -0.6383 -1.5259
16517SOL    HW250993   3.820   6.311  12.487  0.5792 -1.9276 -1.4909
16518SOL     OW50994   1.841   7.965   7.137  0.3273  0.1809 -0.0219
16518SOL    HW150995   1.855   8.059   7.139  0.8363  0.1056  0.0384
16518SOL    HW250996   1.909   7.931   7.078 -0.2928 -0.0724 -0.6018
16519SOL     OW50997   4.108   1.183   0.240 -0.4323 -0.1629 -0.1066
16519SOL    HW150998   4.158   1.245   0.186 -2.0927  1.9825  0.6622
16519SOL    HW250999   4.166   1.108   0.251  1.5915  1.1433 -1.3149
16520SOL     OW51000   1.846   4.184   4.388 -0.1275 -0.4862  0.2159
16520SOL    HW151001   1.759   4.214   4.360  0.0487  1.0070  1.1512
16520SOL    HW251002   1.902   4.261   4.379  1.2385 -1.5598 -0.8181
16521SOL     OW51003   3.905   7.540   2.825 -0.3628 -0.0703 -0.1704
16521SOL    HW151004   3.888   7.634   2.826 -0.5569 -0.0911 -1.1774
16521SOL    HW251005   3.916   7.518   2.733  2.7435 -0.4896  0.1983
16522SOL     OW51006   0.973   2.497   6.785 -0.0033  0.7785  0.0202
16522SOL    HW151007   0.912   2.426   6.766  1.1184  0.2948 -1.9744
16522SOL    HW251008   1.033   2.461   6.850  0.1667  0.1167 -0.4994
16523SOL     OW51009   3.067   7.951   6.191  0.4482 -0.3997 -0.2272
16523SOL    HW151010   3.043   7.868   6.148 -0.6889  0.3617 -1.1291
16523SOL    HW251011   3.067   8.015   6.120 -0.0828  0.6345  0.6761
16524SOL     OW51012   3.263   6.569   5.143  0.1492  0.1334 -0.5565
16524SOL    HW151013   3.307   6.587   5.226 -0.1703 -0.3591 -0.2754
16524SOL    HW251014   3.287   6.478   5.123  1.6500  0.7902 -1.8941
16525SOL     OW51015   6.995   2.988   0.537 -0.0696 -0.5182  0.1846
16525SOL    HW151016   7.001   2.902   0.497  0.7027  0.1826 -1.3008
16525SOL    HW251017   6.939   2.976   0.614  0.0555 -2.3254  0.0197
16526SOL     OW51018   6.781   3.497  12.306  0.2033  0.4819  0.2865
16526SOL    HW151019   6.741   3.583  12.314  0.0248  0.6060 -1.4592
16526SOL    HW251020   6.858   3.512  12.251 -1.5949 -0.8837 -2.9191
16527SOL     OW51021   6.613   2.689   4.405  0.1161 -0.2134  0.6670
16527SOL    HW151022   6.669   2.657   4.476  1.6077 -1.2781 -0.9185
16527SOL    HW251023   6.540   2.627   4.402  0.1019 -0.2267  1.1670
16528SOL     OW51024   0.932   7.665  11.689  0.6156 -0.9065 -0.0492
16528SOL    HW151025   0.954   7.614  11.612  0.3321  0.0198 -0.7552
16528SOL    HW251026   1.008   7.721  11.704 -0.3606  0.8637 -1.3064
16529SOL     OW51027   3.576   0.350   4.181  0.4692 -0.8786 -0.0286
16529SOL    HW151028   3.529   0.353   4.097 -0.2114 -1.9744  0.2949
16529SOL    HW251029   3.638   0.423   4.176 -1.2865  0.6610 -0.4366
16530SOL     OW51030   2.513   7.642   8.429 -0.4710 -0.0316  0.3876
16530SOL    HW151031   2.596   7.671   8.391  0.3693 -2.2204  0.3719
16530SOL    HW251032   2.533   7.626   8.522 -0.9303 -0.3058  0.4434
16531SOL     OW51033   0.655   1.600  12.340 -0.0328  0.1843 -0.1704
16531SOL    HW151034   0.725   1.564  12.395 -0.5335  0.7249  0.8534
16531SOL    HW251035   0.698   1.621  12.257  0.1869 -3.2706 -1.0814
16532SOL     OW51036   1.666   3.893   5.794  0.0922 -0.1930 -0.0696
16532SOL    HW151037   1.755   3.861   5.809  0.5124  1.3472  0.8963
16532SOL    HW251038   1.655   3.966   5.854 -1.3669  0.5123 -1.1048
16533SOL     OW51039   6.292   4.688  11.041 -0.1460 -0.0693 -0.7774
16533SOL    HW151040   6.233   4.623  11.003 -0.4826 -0.0570 -0.2746
16533SOL    HW251041   6.372   4.679  10.990  0.0322 -1.3082 -0.3262
16534SOL     OW51042   2.334   1.392   5.257  0.5052 -0.6439  0.2516
16534SOL    HW151043   2.278   1.436   5.321  1.9450 -0.2604  1.3114
16534SOL    HW251044   2.407   1.452   5.243  0.2443 -0.7284 -1.7834
16535SOL     OW51045   6.827   0.767   7.402 -0.3575 -0.0812  0.1554
16535SOL    HW151046   6.807   0.857   7.427 -1.0579 -0.3530  0.6193
16535SOL    HW251047   6.784   0.756   7.317  0.0574  0.1349 -0.0859
16536SOL     OW51048   4.644   6.736   2.088 -0.2869 -0.0474  0.2128
16536SOL    HW151049   4.731   6.738   2.048  0.7752  3.2711  2.2792
16536SOL    HW251050   4.654   6.678   2.164 -0.0397 -0.1394  0.1098
16537SOL     OW51051   1.949   1.543   0.306 -0.2017  0.8052  0.3872
16537SOL    HW151052   1.950   1.557   0.401 -1.0064 -1.4790  0.7780
16537SOL    HW251053   1.857   1.552   0.282 -0.4007 -1.0962  0.2846
16538SOL     OW51054   6.325   1.958   8.794 -0.6121  0.2763  0.2517
16538SOL    HW151055   6.234   1.986   8.805 -0.0150  2.1161  0.9001
16538SOL    HW251056   6.329   1.925   8.705 -1.6405  1.4335 -0.2614
16539SOL     OW51057   2.450   3.464   4.313 -0.5058  0.5261 -0.2030
16539SOL    HW151058   2.443   3.449   4.408 -1.7236  1.7116 -0.0749
16539SOL    HW251059   2.542   3.445   4.293 -0.3335 -0.1938  1.1223
16540SOL     OW51060   7.396   7.235   9.314 -0.4497 -0.1336 -0.6148
16540SOL    HW151061   7.459   7.175   9.355 -0.0195 -0.4854 -1.7344
16540SOL    HW251062   7.420   7.321   9.347  0.4666 -0.2968 -0.8019
16541SOL     OW51063   2.677   6.570   6.347 -0.3799 -0.1743 -0.1677
16541SOL    HW151064   2.713   6.638   6.291 -0.8622 -1.6410 -2.3960
16541SOL    HW251065   2.638   6.507   6.286 -0.9068 -1.8969  1.8300
16542SOL     OW51066   2.380   1.478   9.215 -0.6006 -0.1168  0.1526
16542SOL    HW151067   2.459   1.456   9.264 -0.6291  0.2183  0.3507
16542SOL    HW251068   2.397   1.446   9.126 -0.8471 -1.4210  0.5469
16543SOL     OW51069   0.367   7.060  10.598  0.0101  0.1048 -0.5362
16543SOL    HW151070   0.321   7.031  10.519  1.4356 -1.6856 -0.7587
16543SOL    HW251071   0.377   7.155  10.586 -2.7812  0.4504 -0.8512
16544SOL     OW51072   2.446   5.521  12.195 -0.5747  0.7415 -0.1345
16544SOL    HW151073   2.513   5.454  12.212  0.9952  2.1385 -0.5985
16544SOL    HW251074   2.438   5.523  12.100 -1.1415  0.7092 -0.0868
16545SOL     OW51075   7.613   1.067   6.285 -0.0513 -0.7945  0.5060
16545SOL    HW151076   7.625   1.108   6.200 -0.8019  0.2299  0.8691
16545SOL    HW251077   7.615   0.973   6.267  1.8715 -0.6549 -0.3300
16546SOL     OW51078   4.945   2.766   1.536  0.3557  0.3211  0.4283
16546SOL    HW151079   5.020   2.777   1.595 -0.4984  1.0525  1.4026
16546SOL    HW251080   4.924   2.855   1.507  0.5095  0.0094 -0.6657
16547SOL     OW51081   7.573   3.800   8.155  0.3347 -0.4165  0.1089
16547SOL    HW151082   7.574   3.850   8.073  1.7098  0.5862  0.7048
16547SOL    HW251083   7.526   3.855   8.217 -0.1079 -0.8740  0.1893
16548SOL     OW51084   0.283   6.815   8.952 -0.0692 -0.1283  0.7050
16548SOL    HW151085   0.201   6.863   8.958 -0.2037 -0.0661 -1.0730
16548SOL    HW251086   0.286   6.783   8.862  1.8441 -0.1619  0.7287
16549SOL     OW51087   7.611   1.178   2.623  0.1405 -0.3333 -0.3287
16549SOL    HW151088   7.577   1.268   2.628  2.1739  0.4350  1.1942
16549SOL    HW251089   7.535   1.123   2.640 -0.9487  1.1392 -0.1933
16550SOL     OW51090   2.494   7.890  11.727  0.0319 -0.1203 -0.0412
16550SOL    HW151091   2.538   7.942  11.795 -0.1796  0.1643 -0.1166
16550SOL    HW251092   2.496   7.946  11.650 -0.0826 -0.2802 -0.1601
16551SOL     OW51093   1.329   0.732   2.208  0.0127  0.0167  0.4432
16551SOL    HW151094   1.352   0.825   2.212 -2.1386  0.5781  1.2915
16551SOL    HW251095   1.345   0.700   2.296  1.2696 -0.5741  0.0113
16552SOL     OW51096   4.109   2.567   4.820 -0.0229  0.0664  0.5016
16552SOL    HW151097   4.014   2.557   4.826  0.0031 -2.0333 -1.3208
16552SOL    HW251098   4.129   2.638   4.881 -2.5408 -0.5588  2.2474
16553SOL     OW51099   5.765   1.365   2.061 -0.0664 -0.4246  0.2985
16553SOL    HW151100   5.732   1.332   2.144 -1.5836 -1.1810 -0.5721
16553SOL    HW251101   5.750   1.293   1.999 -2.9882  1.6030 -1.5658
16554SOL     OW51102   2.914   5.339  12.133 -0.6192  0.7385 -0.2835
16554SOL    HW151103   2.958   5.371  12.054  1.2328 -0.6768  0.1024
16554SOL    HW251104   2.934   5.405  12.199  0.2505  0.5439 -0.3305
16555SOL     OW51105   6.597   4.899  11.226  0.4636 -0.5054 -0.1117
16555SOL    HW151106   6.650   4.830  11.265  0.8186 -0.0595  0.2102
16555SOL    HW251107   6.605   4.885  11.131 -1.1325 -2.1421 -0.0638
16556SOL     OW51108   4.094   4.042   8.072 -0.3207 -0.6004 -0.1290
16556SOL    HW151109   4.028   4.110   8.086 -0.7230 -0.7789 -1.0647
16556SOL    HW251110   4.153   4.079   8.006 -0.7169 -1.2655 -0.8743
16557SOL     OW51111   6.787   7.976   2.373  0.3713 -0.5385 -0.1197
16557SOL    HW151112   6.820   8.056   2.332  0.0762  0.4673  1.5200
16557SOL    HW251113   6.866   7.929   2.401  0.5191 -0.2490 -0.0508
16558SOL     OW51114   0.279   6.047   8.021  0.2139  0.4304  0.1115
16558SOL    HW151115   0.323   6.068   8.103 -0.0553  2.6235 -0.2383
16558SOL    HW251116   0.269   6.132   7.977 -0.1600 -0.6089 -1.9290
16559SOL     OW51117   5.933   6.832   7.468 -0.0603 -0.5089  0.4310
16559SOL    HW151118   5.867   6.770   7.435 -1.7590  1.6071 -0.4100
16559SOL    HW251119   5.994   6.844   7.395  3.2780 -4.6958  2.1058
16560SOL     OW51120   2.684   4.250   9.635 -0.0110 -0.3885  0.1507
16560SOL    HW151121   2.757   4.189   9.645  0.8984  0.6331 -0.0490
16560SOL    HW251122   2.607   4.194   9.626  0.9095 -1.5277 -0.9729
16561SOL     OW51123   0.595   3.747  10.980  0.2325 -0.1876 -0.3259
16561SOL    HW151124   0.678   3.786  10.952 -0.0241  0.2514 -0.4752
16561SOL    HW251125   0.613   3.713  11.068  1.1210 -1.7679 -1.0501
16562SOL     OW51126   5.124   6.633  10.202 -0.2745  0.4727 -0.6765
16562SOL    HW151127   5.047   6.597  10.157 -1.2313 -0.1406  1.3289
16562SOL    HW251128   5.190   6.564  10.194 -0.9926 -0.3639  0.2436
16563SOL     OW51129   4.942   2.830   6.933 -0.4965  0.1116  0.1199
16563SOL    HW151130   4.934   2.795   6.844  0.2121  0.3891 -0.0618
16563SOL    HW251131   4.896   2.914   6.929 -2.1839 -0.7591  0.5537
16564SOL     OW51132   0.167   3.732   9.918  0.1581 -0.2130  0.5676
16564SOL    HW151133   0.211   3.801   9.967 -1.1287  0.5977  0.6294
16564SOL    HW251134   0.107   3.691   9.982 -0.1388 -0.4183  0.1650
16565SOL     OW51135   5.779   4.358   3.985  0.2433 -0.6302  0.4186
16565SOL    HW151136   5.724   4.391   4.055  1.0544  0.1596  0.7005
16565SOL    HW251137   5.852   4.315   4.030  1.6042  1.2350  0.1344
16566SOL     OW51138   2.883   1.128  11.511 -0.8183  0.3078 -0.4116
16566SOL    HW151139   2.825   1.058  11.539 -2.1155  1.0945 -1.0472
16566SOL    HW251140   2.842   1.208  11.543 -0.3327  0.9199 -1.2565
16567SOL     OW51141   4.668   4.024   5.112  0.0379  0.5649 -0.5494
16567SOL    HW151142   4.739   4.048   5.171  1.1198  0.1405 -1.6157
16567SOL    HW251143   4.704   3.952   5.060 -0.3882  1.7251 -2.5723
16568SOL     OW51144   6.099   0.656   5.955  0.0609 -0.4519  0.4761
16568SOL    HW151145   6.094   0.696   5.868 -1.8590 -1.3073  0.1336
16568SOL    HW251146   6.019   0.684   5.999  0.4865 -0.9057  1.5723
16569SOL     OW51147   1.706   4.493   1.198  0.4516 -0.5810  0.2688
16569SOL    HW151148   1.765   4.462   1.266  1.4455  0.4912 -0.0679
16569SOL    HW251149   1.635   4.536   1.246  1.6449  1.0607  0.6751
16570SOL     OW51150   5.003   4.106  11.818 -0.3767  0.1343 -0.1932
16570SOL    HW151151   4.926   4.159  11.796 -0.1436 -0.0625 -1.5781
16570SOL    HW251152   4.986   4.075  11.907 -0.0732  3.2917  1.0895
16571SOL     OW51153   4.735   6.114   0.446 -0.0996  0.1101  0.2445
16571SOL    HW151154   4.791   6.191   0.439 -1.4067  1.1639  1.0047
16571SOL    HW251155   4.795   6.040   0.436  1.0347  1.2074 -1.5472
16572SOL     OW51156   6.901   4.638   9.427  0.6390  0.1517 -0.2459
16572SOL    HW151157   6.957   4.620   9.352  1.5098 -1.2232  0.6804
16572SOL    HW251158   6.933   4.721   9.462  0.9679  0.2301 -0.7273
16573SOL     OW51159   7.482   3.584  10.875  0.1207  0.4987 -0.0025
16573SOL    HW151160   7.451   3.655  10.931 -0.9833 -1.1399  1.5796
16573SOL    HW251161   7.557   3.547  10.921 -0.6286 -0.6955  0.3076
16574SOL     OW51162   1.985   2.113   2.411 -0.0557 -0.2126 -0.1703
16574SOL    HW151163   1.935   2.188   2.379  0.9574 -0.1586 -1.7203
16574SOL    HW251164   1.930   2.076   2.480 -0.7996  1.6632  0.3122
16575SOL     OW51165   2.581   0.227   6.859 -0.4249 -0.1994 -0.3932
16575SOL    HW151166   2.535   0.155   6.902 -0.0817 -0.1004  0.1530
16575SOL    HW251167   2.596   0.291   6.928  1.5296 -0.7185 -0.2668
16576SOL     OW51168   7.929   5.936   1.608 -0.1868 -0.1740  0.0952
16576SOL    HW151169   7.978   5.956   1.688 -1.0438  0.4872  0.4738
16576SOL    HW251170   7.978   5.866   1.566 -1.0353 -2.3521  2.4710
16577SOL     OW51171   1.800   3.372   9.422  0.3586 -0.3631 -0.1509
16577SOL    HW151172   1.721   3.340   9.377 -1.3723  2.3015  0.7797
16577SOL    HW251173   1.797   3.329   9.508 -0.8215  0.6724  0.3506
16578SOL     OW51174   4.455   2.579   2.245  0.1875 -1.3524 -0.4774
16578SOL    HW151175   4.535   2.536   2.275 -0.3992 -1.7854  0.5074
16578SOL    HW251176   4.423   2.626   2.322  0.2782  0.0500 -1.2662
16579SOL     OW51177   3.970   5.587  11.824 -0.1931  0.0178  0.7072
16579SOL    HW151178   3.987   5.651  11.893  2.5346 -0.0075  0.1505
16579SOL    HW251179   3.895   5.622  11.777  0.2493  2.0119  1.3725
16580SOL     OW51180   1.147   4.116  12.026  0.1381 -0.3766  0.2578
16580SOL    HW151181   1.072   4.145  12.078 -0.3959 -1.0218 -0.1402
16580SOL    HW251182   1.202   4.195  12.018 -0.1703 -0.0627  1.0933
16581SOL     OW51183   0.464   1.375  11.151 -0.0231 -0.2919  0.3534
16581SOL    HW151184   0.527   1.413  11.090 -0.6010  0.2656  0.0866
16581SOL    HW251185   0.515   1.316  11.206  0.5933 -0.4157 -0.3444
16582SOL     OW51186   6.755   3.312   0.429  0.0958  0.9014  0.0111
16582SOL    HW151187   6.839   3.270   0.407  0.8810  1.9647  0.8896
16582SOL    HW251188   6.730   3.273   0.513 -0.7769 -0.0785 -0.6764
16583SOL     OW51189   3.028   6.380   8.903  0.3095  0.2021 -0.0853
16583SOL    HW151190   3.007   6.473   8.909  0.2071  0.1178  1.2788
16583SOL    HW251191   3.018   6.348   8.993  1.3806 -0.8957 -0.3334
16584SOL     OW51192   4.956   0.279   5.223  0.2147  0.2177  0.0230
16584SOL    HW151193   5.019   0.296   5.294 -2.1948  2.4761  1.7997
16584SOL    HW251194   4.928   0.189   5.238  1.5212 -0.1584  0.4047
16585SOL     OW51195   0.241   6.910  12.116  0.0765 -0.1504 -0.1602
16585SOL    HW151196   0.160   6.864  12.137 -0.7785  0.7035 -1.4338
16585SOL    HW251197   0.257   6.968  12.191 -0.0557 -0.8665  0.4343
16586SOL     OW51198   3.972   1.294   2.872  0.0613  0.4921 -0.2511
16586SOL    HW151199   3.976   1.232   2.945 -0.5244  0.3074 -0.3702
16586SOL    HW251200   4.026   1.253   2.804 -0.6576 -0.0965 -0.4771
16587SOL     OW51201   2.380   4.426   7.849 -0.3115 -0.3748 -0.0342
16587SOL    HW151202   2.414   4.353   7.797 -0.8431 -0.9148  0.3607
16587SOL    HW251203   2.416   4.504   7.807 -1.0632 -0.7718 -1.4694
16588SOL     OW51204   6.611   0.973   1.722 -0.3956  0.6635 -0.9742
16588SOL    HW151205   6.625   1.068   1.721 -0.8281  0.7277 -1.8528
16588SOL    HW251206   6.692   0.937   1.686  0.9534  0.4911  1.9493
16589SOL     OW51207   3.095   6.887   2.465  0.1348  0.4558 -0.4126
16589SOL    HW151208   3.136   6.951   2.407 -1.9424  1.6854 -0.5946
16589SOL    HW251209   3.052   6.940   2.532 -1.1024 -0.7808 -0.2025
16590SOL     OW51210   7.185   2.200   8.795 -0.2819 -0.7594 -0.0812
16590SOL    HW151211   7.118   2.238   8.739  1.1737  0.7466 -0.9010
16590SOL    HW251212   7.138   2.171   8.873 -2.1913 -1.8557 -1.5547
16591SOL     OW51213   1.791   1.494   0.741 -0.1108  0.8948  0.1246
16591SOL    HW151214   1.779   1.588   0.752 -0.6212  0.8929 -0.3859
16591SOL    HW251215   1.880   1.477   0.772 -0.4951  1.3214  1.5472
16592SOL     OW51216   7.705   6.487  11.739  0.1118  0.0814  0.8124
16592SOL    HW151217   7.743   6.545  11.805  0.4217  0.7665  0.0497
16592SOL    HW251218   7.712   6.536  11.657 -2.7758  0.4167  0.6683
16593SOL     OW51219   5.798   3.054   7.783  0.4606 -0.7830 -0.6731
16593SOL    HW151220   5.865   3.069   7.717  0.3762  0.2649 -0.5239
16593SOL    HW251221   5.736   2.993   7.741  1.0674 -1.1150 -1.0936
16594SOL     OW51222   4.618   4.354  10.581  0.5176  0.9156 -0.0431
16594SOL    HW151223   4.603   4.398  10.497  0.3515 -0.5306 -0.8012
16594SOL    HW251224   4.543   4.295  10.590  2.6048 -2.0888 -0.9959
16595SOL     OW51225   7.928   5.294  10.713 -0.3297 -0.1640 -0.0557
16595SOL    HW151226   7.843   5.299  10.756 -0.0168 -0.9353  0.6759
16595SOL    HW251227   7.977   5.369  10.746 -1.4862  1.6592 -2.2487
16596SOL     OW51228   7.628   1.308   4.273  0.4516 -0.0485 -0.3178
16596SOL    HW151229   7.593   1.234   4.323 -1.1137  0.0628 -1.1759
16596SOL    HW251230   7.694   1.270   4.215  0.9978 -0.4541  0.5481
16597SOL     OW51231   0.594   5.807  12.032  0.6886 -0.2097 -0.0367
16597SOL    HW151232   0.626   5.761  12.109  0.3035  0.4030  0.5067
16597SOL    HW251233   0.672   5.821  11.978  0.7506 -1.8205 -0.4143
16598SOL     OW51234   4.115   5.898   8.917  0.0880  0.6650  0.1266
16598SOL    HW151235   4.071   5.826   8.870 -1.9809  0.1185  2.6526
16598SOL    HW251236   4.086   5.977   8.871  0.1165  0.0554 -0.9866
16599SOL     OW51237   6.023   5.888  12.129  0.6653 -0.2584 -0.2077
16599SOL    HW151238   6.101   5.918  12.175 -0.8029 -0.1231  2.4116
16599SOL    HW251239   5.950   5.910  12.188 -1.2382 -1.5347 -1.9262
16600SOL     OW51240   6.731   0.108  12.080 -0.2763  0.8683  0.4810
16600SOL    HW151241   6.716   0.098  12.174 -0.7106 -1.3155  0.2481
16600SOL    HW251242   6.644   0.123  12.044 -0.3114  0.2881  0.3107
16601SOL     OW51243   6.550   5.048   4.951 -0.0897  0.3377 -1.0676
16601SOL    HW151244   6.514   4.960   4.941 -1.1442  0.6872 -0.5589
16601SOL    HW251245   6.601   5.045   5.031 -2.1096  0.7692  0.3042
16602SOL     OW51246   4.612   2.843   8.752  0.3381 -0.0929  0.1781
16602SOL    HW151247   4.617   2.907   8.680 -0.8081 -0.6537 -0.4244
16602SOL    HW251248   4.519   2.830   8.767  0.5522 -1.2662  0.6153
16603SOL     OW51249   5.009   0.070   2.071  0.0651  0.7429 -0.2669
16603SOL    HW151250   4.947   0.072   1.997  0.9032  1.7334 -0.9634
16603SOL    HW251251   4.954   0.053   2.147 -0.5974 -3.0046 -1.3280
16604SOL     OW51252   3.292   0.830   8.182 -0.1138  0.6092 -0.5272
16604SOL    HW151253   3.294   0.837   8.087  1.4748  2.6206 -0.4104
16604SOL    HW251254   3.381   0.850   8.210 -0.8442  1.3499  1.4589
16605SOL     OW51255   1.485   4.517   7.506 -0.8620  0.4221 -0.2437
16605SOL    HW151256   1.444   4.539   7.423 -0.1623  1.3208 -0.3685
16605SOL    HW251257   1.577   4.540   7.494 -0.0939 -2.4045 -0.2885
16606SOL     OW51258   3.130   0.969   4.367  0.5601 -0.0426  0.0328
16606SOL    HW151259   3.063   1.027   4.331  1.2769  0.2461 -0.8709
16606SOL    HW251260   3.081   0.904   4.417 -0.4855 -0.4458 -1.4475
16607SOL     OW51261   3.687   0.065  10.867 -0.4381 -0.5592  0.6664
16607SOL    HW151262   3.742   0.081  10.944 -0.7263 -0.6262  0.8892
16607SOL    HW251263   3.602   0.102  10.891 -0.0197  1.1782 -0.3678
16608SOL     OW51264   5.824   2.596   0.888 -0.3791  0.1984 -0.5168
16608SOL    HW151265   5.770   2.636   0.820 -0.8694  1.3277  0.5035
16608SOL    HW251266   5.763   2.540   0.937 -0.0828 -0.4155 -0.8416
16609SOL     OW51267   7.741   6.224  12.124  0.2070  0.8752  0.6332
16609SOL    HW151268   7.750   6.307  12.171 -0.3660  0.6949  1.0636
16609SOL    HW251269   7.675   6.175  12.173  1.2547 -0.2558  0.9660
16610SOL     OW51270   2.456   0.842   7.469  0.0711  0.4701  0.0694
16610SOL    HW151271   2.503   0.761   7.449 -0.0337 -0.3707  2.8020
16610SOL    HW251272   2.500   0.877   7.546 -1.2644  1.8713  0.2544
16611SOL     OW51273   1.118   0.603   8.942 -0.6350  0.1812 -0.1603
16611SOL    HW151274   1.132   0.614   8.848 -1.0197 -1.1497 -0.3946
16611SOL    HW251275   1.042   0.658   8.961  0.3644  1.6700 -0.3064
16612SOL     OW51276   2.824   6.022   9.273 -0.0521  0.5475 -0.1905
16612SOL    HW151277   2.746   5.979   9.309 -0.5652  1.5191 -0.1173
16612SOL    HW251278   2.893   6.003   9.336 -0.5801  0.9355  0.5164
16613SOL     OW51279   2.114   6.849   4.416 -0.2966  0.4283  0.0774
16613SOL    HW151280   2.086   6.866   4.506  0.5050 -1.9353  0.8687
16613SOL    HW251281   2.036   6.812   4.374 -0.0259 -0.7377  0.5592
16614SOL     OW51282   0.188   3.673  10.324 -0.1732  0.2404  0.2473
16614SOL    HW151283   0.168   3.754  10.372 -1.3935  1.2809 -1.8749
16614SOL    HW251284   0.114   3.615  10.345  0.5190 -0.2268  1.4827
16615SOL     OW51285   0.196   2.810   9.564 -1.1199  0.0445  0.4710
16615SOL    HW151286   0.156   2.800   9.478 -0.8250  0.2996  0.2989
16615SOL    HW251287   0.180   2.727   9.608 -0.4578 -0.4462 -0.1811
16616SOL     OW51288   2.726   4.966   2.906 -0.3744  0.4190  0.7815
16616SOL    HW151289   2.787   4.894   2.888  0.4382  0.8851  1.6447
16616SOL    HW251290   2.746   5.031   2.839  0.7794  0.9922  1.6536
16617SOL     OW51291   0.739   7.215   6.816  0.2227  0.6226 -0.6060
16617SOL    HW151292   0.777   7.230   6.729  0.8140  0.8036 -0.3229
16617SOL    HW251293   0.799   7.153   6.858 -0.6792 -0.3551 -0.7328
16618SOL     OW51294   0.385   3.019   1.884  0.3755  0.5431 -0.4272
16618SOL    HW151295   0.447   2.948   1.869 -0.0565  0.5467 -2.4366
16618SOL    HW251296   0.317   3.007   1.818 -2.0893  0.2578  2.0022
16619SOL     OW51297   7.271   4.661   2.538  0.0892 -0.2108  0.4394
16619SOL    HW151298   7.258   4.575   2.579  0.3708 -1.2626 -1.5697
16619SOL    HW251299   7.328   4.644   2.464 -0.5631  1.5800 -0.5272
16620SOL     OW51300   3.290   2.581   4.253  0.3651  0.0191  0.1477
16620SOL    HW151301   3.198   2.567   4.276 -0.0653 -1.2504 -2.0460
16620SOL    HW251302   3.311   2.667   4.289 -0.8300 -0.7926  3.0511
16621SOL     OW51303   4.787   7.174   1.776 -0.1661  0.1311  0.0723
16621SOL    HW151304   4.840   7.107   1.732 -0.0130  0.6413 -0.5341
16621SOL    HW251305   4.697   7.142   1.767 -0.0036 -0.5225  0.7256
16622SOL     OW51306   1.157   4.210   3.780 -0.3032 -0.1954  0.0014
16622SOL    HW151307   1.133   4.293   3.821  0.8275  0.1229  0.0755
16622SOL    HW251308   1.124   4.217   3.691  2.3303  1.6742 -0.9741
16623SOL     OW51309   6.821   4.619   3.482  1.1217  0.9153 -0.0038
16623SOL    HW151310   6.802   4.703   3.525  0.8246  0.8377  0.0147
16623SOL    HW251311   6.790   4.630   3.392  1.3447  0.9234 -0.0815
16624SOL     OW51312   5.216   0.085  11.574 -0.3349 -0.0851 -0.2432
16624SOL    HW151313   5.147   0.151  11.569 -1.2682 -1.0681 -0.9161
16624SOL    HW251314   5.212   0.052  11.664 -0.3979  0.2275 -0.1316
16625SOL     OW51315   2.982   0.776   4.512  0.0401 -0.1224 -0.4278
16625SOL    HW151316   2.978   0.729   4.429 -0.6445 -1.1971  0.1983
16625SOL    HW251317   2.892   0.778   4.543  0.1405  1.1097 -0.1507
16626SOL     OW51318   4.846   1.489   4.681 -0.0197 -0.0226  0.1830
16626SOL    HW151319   4.776   1.513   4.621  1.2055  0.3060 -1.1510
16626SOL    HW251320   4.816   1.407   4.721 -1.3324  0.3272 -0.0379
16627SOL     OW51321   4.009   0.705   2.261  0.8483  0.1741 -0.5591
16627SOL    HW151322   4.080   0.754   2.303  0.4711  0.9267 -0.7899
16627SOL    HW251323   4.054   0.640   2.207  1.3590 -1.3741  1.6059
16628SOL     OW51324   2.429   3.528   3.053 -0.3654  0.2069  0.3155
16628SOL    HW151325   2.349   3.526   3.001  0.3435 -1.0087 -0.7856
16628SOL    HW251326   2.419   3.457   3.117  0.8242 -1.6701 -1.4593
16629SOL     OW51327   0.503   3.385   4.517  0.4962  0.0765 -0.5114
16629SOL    HW151328   0.497   3.478   4.542 -0.3840  0.1460 -0.9621
16629SOL    HW251329   0.526   3.340   4.598  0.5925  0.6478 -0.2166
16630SOL     OW51330   2.315   4.186   5.249  0.2182 -0.4620  0.4870
16630SOL    HW151331   2.400   4.192   5.205  0.3487 -0.0073  0.7973
16630SOL    HW251332   2.333   4.141   5.331  0.2995  0.3170  0.9030
16631SOL     OW51333   4.448   5.813   9.600 -0.3653 -0.4319 -0.5986
16631SOL    HW151334   4.359   5.842   9.582 -0.0361  0.4171 -0.9003
16631SOL    HW251335   4.438   5.747   9.669 -1.0047  1.6722  1.4676
16632SOL     OW51336   4.513   6.922  12.297  0.6776 -0.3079  0.4368
16632SOL    HW151337   4.547   6.857  12.236  1.3438  0.1976  0.2569
16632SOL    HW251338   4.492   6.873  12.376 -1.7335 -1.2730 -0.6893
16633SOL     OW51339   7.211   1.121   2.306  0.4551 -0.5354  0.1127
16633SOL    HW151340   7.270   1.151   2.237 -0.7255 -1.0608 -1.1756
16633SOL    HW251341   7.191   1.031   2.282 -1.9328  0.0430 -0.2856
16634SOL     OW51342   5.885   4.322   0.528 -0.1400  0.0180  0.1420
16634SOL    HW151343   5.898   4.260   0.599 -0.2877  0.4494  0.5471
16634SOL    HW251344   5.861   4.268   0.453 -1.8272 -0.3210  0.8767
16635SOL     OW51345   7.909   2.006   1.440  0.2630 -0.0884 -0.0651
16635SOL    HW151346   7.814   2.011   1.439  0.2010 -1.0413 -1.7281
16635SOL    HW251347   7.939   2.090   1.407  0.0331  0.4117  0.9644
16636SOL     OW51348   2.874   6.074  11.477  0.3003 -0.3738  0.0425
16636SOL    HW151349   2.833   6.064  11.563  1.4783 -1.5282  0.5047
16636SOL    HW251350   2.901   6.165  11.474 -0.7273 -0.0393  0.4288
16637SOL     OW51351   6.113   5.799   7.616  0.2466  0.1124 -0.4316
16637SOL    HW151352   6.125   5.875   7.674  0.8477 -0.1844 -0.1636
16637SOL    HW251353   6.026   5.767   7.639 -0.2900  1.1042 -1.0057
16638SOL     OW51354   2.946   6.789  11.980 -0.2294 -0.7639 -0.6971
16638SOL    HW151355   2.962   6.853  12.050  0.2123 -0.0469 -1.4350
16638SOL    HW251356   2.974   6.705  12.017 -0.1553 -0.4173  0.0399
16639SOL     OW51357   0.902   1.921   4.246  0.0846 -0.1920  0.2610
16639SOL    HW151358   0.817   1.934   4.204  0.2034  1.3136  0.4244
16639SOL    HW251359   0.930   2.009   4.272  2.1406 -0.5157 -0.6570
16640SOL     OW51360   2.447   7.210   6.276 -0.9051 -0.1434 -0.1427
16640SOL    HW151361   2.446   7.127   6.324  0.6486 -1.1995 -1.8347
16640SOL    HW251362   2.433   7.186   6.185 -1.1470  1.5526 -0.6020
16641SOL     OW51363   2.239   2.326   7.926  0.6398 -0.1196 -0.2681
16641SOL    HW151364   2.180   2.282   7.865  2.5822 -0.2827 -2.1295
16641SOL    HW251365   2.262   2.259   7.990 -2.2226  0.3230  1.4394
16642SOL     OW51366   6.081   5.420   0.092  0.0891 -0.0936 -0.4439
16642SOL    HW151367   5.997   5.375   0.100 -0.7186  1.5788  1.0585
16642SOL    HW251368   6.142   5.362   0.138 -0.6136 -0.4028  0.1202
16643SOL     OW51369   6.211   0.048   5.100  0.3673 -0.0494  0.0767
16643SOL    HW151370   6.147   0.075   5.034  0.8114  1.2818  0.1564
16643SOL    HW251371   6.279   0.001   5.050  0.4278  0.4683 -0.3327
16644SOL     OW51372   2.943   7.109   5.815 -0.4454 -0.3243 -0.3120
16644SOL    HW151373   2.857   7.097   5.854 -1.0829  1.0917 -1.2120
16644SOL    HW251374   2.974   7.020   5.798 -0.6858 -0.9650  2.1410
16645SOL     OW51375   7.017   4.473   6.499 -0.6257 -0.0118  0.1341
16645SOL    HW151376   7.109   4.499   6.492  0.0630 -1.7715  1.8488
16645SOL    HW251377   6.972   4.551   6.531  0.0176  1.2264 -1.8141
16646SOL     OW51378   5.368   0.438   6.957 -0.4404  0.2344 -0.7268
16646SOL    HW151379   5.368   0.474   7.046 -1.6833 -0.1896 -0.5332
16646SOL    HW251380   5.386   0.345   6.968 -0.5774  0.1833 -0.9160
16647SOL     OW51381   4.390   6.112   7.602  0.3939 -0.0426  0.3775
16647SOL    HW151382   4.319   6.171   7.625  0.2503 -0.0081 -0.1461
16647SOL    HW251383   4.470   6.162   7.620  0.2740  0.9205 -1.5637
16648SOL     OW51384   7.645   4.432  11.060  0.3400  0.4915  0.1600
16648SOL    HW151385   7.726   4.412  11.013 -1.2857  3.0916 -4.3129
16648SOL    HW251386   7.588   4.357  11.042 -0.0889  1.2315 -1.7935
16649SOL     OW51387   5.846   7.980   2.794 -0.2272  0.2386  0.4052
16649SOL    HW151388   5.773   7.980   2.855  0.5308  1.6405  1.3856
16649SOL    HW251389   5.877   8.071   2.794  0.6829 -0.0347 -0.9977
16650SOL     OW51390   2.866   3.613  11.962  0.6128 -0.5539 -0.0284
16650SOL    HW151391   2.945   3.652  11.998  1.2228 -0.4635 -1.4101
16650SOL    HW251392   2.797   3.636  12.025  1.2591  1.3309  0.0432
16651SOL     OW51393   0.810   7.567   9.545 -0.0683  0.7270  0.2235
16651SOL    HW151394   0.810   7.612   9.629 -1.3860 -0.2406  0.7844
16651SOL    HW251395   0.750   7.618   9.491  0.7732  1.3451 -0.1414
16652SOL     OW51396   2.164   2.115   4.858  0.2841 -0.2284  0.4482
16652SOL    HW151397   2.182   2.203   4.891  2.0499 -0.4073  0.0785
16652SOL    HW251398   2.250   2.073   4.853 -0.5589 -2.1946  1.1865
16653SOL     OW51399   2.792   2.290  11.314  0.1697  0.3449  0.3719
16653SOL    HW151400   2.705   2.270  11.349 -1.0382 -0.9684 -2.9676
16653SOL    HW251401   2.848   2.222  11.350 -1.0784 -1.1618 -0.3884
16654SOL     OW51402   3.973   1.448   8.834 -0.4075 -0.5172  0.6817
16654SOL    HW151403   3.879   1.446   8.818 -0.3422 -1.7975  0.2871
16654SOL    HW251404   3.983   1.409   8.921 -0.2778  0.1551  0.9715
16655SOL     OW51405   0.177   7.784   4.242  0.3470  0.0628 -0.0762
16655SOL    HW151406   0.130   7.821   4.317 -1.3778 -1.0705 -0.5358
16655SOL    HW251407   0.111   7.734   4.195  2.0063 -1.5184 -0.8556
16656SOL     OW51408   6.493   3.707   5.896 -0.0088 -0.3646 -0.1258
16656SOL    HW151409   6.480   3.626   5.847 -0.6937 -0.2302 -0.1733
16656SOL    HW251410   6.419   3.711   5.957  0.3535 -0.0832  0.3024
16657SOL     OW51411   3.142   1.449  12.208  0.1015 -0.1987 -0.5006
16657SOL    HW151412   3.218   1.502  12.185  0.7688 -1.7456 -2.0714
16657SOL    HW251413   3.147   1.441  12.304  0.8168  1.2851 -0.3845
16658SOL     OW51414   3.660   4.975  11.286  0.2482  0.2027 -0.2155
16658SOL    HW151415   3.650   5.023  11.204  0.3574 -0.8575 -0.8691
16658SOL    HW251416   3.754   4.961  11.294  0.1924 -0.1660 -0.1916
16659SOL     OW51417   5.155   2.554   6.128 -0.3862  0.1333  0.0013
16659SOL    HW151418   5.124   2.618   6.065  0.0692 -0.5565 -0.9584
16659SOL    HW251419   5.250   2.550   6.113 -0.0993  0.7424  1.4830
16660SOL     OW51420   6.334   4.883  10.419 -0.0147 -0.0416  0.0546
16660SOL    HW151421   6.377   4.830  10.352 -0.3510  0.0353 -0.2237
16660SOL    HW251422   6.244   4.894  10.387  0.2943  1.5129 -0.3774
16661SOL     OW51423   5.513   0.819   7.510 -0.0819  0.3013 -0.0938
16661SOL    HW151424   5.476   0.878   7.575  0.4291 -0.8734  1.3233
16661SOL    HW251425   5.499   0.863   7.426 -1.2128  1.6287  0.7535
16662SOL     OW51426   2.746   2.987   9.193  0.1592 -0.4919 -0.3040
16662SOL    HW151427   2.750   2.896   9.222  0.8009 -0.3188  0.1738
16662SOL    HW251428   2.656   2.999   9.165 -0.1095 -1.0799  0.2786
16663SOL     OW51429   1.541   0.596   7.896 -0.3013 -0.4256 -0.1736
16663SOL    HW151430   1.572   0.678   7.858  0.4814 -0.1448  1.0062
16663SOL    HW251431   1.532   0.536   7.821 -0.3730  0.5734 -0.9768
16664SOL     OW51432   5.715   7.818   7.387 -0.2679  0.0911 -0.0741
16664SOL    HW151433   5.752   7.784   7.469 -2.3148  0.0010  0.8759
16664SOL    HW251434   5.745   7.756   7.320  0.8648 -0.2380  0.6962
16665SOL     OW51435   0.560   4.676   5.886  0.0317 -0.0848  0.0168
16665SOL    HW151436   0.646   4.683   5.845 -0.4693  0.7491 -0.9236
16665SOL    HW251437   0.501   4.651   5.814 -0.4173 -1.3618  0.7799
16666SOL     OW51438   7.257   2.983   5.235 -0.8237 -0.5055  0.4020
16666SOL    HW151439   7.338   2.968   5.283 -0.5009  1.6079  0.6348
16666SOL    HW251440   7.286   3.012   5.148 -1.3739 -1.5462 -0.1466
16667SOL     OW51441   5.078   1.399   1.324  0.2028  0.4554 -0.2412
16667SOL    HW151442   5.003   1.430   1.273 -0.8568  0.6015  1.3501
16667SOL    HW251443   5.089   1.464   1.393  0.5233 -0.5955  0.7296
16668SOL     OW51444   5.072   5.072   5.537 -0.0321 -0.6810 -0.0622
16668SOL    HW151445   5.089   4.993   5.589 -0.0585 -0.2998  0.5276
16668SOL    HW251446   5.151   5.082   5.483  0.3278 -0.6283  0.4742
16669SOL     OW51447   0.196   3.109  10.798 -0.8445  0.0155  0.4718
16669SOL    HW151448   0.201   3.029  10.746 -0.5378 -0.2126  0.8506
16669SOL    HW251449   0.125   3.159  10.758 -1.5191 -0.7619  0.6673
16670SOL     OW51450   1.439   7.979   1.998  0.9809  0.1825  0.0052
16670SOL    HW151451   1.458   7.987   2.091  1.3012 -0.4257 -0.0023
16670SOL    HW251452   1.439   7.885   1.981 -0.3923  0.2164 -0.3442
16671SOL     OW51453   3.903   4.008   4.152  0.1024  0.1071 -0.0536
16671SOL    HW151454   3.833   3.943   4.155 -0.5174  0.6792 -1.1727
16671SOL    HW251455   3.978   3.961   4.116 -0.0300 -0.2483  0.1399
16672SOL     OW51456   1.656   2.631   1.625  0.0109 -0.2045 -0.0419
16672SOL    HW151457   1.612   2.664   1.703  3.0063  1.4179  1.1413
16672SOL    HW251458   1.668   2.709   1.570  2.5112 -0.2369  0.3405
16673SOL     OW51459   5.931   0.809  11.136 -0.0503 -0.2276 -0.0336
16673SOL    HW151460   6.025   0.809  11.118 -0.1856  1.2259 -0.9561
16673SOL    HW251461   5.905   0.717  11.133  1.0280 -0.5153 -1.5295
16674SOL     OW51462   7.719   3.721   3.545 -0.3128 -0.1208 -0.3178
16674SOL    HW151463   7.767   3.775   3.482 -0.2682 -1.7799 -1.8050
16674SOL    HW251464   7.713   3.775   3.623  3.4795  0.4492 -0.2169
16675SOL     OW51465   1.702   2.272   9.181 -0.4919  0.5398  0.0199
16675SOL    HW151466   1.659   2.350   9.147  1.2326  0.6734 -2.0250
16675SOL    HW251467   1.720   2.219   9.104  0.0170 -1.0535  1.1806
16676SOL     OW51468   5.229   1.313  11.255  0.3935 -0.2562 -0.0473
16676SOL    HW151469   5.155   1.254  11.241  0.2818 -0.3555  0.8925
16676SOL    HW251470   5.207   1.392  11.205  0.9611 -1.3098 -2.0785
16677SOL     OW51471   7.246   2.621   1.019  0.4725  0.0658  0.4002
16677SOL    HW151472   7.184   2.576   1.077  1.0029 -1.0700  0.1252
16677SOL    HW251473   7.288   2.687   1.074  1.8573 -1.7973  1.6960
16678SOL     OW51474   0.223   1.661   8.242 -0.0623 -0.3580  0.1733
16678SOL    HW151475   0.168   1.583   8.252 -1.5936  0.5555 -0.7274
16678SOL    HW251476   0.310   1.632   8.269 -0.8939 -1.9607  1.2964
16679SOL     OW51477   6.887   2.609   6.606  0.0278  0.0322 -0.3625
16679SOL    HW151478   6.982   2.605   6.600  0.1649  0.3527  1.0729
16679SOL    HW251479   6.867   2.703   6.602 -0.4422 -0.1092 -2.7637
16680SOL     OW51480   7.020   6.223   9.059  0.1083  0.1128 -0.1847
16680SOL    HW151481   6.978   6.307   9.039 -0.0880 -0.1631 -0.9891
16680SOL    HW251482   7.059   6.235   9.145 -2.0998  0.2204  0.8684
16681SOL     OW51483   3.877   3.103   1.601  0.2496  0.3464 -0.2665
16681SOL    HW151484   3.961   3.117   1.646  0.3051 -0.0587 -0.2398
16681SOL    HW251485   3.886   3.150   1.518 -0.0757  1.6123  0.3902
16682SOL     OW51486   5.927   1.836   6.654 -0.2509  0.1597  0.0499
16682SOL    HW151487   5.932   1.741   6.639 -1.7088  0.1813 -0.8181
16682SOL    HW251488   5.936   1.846   6.748  0.9920 -0.7478  0.0443
16683SOL     OW51489   3.449   2.287   5.906 -0.1249  0.6780  0.1997
16683SOL    HW151490   3.493   2.369   5.884  3.6689 -0.8254  1.2831
16683SOL    HW251491   3.442   2.289   6.002 -2.2788  0.7310  0.0678
16684SOL     OW51492   2.402   5.516   6.251  0.3722 -0.5136 -0.2548
16684SOL    HW151493   2.315   5.542   6.223 -0.3059 -1.3023  1.0110
16684SOL    HW251494   2.450   5.501   6.170 -1.4002 -2.4225 -1.0538
16685SOL     OW51495   4.664   7.608   7.389 -0.0178  0.0731  0.3840
16685SOL    HW151496   4.752   7.643   7.378  0.7317 -1.2249  1.8621
16685SOL    HW251497   4.606   7.683   7.372  1.3091  0.7932 -1.2472
16686SOL     OW51498   6.516   3.127  10.165  0.0285 -0.3671 -0.0055
16686SOL    HW151499   6.572   3.169  10.231 -1.1187  1.7806 -0.2985
16686SOL    HW251500   6.474   3.054  10.212  0.0982  0.4175  1.3244
16687SOL     OW51501   7.202   0.555   4.623 -0.2267  0.8555  0.0435
16687SOL    HW151502   7.135   0.617   4.650 -2.5297 -0.9662 -1.1692
16687SOL    HW251503   7.182   0.475   4.671  0.7633  0.1064 -0.7335
16688SOL     OW51504   0.032   4.666   9.733 -0.3607 -0.2967  0.2891
16688SOL    HW151505   0.047   4.661   9.639  0.6749  1.3343  0.3141
16688SOL    HW251506   0.047   4.578   9.765 -2.1853 -1.2311 -1.2328
16689SOL     OW51507   0.812   6.674   4.292 -0.5202 -0.2611  0.2392
16689SOL    HW151508   0.860   6.755   4.275 -2.0855  0.9465  1.2169
16689SOL    HW251509   0.835   6.651   4.382  0.5246 -1.3893 -0.2841
16690SOL     OW51510   0.739   4.697   6.278  0.3165 -0.1049 -0.2853
16690SOL    HW151511   0.820   4.652   6.303 -0.4262 -1.5254 -0.3012
16690SOL    HW251512   0.705   4.731   6.360  0.4645 -0.3176 -0.1320
16691SOL     OW51513   7.266   2.138  10.221 -0.9014 -0.6759  0.0919
16691SOL    HW151514   7.209   2.143  10.144 -1.4837 -4.4194  0.1045
16691SOL    HW251515   7.338   2.080  10.195  1.1083  1.1768  1.1878
16692SOL     OW51516   5.417   0.863   8.133  0.4431  0.2531  0.3062
16692SOL    HW151517   5.360   0.829   8.202  0.7600 -0.0432  0.4277
16692SOL    HW251518   5.358   0.889   8.063 -0.0429  2.2586  1.3864
16693SOL     OW51519   5.158   5.189   6.019 -0.1754 -0.1884 -0.0497
16693SOL    HW151520   5.178   5.209   5.928  0.7190  0.4894  0.2767
16693SOL    HW251521   5.079   5.136   6.016  1.0297 -2.0312 -1.3690
16694SOL     OW51522   0.020   3.974   1.569 -0.4993  0.3839  0.4521
16694SOL    HW151523  -0.014   3.898   1.522 -1.9582  1.5927 -0.5411
16694SOL    HW251524   0.047   4.035   1.499  2.9870 -0.1192  1.1754
16695SOL     OW51525   2.588   1.579   8.517  0.1079 -0.5238 -0.0350
16695SOL    HW151526   2.575   1.662   8.562  0.5591  0.0169 -0.8811
16695SOL    HW251527   2.529   1.582   8.442 -0.3987 -1.2803  0.3174
16696SOL     OW51528   3.334   3.541  11.186  0.2524  0.4008 -0.1962
16696SOL    HW151529   3.249   3.575  11.214  0.3018 -0.0778  0.5808
16696SOL    HW251530   3.335   3.451  11.220  0.3307 -0.2140 -1.7481
16697SOL     OW51531   0.029   2.998   9.659  0.1260  0.8480 -0.1174
16697SOL    HW151532   0.079   2.951   9.592 -2.5764  1.2560 -2.6410
16697SOL    HW251533   0.081   2.989   9.738  2.5909 -1.3602 -1.8000
16698SOL     OW51534   7.852   3.161   8.336  0.0860  0.1230 -0.1413
16698SOL    HW151535   7.935   3.168   8.382  0.3349  0.2122 -0.5924
16698SOL    HW251536   7.853   3.235   8.275 -0.6767  0.5995  0.4091
16699SOL     OW51537   6.278   6.485  10.646  0.2713 -0.0285  0.4177
16699SOL    HW151538   6.281   6.579  10.662 -0.3965  0.0985 -0.1383
16699SOL    HW251539   6.187   6.461  10.667  0.8405 -0.8532  2.1245
16700SOL     OW51540   6.763   7.040   2.825  0.4202  0.4090  0.3764
16700SOL    HW151541   6.798   6.951   2.829 -1.4593 -0.6381 -2.8838
16700SOL    HW251542   6.693   7.041   2.890  0.3777 -0.5462  0.3612
16701SOL     OW51543   4.458   0.175   3.572 -0.3915 -0.1729  0.5643
16701SOL    HW151544   4.539   0.144   3.531 -0.4672 -0.4515  0.6196
16701SOL    HW251545   4.456   0.269   3.555 -0.6115 -0.3412 -0.3976
16702SOL     OW51546   7.485   0.856   8.617 -0.0320  0.5148  0.6563
16702SOL    HW151547   7.457   0.768   8.643 -0.2985  0.4999  0.3219
16702SOL    HW251548   7.552   0.879   8.681  2.0319 -1.0239 -0.8176
16703SOL     OW51549   1.423   3.278   8.416 -0.5700 -0.4203  0.5042
16703SOL    HW151550   1.455   3.369   8.416 -0.4884 -0.4269  1.7141
16703SOL    HW251551   1.332   3.285   8.389  0.1058 -0.2843 -1.9810
16704SOL     OW51552   0.022   2.095   7.493 -0.1350  0.2467  0.6742
16704SOL    HW151553   0.065   2.163   7.544 -0.1000 -0.7269  2.0161
16704SOL    HW251554  -0.072   2.109   7.508 -0.1985  0.9088 -0.2904
16705SOL     OW51555   1.767   4.768   6.721 -0.0499 -0.5162  0.1468
16705SOL    HW151556   1.777   4.862   6.708  2.1983 -0.8090 -0.6259
16705SOL    HW251557   1.730   4.736   6.639 -1.7023 -0.2455  0.7376
16706SOL     OW51558   3.432   2.808  12.410 -0.1300 -0.5551  0.1765
16706SOL    HW151559   3.415   2.849  12.495  0.4193 -3.2419  1.7030
16706SOL    HW251560   3.528   2.808  12.402 -0.1948  0.5192 -0.9452
16707SOL     OW51561   7.368   7.786   2.813 -0.2472  0.1549 -0.0964
16707SOL    HW151562   7.438   7.851   2.820 -0.5001  0.4469 -0.2552
16707SOL    HW251563   7.390   7.719   2.878  0.7105 -0.2582 -0.8333
16708SOL     OW51564   1.945   1.111   6.707 -0.2362 -0.1107  0.0983
16708SOL    HW151565   2.007   1.129   6.778 -1.2015 -1.6156  1.3852
16708SOL    HW251566   1.999   1.105   6.628  1.0116  0.4178  0.8912
16709SOL     OW51567   7.981   7.958   4.722 -0.3161  0.2397 -0.9091
16709SOL    HW151568   7.969   7.863   4.718 -1.1852  0.2122  1.2503
16709SOL    HW251569   8.037   7.972   4.799 -0.0375  1.4816 -1.3121
16710SOL     OW51570   6.291   5.433   5.596 -0.4441 -0.0530 -0.2372
16710SOL    HW151571   6.371   5.418   5.546  1.0835  1.8495  1.4648
16710SOL    HW251572   6.256   5.515   5.562 -1.0742 -0.3151 -0.2355
16711SOL     OW51573   1.324   0.723   1.047  0.1067 -0.2097 -0.3089
16711SOL    HW151574   1.375   0.763   1.118 -1.9274  0.0078  1.1084
16711SOL    HW251575   1.345   0.630   1.052  0.3543 -0.1275  0.2825
16712SOL     OW51576   4.104   7.632   5.054  0.6045  0.3886  0.2999
16712SOL    HW151577   4.124   7.624   5.147  0.9476 -0.0607  0.1872
16712SOL    HW251578   4.010   7.618   5.049  0.6082  0.2553  0.5616
16713SOL     OW51579   7.245   0.938   0.136 -0.3398  0.2867 -0.4476
16713SOL    HW151580   7.259   0.986   0.055  2.6550  0.4617  0.0743
16713SOL    HW251581   7.242   1.005   0.204 -1.4010  0.0408 -0.2239
16714SOL     OW51582   4.671   7.264  11.509 -0.4685  0.4941 -0.0063
16714SOL    HW151583   4.614   7.194  11.539 -0.5665  0.6801  0.2532
16714SOL    HW251584   4.629   7.344  11.542  0.3919  0.5777  0.9604
16715SOL     OW51585   6.865   7.676   5.735 -0.0683  0.3076 -0.0654
16715SOL    HW151586   6.885   7.734   5.662  0.1199  2.2615  1.4403
16715SOL    HW251587   6.770   7.686   5.747  0.0313  0.6590  0.4622
16716SOL     OW51588   2.435   5.326  10.751  0.5539  0.1023 -0.0331
16716SOL    HW151589   2.427   5.421  10.757  0.7475  0.0886  0.5201
16716SOL    HW251590   2.363   5.299  10.694 -0.6639  0.4006  1.3284
16717SOL     OW51591   1.788   7.206   4.305  0.0138 -0.5625 -0.2190
16717SOL    HW151592   1.736   7.154   4.367  0.1247 -0.0278  0.3421
16717SOL    HW251593   1.745   7.292   4.305  1.1380  0.0324  0.5948
16718SOL     OW51594   1.204   0.965   6.070 -0.1138 -0.7376 -0.1206
16718SOL    HW151595   1.275   0.939   6.129 -0.0031  2.8034  1.5284
16718SOL    HW251596   1.244   0.964   5.983  0.7249 -2.6900  0.2280
16719SOL     OW51597   5.218   7.320   6.660  0.9519 -0.0717  0.0239
16719SOL    HW151598   5.185   7.242   6.614  0.2583 -0.5872  1.3679
16719SOL    HW251599   5.150   7.341   6.724  2.0404  0.4372  1.0374
16720SOL     OW51600   4.321   6.970   0.542  0.1323 -0.2638 -0.2664
16720SOL    HW151601   4.374   6.922   0.605  0.7211  0.9420  0.2005
16720SOL    HW251602   4.374   6.971   0.462 -0.4410 -1.4531 -0.6832
16721SOL     OW51603   0.759   6.809  12.158  0.4610 -0.7502 -0.0470
16721SOL    HW151604   0.854   6.801  12.150  0.2901 -2.1330 -1.3779
16721SOL    HW251605   0.727   6.796  12.068 -0.9041  1.6240  0.0147
16722SOL     OW51606   4.772   5.169   2.187 -0.6419  0.1231 -0.2688
16722SOL    HW151607   4.720   5.236   2.230  1.2143  2.3699 -1.2947
16722SOL    HW251608   4.860   5.179   2.225 -0.6932 -3.2071  1.0738
16723SOL     OW51609   1.542   4.504   5.899  0.5180  0.3949 -0.1357
16723SOL    HW151610   1.458   4.500   5.945 -0.0082  1.9986 -0.8737
16723SOL    HW251611   1.593   4.570   5.946  0.0524  1.8967 -1.6140
16724SOL     OW51612   2.155   6.469  12.244  0.0900 -0.1579 -0.3676
16724SOL    HW151613   2.103   6.389  12.252 -0.2684  0.0825 -0.2782
16724SOL    HW251614   2.147   6.494  12.152 -1.6095  0.9812  0.0523
16725SOL     OW51615   7.455   6.095  11.855 -0.2436  0.4032 -0.2801
16725SOL    HW151616   7.477   6.188  11.869  1.7809 -0.2812  1.8902
16725SOL    HW251617   7.408   6.070  11.935  0.8696 -0.8344  0.0241
16726SOL     OW51618   5.612   6.722   2.675 -0.0922  0.5897  0.4124
16726SOL    HW151619   5.593   6.813   2.653  0.5088  0.7324  0.4605
16726SOL    HW251620   5.656   6.726   2.760  0.2535  0.2843  0.2512
16727SOL     OW51621   6.065   7.701  10.527  0.1045  0.1042 -0.2754
16727SOL    HW151622   6.034   7.710  10.437 -1.2071  0.1926  0.1655
16727SOL    HW251623   6.057   7.788  10.564 -2.3758 -0.4913  0.8161
16728SOL     OW51624   6.723   2.589   7.855 -0.1373  0.6068 -0.0912
16728SOL    HW151625   6.694   2.498   7.854  2.0974 -0.1526 -0.6227
16728SOL    HW251626   6.810   2.587   7.815 -0.2265  3.0546 -0.5572
16729SOL     OW51627   6.891   0.335   1.171  0.1476 -0.0861  0.1922
16729SOL    HW151628   6.948   0.348   1.247  2.4136 -1.8625 -1.0703
16729SOL    HW251629   6.915   0.406   1.111  0.1089 -0.0804  0.1837
16730SOL     OW51630   4.949   6.235   0.117 -0.3206 -0.4357 -0.0793
16730SOL    HW151631   4.960   6.140   0.117  1.1915 -0.3003 -1.0710
16730SOL    HW251632   4.922   6.256   0.028 -1.3904  0.0098  0.3384
16731SOL     OW51633   6.877   3.795   3.338  0.3269  0.3116  0.1692
16731SOL    HW151634   6.797   3.822   3.383  0.6754 -0.2053  1.1406
16731SOL    HW251635   6.899   3.869   3.282  1.1351  2.0111  2.5780
16732SOL     OW51636   5.716   5.943   5.465  0.6040 -0.3492 -0.3425
16732SOL    HW151637   5.718   5.862   5.516  1.4373  1.7853  3.4595
16732SOL    HW251638   5.800   5.985   5.485 -1.0401  2.8336  0.5772
16733SOL     OW51639   3.363   7.058   7.786  0.2866 -0.1164 -0.0307
16733SOL    HW151640   3.311   7.057   7.705 -0.2757  2.8571  0.1759
16733SOL    HW251641   3.317   6.998   7.845 -0.7813 -0.3470 -1.0581
16734SOL     OW51642   0.814   4.964   8.725 -0.4793  0.4145 -0.2148
16734SOL    HW151643   0.802   4.919   8.642 -0.6719  1.0328 -0.5233
16734SOL    HW251644   0.754   4.920   8.785  0.6826 -0.9893 -0.0149
16735SOL     OW51645   0.137   4.221   7.740 -0.0823 -0.4691  0.1105
16735SOL    HW151646   0.138   4.126   7.734 -0.7424 -0.4545 -0.3431
16735SOL    HW251647   0.100   4.240   7.826 -0.7802 -0.6282 -0.1431
16736SOL     OW51648   2.918   5.943  10.719  0.3444 -0.2889 -0.2531
16736SOL    HW151649   2.917   5.871  10.782  0.5110  0.5076  0.6740
16736SOL    HW251650   2.827   5.953  10.692 -0.0611  0.6381  1.3538
16737SOL     OW51651   0.348   2.847   0.944 -0.4057 -0.8343  0.4940
16737SOL    HW151652   0.429   2.804   0.970 -0.0828  0.5192  1.8638
16737SOL    HW251653   0.316   2.889   1.024 -0.4377  1.8879 -0.8142
16738SOL     OW51654   2.810   2.707   1.173  0.0124  0.5292  0.7509
16738SOL    HW151655   2.883   2.719   1.111  0.3507  0.2270  1.0828
16738SOL    HW251656   2.741   2.764   1.140 -1.6189 -2.9620 -2.7073
16739SOL     OW51657   6.889   0.570   4.667 -0.3097 -0.6647  0.4342
16739SOL    HW151658   6.920   0.551   4.755  0.1425 -1.4782  0.1208
16739SOL    HW251659   6.861   0.484   4.633 -1.4234 -0.2008  0.1407
16740SOL     OW51660   2.992   5.076   9.354 -0.2911 -0.0359 -0.1414
16740SOL    HW151661   2.937   5.010   9.398  0.8668  0.4330  2.1684
16740SOL    HW251662   3.082   5.044   9.366  0.1246  0.3796 -1.8446
16741SOL     OW51663   3.099   4.318   8.509 -0.9858  0.2886 -0.3533
16741SOL    HW151664   3.091   4.224   8.491 -1.0368  0.1910  0.1567
16741SOL    HW251665   3.174   4.346   8.458  2.0133 -0.9836  2.9617
16742SOL     OW51666   5.117   0.777   6.489 -0.6604 -0.2174  0.3029
16742SOL    HW151667   5.076   0.834   6.423  0.4707  1.0230  0.6235
16742SOL    HW251668   5.069   0.796   6.570 -1.6410 -1.2842  0.0002
16743SOL     OW51669   2.472   3.007   8.462 -0.3773 -0.3304  0.4389
16743SOL    HW151670   2.445   3.075   8.524  0.5699  0.1721  0.3218
16743SOL    HW251671   2.568   3.013   8.460 -0.2866 -1.5750  0.3124
16744SOL     OW51672   2.026   1.667   3.179 -0.0285 -0.1026 -0.2025
16744SOL    HW151673   2.019   1.738   3.243  1.2292  0.2257 -0.3934
16744SOL    HW251674   2.119   1.664   3.157 -0.3972 -0.3273 -1.8868
16745SOL     OW51675   4.682   3.357  11.719  0.2869  0.0369 -0.0028
16745SOL    HW151676   4.610   3.307  11.680  0.5249  0.7372 -1.4132
16745SOL    HW251677   4.746   3.291  11.745 -0.9361 -0.6133  1.5072
16746SOL     OW51678   2.107   2.118   0.021  0.0918 -0.2365 -0.2952
16746SOL    HW151679   2.082   2.087   0.107  0.4750  1.4078  0.4472
16746SOL    HW251680   2.024   2.131  -0.025 -0.1022 -1.3754 -0.2884
16747SOL     OW51681   5.789   3.729  12.046 -0.4079  0.1072  0.1166
16747SOL    HW151682   5.707   3.684  12.065 -0.9186  0.1567 -1.7985
16747SOL    HW251683   5.821   3.687  11.967 -0.6992  2.7849 -1.5134
16748SOL     OW51684   2.252   1.530   8.418  0.3473  0.2360  0.1025
16748SOL    HW151685   2.187   1.522   8.349  2.0668 -1.4561 -1.4034
16748SOL    HW251686   2.273   1.623   8.420  0.4942  0.2730 -1.8876
16749SOL     OW51687   2.280   5.959   7.027  0.1397  0.7621 -0.0484
16749SOL    HW151688   2.289   5.921   7.115  0.0260  2.2416  0.6229
16749SOL    HW251689   2.276   5.883   6.969 -0.8850 -0.2815  1.3212
16750SOL     OW51690   3.851   2.865   8.935 -0.5110 -0.7208 -0.1144
16750SOL    HW151691   3.867   2.930   8.867  0.7028 -2.3841 -1.5308
16750SOL    HW251692   3.768   2.824   8.910 -0.2129 -1.1289 -0.4646
16751SOL     OW51693   1.954   0.869   2.365  0.5034  0.1732  0.0723
16751SOL    HW151694   1.905   0.797   2.404  0.1894 -0.5133 -1.5245
16751SOL    HW251695   1.949   0.939   2.431  0.4952 -1.1050  1.4866
16752SOL     OW51696   5.522   3.714  10.573  0.0209 -0.1097 -0.0844
16752SOL    HW151697   5.525   3.800  10.531  1.5664  0.4277  1.0667
16752SOL    HW251698   5.519   3.732  10.667  0.6089 -1.3032  0.1940
16753SOL     OW51699   7.639   0.521   4.919 -0.3701 -0.6637 -0.0033
16753SOL    HW151700   7.594   0.471   4.986 -2.2471  0.5522 -0.2603
16753SOL    HW251701   7.577   0.524   4.846  0.4344  0.4371 -0.6770
16754SOL     OW51702   3.212   2.868   3.902 -0.2080  0.4133  0.5847
16754SOL    HW151703   3.308   2.872   3.908 -0.1058  0.4511 -0.7769
16754SOL    HW251704   3.181   2.932   3.966  0.6901  0.8634  0.5816
16755SOL     OW51705   2.740   7.633   1.161  0.0083 -0.3172 -0.4618
16755SOL    HW151706   2.678   7.610   1.092  0.8183  0.1456 -1.3688
16755SOL    HW251707   2.697   7.703   1.210 -1.0346 -1.3962  0.2045
16756SOL     OW51708   1.651   5.321   8.404 -0.6369 -0.2341 -0.4679
16756SOL    HW151709   1.582   5.383   8.431 -1.7225 -2.6501  2.8442
16756SOL    HW251710   1.603   5.246   8.369  0.4985 -0.7425 -0.9840
16757SOL     OW51711   2.872   1.421  10.807 -0.1765  0.1078  0.0537
16757SOL    HW151712   2.882   1.440  10.714 -1.3893  1.9207  0.2461
16757SOL    HW251713   2.961   1.425  10.842  0.2638 -0.3753 -0.9735
16758SOL     OW51714   2.455   5.108   7.880 -0.2249  0.0962  0.2968
16758SOL    HW151715   2.456   5.202   7.865 -0.2692 -0.1711 -1.7543
16758SOL    HW251716   2.473   5.070   7.793  1.6349 -1.7636  1.3846
16759SOL     OW51717   2.608   2.908   7.795  0.1276 -0.5662 -0.0839
16759SOL    HW151718   2.689   2.858   7.782 -0.0571 -0.6087 -1.2249
16759SOL    HW251719   2.626   2.993   7.755  0.0294 -0.1230  0.7885
16760SOL     OW51720   5.293   2.366  10.004  0.7751  0.7646 -0.2027
16760SOL    HW151721   5.255   2.408  10.082 -1.1278  1.1893 -1.2978
16760SOL    HW251722   5.293   2.273  10.025 -2.4525  0.5413 -0.6903
16761SOL     OW51723   2.219   7.867   5.968 -0.0700 -0.2827 -0.1219
16761SOL    HW151724   2.172   7.944   6.001 -0.7626  0.6854 -3.0812
16761SOL    HW251725   2.150   7.800   5.958  0.1736 -0.6407  0.5280
16762SOL     OW51726   4.959   2.867   2.332 -0.0136  0.1718  0.0018
16762SOL    HW151727   4.935   2.959   2.324  0.4466  0.3413  0.4945
16762SOL    HW251728   5.038   2.867   2.387  0.1011 -0.4996 -0.1469
16763SOL     OW51729   0.200   6.734   2.935 -0.2366  0.1501  0.6904
16763SOL    HW151730   0.294   6.720   2.923  0.1871  0.6839  2.8559
16763SOL    HW251731   0.180   6.810   2.880  0.3171 -0.6615 -0.6794
16764SOL     OW51732   0.172   4.621   4.661  0.0291 -0.4484 -0.2494
16764SOL    HW151733   0.242   4.679   4.629  1.6144 -2.6680 -1.0303
16764SOL    HW251734   0.211   4.534   4.662 -2.6275 -1.7419 -0.2859
16765SOL     OW51735   0.892   0.528   7.279  0.6037 -0.3204 -0.1059
16765SOL    HW151736   0.883   0.623   7.274  1.4246 -0.1550  1.1501
16765SOL    HW251737   0.817   0.494   7.229 -0.2126  0.9696  0.1913
16766SOL     OW51738   5.848   6.261   7.613  0.6831 -0.2767  0.8775
16766SOL    HW151739   5.833   6.203   7.688  0.8296 -0.4141  0.7979
16766SOL    HW251740   5.889   6.339   7.651 -0.1337  0.0687  1.0897
16767SOL     OW51741   1.014   0.708   2.850  0.3701  0.4187  0.3383
16767SOL    HW151742   1.001   0.802   2.859  0.4854  0.5961 -1.1044
16767SOL    HW251743   1.036   0.695   2.757 -1.1313 -1.1924  0.1509
16768SOL     OW51744   0.218   7.181  11.609  0.4952  0.5062 -0.6576
16768SOL    HW151745   0.239   7.088  11.598 -0.2254  0.1719  0.5898
16768SOL    HW251746   0.148   7.198  11.546  1.1610  0.4127 -1.4369
16769SOL     OW51747   5.483   3.355  11.129  0.1004 -0.1091 -0.3438
16769SOL    HW151748   5.496   3.266  11.161 -1.2835 -1.1824 -2.5342
16769SOL    HW251749   5.572   3.389  11.116  0.6753 -1.6927 -0.7887
16770SOL     OW51750   1.193   4.259   2.628  0.2003 -0.1722 -0.0823
16770SOL    HW151751   1.206   4.312   2.549  0.8369 -0.2685 -0.0455
16770SOL    HW251752   1.111   4.212   2.611 -0.0422  0.3384 -0.3825
16771SOL     OW51753   4.908   7.277   8.572 -0.3024  0.2833 -0.0531
16771SOL    HW151754   4.824   7.254   8.613 -0.4017  0.6627 -0.0367
16771SOL    HW251755   4.965   7.300   8.645 -0.9898  2.6300 -0.1839
16772SOL     OW51756   6.861   6.499  10.913 -0.3266  0.1311 -0.1485
16772SOL    HW151757   6.874   6.534  11.001  0.6686  2.0994 -1.0103
16772SOL    HW251758   6.775   6.533  10.886 -1.4660 -1.9537  0.6735
16773SOL     OW51759   4.494   2.998   3.860  0.2644 -0.0979  0.1053
16773SOL    HW151760   4.517   2.925   3.802  0.9194 -0.3011  0.6025
16773SOL    HW251761   4.503   2.962   3.948 -0.3117  0.3285  0.3456
16774SOL     OW51762   4.552   0.854   2.297 -0.6129 -0.3671 -0.1111
16774SOL    HW151763   4.617   0.788   2.273 -0.5269 -0.4405  0.3265
16774SOL    HW251764   4.573   0.929   2.241 -1.0970 -0.9138 -1.0618
16775SOL     OW51765   7.832   0.524   0.943  0.5934 -0.1459  0.1484
16775SOL    HW151766   7.862   0.545   0.855  1.3093  2.8033  0.9758
16775SOL    HW251767   7.811   0.609   0.982 -0.4727 -1.4133  2.5753
16776SOL     OW51768   4.326   5.293   0.006 -0.6879  0.0331 -0.3644
16776SOL    HW151769   4.302   5.255  -0.078 -0.4408 -0.5918 -0.1570
16776SOL    HW251770   4.320   5.221   0.068 -0.6560  0.4390  0.1184
16777SOL     OW51771   7.287   0.820  11.563  0.9020 -0.7668 -0.4576
16777SOL    HW151772   7.204   0.866  11.566  1.4896  0.2643  0.5664
16777SOL    HW251773   7.263   0.727  11.566 -0.2927 -0.5810 -2.4693
16778SOL     OW51774   3.758   1.925   5.244 -0.1293 -0.0783  0.1720
16778SOL    HW151775   3.764   2.012   5.206 -0.2397 -0.3708 -0.5416
16778SOL    HW251776   3.665   1.915   5.264 -0.0863  0.0411  0.4269
16779SOL     OW51777   2.330   4.041   4.550  0.3265  0.3358  0.2847
16779SOL    HW151778   2.395   4.090   4.500  0.4424  0.5650  0.6527
16779SOL    HW251779   2.357   3.949   4.541 -0.4783  0.2158 -1.2566
16780SOL     OW51780   0.674   6.536   1.607 -0.0199  0.0376 -0.8502
16780SOL    HW151781   0.679   6.463   1.669 -2.1248  1.2482  0.8954
16780SOL    HW251782   0.765   6.564   1.596  0.4429 -0.2585  1.6986
16781SOL     OW51783   1.810   3.083   3.126 -0.2364  0.2659  0.3337
16781SOL    HW151784   1.905   3.095   3.127 -0.3822  1.6481  1.3817
16781SOL    HW251785   1.778   3.151   3.066 -0.5284 -0.6245 -0.5317
16782SOL     OW51786   2.428   6.076   2.327 -0.6024  0.1746  0.7409
16782SOL    HW151787   2.472   6.053   2.245  0.3038 -0.8653  1.4872
16782SOL    HW251788   2.338   6.094   2.302 -0.0454  1.2337 -0.6743
16783SOL     OW51789   4.095   7.490   9.271 -0.1311  0.3290 -0.0024
16783SOL    HW151790   4.069   7.444   9.351  1.0124 -0.6771 -0.1800
16783SOL    HW251791   4.180   7.453   9.248 -0.6953  0.1456 -2.0357
16784SOL     OW51792   3.899   0.219   1.646  0.4516 -0.1020 -0.0584
16784SOL    HW151793   3.839   0.162   1.694  0.1293 -1.1484 -1.6350
16784SOL    HW251794   3.842   0.277   1.595  0.7668 -0.6084 -1.0050
16785SOL     OW51795   2.044   6.109  12.157 -0.0637 -0.3468 -0.0154
16785SOL    HW151796   1.965   6.056  12.153  0.2599 -0.8061 -0.6267
16785SOL    HW251797   2.021   6.190  12.112 -0.4220 -0.1524  0.5126
16786SOL     OW51798   4.037   3.993   7.498 -0.7728 -0.0663 -0.2848
16786SOL    HW151799   3.967   4.017   7.558 -0.3100 -0.2800  0.3606
16786SOL    HW251800   4.047   3.898   7.509  0.2682  0.1064  0.3695
16787SOL     OW51801   3.131   6.719   2.248  0.6691  0.0412 -0.6076
16787SOL    HW151802   3.138   6.775   2.325 -2.1503 -0.3998  0.0985
16787SOL    HW251803   3.179   6.766   2.180 -0.0153  2.4217  0.4242
16788SOL     OW51804   6.008   6.123   2.762 -0.2335  0.1573  0.1146
16788SOL    HW151805   5.913   6.119   2.756 -0.3969  1.0100  1.5839
16788SOL    HW251806   6.038   6.120   2.671 -1.8070  2.4840 -0.5928
16789SOL     OW51807   3.552   6.806   9.534 -0.3608 -0.2153 -0.5686
16789SOL    HW151808   3.511   6.779   9.616  2.2194 -2.9217  0.0235
16789SOL    HW251809   3.560   6.725   9.484  3.4685  0.1770 -0.8738
16790SOL     OW51810   1.277   0.929   3.180 -0.3866 -0.0621  0.3861
16790SOL    HW151811   1.251   0.992   3.247  0.6850  0.8564 -0.0263
16790SOL    HW251812   1.371   0.915   3.196  0.1192  0.8742 -1.4235
16791SOL     OW51813   0.063   6.120   4.452  0.4975 -0.0062 -0.2332
16791SOL    HW151814   0.015   6.187   4.501 -1.2341 -1.3205 -0.0433
16791SOL    HW251815   0.073   6.158   4.364 -1.3276  0.1556 -0.4197
16792SOL     OW51816   2.555   3.224   1.887 -0.0726  0.4400 -0.4914
16792SOL    HW151817   2.593   3.139   1.907  0.3920  0.6884 -0.2964
16792SOL    HW251818   2.461   3.210   1.888 -0.0826  0.3542  1.5658
16793SOL     OW51819   5.411   5.926   1.571 -0.6967 -0.0779 -0.3649
16793SOL    HW151820   5.327   5.900   1.535 -0.7661  0.1420 -0.3662
16793SOL    HW251821   5.470   5.929   1.496 -0.0807 -2.5227 -0.0651
16794SOL     OW51822   3.808   0.563   6.626 -0.3439 -0.1353 -0.2938
16794SOL    HW151823   3.815   0.658   6.635 -0.4215 -0.3074  2.3201
16794SOL    HW251824   3.895   0.530   6.647 -0.7437 -0.6874  0.5787
16795SOL     OW51825   5.671   4.997   8.094 -0.1968  0.0178 -0.2384
16795SOL    HW151826   5.760   4.999   8.129 -0.5650 -1.8208  0.9228
16795SOL    HW251827   5.682   4.963   8.005  0.2544 -0.0732 -0.1523
16796SOL     OW51828   3.873   4.085   3.297 -0.3517 -0.3108 -0.3040
16796SOL    HW151829   3.841   3.998   3.271 -2.3869 -0.2673  1.7389
16796SOL    HW251830   3.946   4.068   3.356 -0.8496 -0.6471  0.2178
16797SOL     OW51831   7.845   6.600   3.882 -0.0989 -0.1207 -0.2249
16797SOL    HW151832   7.801   6.587   3.797  0.8370  0.2788 -0.7871
16797SOL    HW251833   7.924   6.547   3.877  0.2876  0.4063  0.1411
16798SOL     OW51834   2.753   3.823   3.089 -0.1069 -0.5705 -0.1779
16798SOL    HW151835   2.692   3.877   3.141 -1.3417 -1.1603 -0.9633
16798SOL    HW251836   2.720   3.830   2.999  0.0767 -2.1399 -0.3914
16799SOL     OW51837   3.911   0.729   7.841 -0.3784 -0.0156 -0.6948
16799SOL    HW151838   3.845   0.797   7.830 -1.4585 -0.9282 -0.0263
16799SOL    HW251839   3.881   0.678   7.916  0.7062 -0.8868 -0.8247
16800SOL     OW51840   1.307   0.991   7.452  0.4131  0.0051 -0.2018
16800SOL    HW151841   1.350   1.049   7.515 -0.0910 -1.4607  1.5891
16800SOL    HW251842   1.234   0.952   7.501  0.1138 -1.3654 -1.6393
16801SOL     OW51843   5.248   0.924   0.154  0.1974  0.3723 -0.2462
16801SOL    HW151844   5.196   0.994   0.115 -0.4150  0.7529  1.1873
16801SOL    HW251845   5.191   0.886   0.220  1.5621  0.4571  1.0296
16802SOL     OW51846   2.819   1.787   5.131  0.5839  0.4805  0.1119
16802SOL    HW151847   2.905   1.766   5.093  0.4463  1.6669 -0.9266
16802SOL    HW251848   2.807   1.721   5.200  2.1263  0.0158 -0.0089
16803SOL     OW51849   6.994   4.598   5.873  0.6487  0.2092 -0.2986
16803SOL    HW151850   7.050   4.560   5.940 -1.7635 -0.8630  1.2272
16803SOL    HW251851   7.010   4.693   5.879  1.8780 -0.0219  0.4111
16804SOL     OW51852   7.266   0.496   7.290  0.7059 -0.0128  0.1832
16804SOL    HW151853   7.231   0.407   7.291  0.5509  0.0442  0.9833
16804SOL    HW251854   7.213   0.543   7.356  1.3474  0.4431  0.3821
16805SOL     OW51855   1.476   2.581   3.331 -0.2570 -0.2609  0.1925
16805SOL    HW151856   1.442   2.632   3.404  1.0067  1.2415 -0.2198
16805SOL    HW251857   1.568   2.565   3.353 -0.0836 -0.5267 -0.6633
16806SOL     OW51858   5.095   6.654   9.217 -0.2231  0.8554 -0.0101
16806SOL    HW151859   5.188   6.637   9.199 -0.4415  0.9503 -1.3310
16806SOL    HW251860   5.065   6.707   9.143 -0.7463  2.9839  1.6503
16807SOL     OW51861   2.455   3.124   6.465 -0.0803 -0.1356 -0.1148
16807SOL    HW151862   2.432   3.205   6.511 -1.9487 -0.6633 -0.0510
16807SOL    HW251863   2.437   3.054   6.528  0.7615 -0.6675 -0.4449
16808SOL     OW51864   6.467   5.462  11.813 -0.0720  0.5631 -0.0052
16808SOL    HW151865   6.399   5.396  11.826  0.4589 -0.0005 -0.0414
16808SOL    HW251866   6.423   5.533  11.767 -0.3185 -0.3633 -1.2300
16809SOL     OW51867   2.963   5.853   2.857  0.5206  0.2724  0.2882
16809SOL    HW151868   2.944   5.863   2.950  0.4804 -1.8088  0.5452
16809SOL    HW251869   3.058   5.836   2.854  0.1740 -1.8865  0.2064
16810SOL     OW51870   1.715   4.518   8.441  0.5016 -0.0448  0.1688
16810SOL    HW151871   1.712   4.435   8.490  0.8108 -1.1224 -1.5615
16810SOL    HW251872   1.680   4.497   8.355  1.2039  1.4769 -0.5285
16811SOL     OW51873   0.783   7.918   3.506 -0.2030  0.4367 -0.3554
16811SOL    HW151874   0.797   8.010   3.485 -0.1007 -0.0051 -2.4545
16811SOL    HW251875   0.870   7.885   3.526 -0.1059  0.6202 -0.4644
16812SOL     OW51876   1.860   7.302  10.419 -0.0929 -0.4299 -0.1004
16812SOL    HW151877   1.791   7.236  10.410  0.1798 -1.4611  3.7528
16812SOL    HW251878   1.822   7.381  10.380 -2.3314 -1.6658 -0.5961
16813SOL     OW51879   1.450   1.114   1.728  0.2719  0.0106  0.1170
16813SOL    HW151880   1.373   1.133   1.674  1.0551 -0.2232 -1.1267
16813SOL    HW251881   1.524   1.130   1.670  1.1124 -1.8603  0.6012
16814SOL     OW51882   3.589   2.364  12.331 -0.6028 -0.9226 -0.3237
16814SOL    HW151883   3.621   2.448  12.364 -0.8658 -0.3257 -1.5097
16814SOL    HW251884   3.655   2.300  12.359  1.3675  0.1700 -2.1242
16815SOL     OW51885   4.558   2.377  11.771  0.0634 -0.3026 -0.1948
16815SOL    HW151886   4.520   2.363  11.684  1.3173  1.1500 -1.0342
16815SOL    HW251887   4.651   2.387  11.755  0.1250  1.7243  1.0921
16816SOL     OW51888   7.901   0.835   5.892  0.7844  0.2827  0.1242
16816SOL    HW151889   7.812   0.808   5.868  1.1433  0.1650 -1.1843
16816SOL    HW251890   7.894   0.929   5.907  0.4595  0.3015 -0.1216
16817SOL     OW51891   3.964   1.669   9.292  0.1665 -0.4879  0.0127
16817SOL    HW151892   3.986   1.727   9.365 -0.7529 -2.8431  2.2894
16817SOL    HW251893   3.870   1.658   9.297 -0.0738 -0.0016 -2.1941
16818SOL     OW51894   3.994   6.027   8.035  0.7216 -0.0264 -0.3249
16818SOL    HW151895   4.004   5.934   8.014 -0.2201  0.1210 -1.5207
16818SOL    HW251896   3.902   6.046   8.017  0.0103  0.3912  3.0365
16819SOL     OW51897   6.462   7.550  12.131 -0.6959 -0.7516  0.5616
16819SOL    HW151898   6.531   7.552  12.198 -0.7998  0.4718  0.6478
16819SOL    HW251899   6.381   7.541  12.181 -0.8214  0.7053  0.6720
16820SOL     OW51900   4.333   3.060  10.924  0.3477  0.0252  0.0977
16820SOL    HW151901   4.315   2.978  10.878 -2.8097  0.4008  0.4471
16820SOL    HW251902   4.314   3.128  10.860  0.1815  0.4998  0.6477
16821SOL     OW51903   5.920   6.129   4.812 -0.5080  0.7476  0.3608
16821SOL    HW151904   5.878   6.066   4.870  1.2673 -1.6875 -0.8204
16821SOL    HW251905   5.928   6.083   4.729  0.8486  2.5587 -0.5788
16822SOL     OW51906   0.595   5.247   2.025 -0.2523  0.1087 -0.4051
16822SOL    HW151907   0.510   5.289   2.017  0.0905  0.7222 -0.8873
16822SOL    HW251908   0.642   5.299   2.090 -0.1239 -0.0286 -0.3855
16823SOL     OW51909   4.786   5.648   6.694 -0.2383  0.0240  0.4691
16823SOL    HW151910   4.763   5.558   6.716  2.8359 -0.6522  1.4549
16823SOL    HW251911   4.766   5.656   6.601 -1.3725 -1.3677  0.5624
16824SOL     OW51912   4.404   5.177   1.495 -0.3184 -0.4004 -0.3288
16824SOL    HW151913   4.427   5.270   1.498  0.0198 -0.4809 -0.3486
16824SOL    HW251914   4.354   5.161   1.575  0.6916 -0.4766  0.3014
16825SOL     OW51915   1.567   0.946   4.072  0.2063  0.1115 -0.5369
16825SOL    HW151916   1.592   1.031   4.037  0.1221  0.0104 -0.8453
16825SOL    HW251917   1.480   0.929   4.036  1.0095 -0.9860 -2.1060
16826SOL     OW51918   1.595   3.044   5.800  0.2550  0.5386 -0.4026
16826SOL    HW151919   1.576   2.980   5.732  1.3727 -0.4038  0.1304
16826SOL    HW251920   1.525   3.109   5.793 -1.0341 -0.8649 -0.8052
16827SOL     OW51921   1.852   5.121   0.230 -0.4795 -0.8535 -0.2315
16827SOL    HW151922   1.874   5.049   0.171 -2.0815 -2.8764  1.4727
16827SOL    HW251923   1.882   5.091   0.316 -2.2051 -0.0227  0.7092
16828SOL     OW51924   2.113   2.252   4.407 -0.2680  0.0691  0.0878
16828SOL    HW151925   2.146   2.164   4.387 -1.3916 -0.6346  1.1224
16828SOL    HW251926   2.186   2.297   4.448  0.3416 -0.3570 -0.5134
16829SOL     OW51927   3.131   5.609  11.040  0.6065 -0.0912  0.2794
16829SOL    HW151928   3.185   5.679  11.075  0.5896 -0.9809  2.2649
16829SOL    HW251929   3.191   5.536  11.026  0.6073  0.2233 -1.6572
16830SOL     OW51930   6.473   1.891   4.652 -0.4880 -0.0831  0.0474
16830SOL    HW151931   6.505   1.910   4.564  1.4518 -0.8602  0.5231
16830SOL    HW251932   6.415   1.816   4.641  0.4370 -0.7375 -0.4758
16831SOL     OW51933   6.223   0.998   2.332  0.6246  0.0114 -0.5607
16831SOL    HW151934   6.281   1.071   2.313  1.7971 -1.4674 -3.2855
16831SOL    HW251935   6.192   0.969   2.246 -1.1109 -1.6421  0.5442
16832SOL     OW51936   6.457   3.967   5.772  0.3892 -0.6026 -0.4205
16832SOL    HW151937   6.492   3.917   5.698  0.4529 -0.9505 -0.1570
16832SOL    HW251938   6.383   3.915   5.804 -0.0176 -0.1540 -0.6158
16833SOL     OW51939   3.832   0.860  11.859 -0.1442  0.0806  0.7120
16833SOL    HW151940   3.875   0.828  11.938 -1.0992 -0.4346  1.0304
16833SOL    HW251941   3.905   0.878  11.799  0.5081 -3.4721  0.1909
16834SOL     OW51942   2.327   1.005   4.788  0.0700 -0.0441  0.1929
16834SOL    HW151943   2.384   0.930   4.801  1.1188  0.7482  0.3148
16834SOL    HW251944   2.336   1.028   4.696 -0.3800 -0.1681  0.1150
16835SOL     OW51945   7.965   4.539   2.669  0.0970 -0.0536  0.0237
16835SOL    HW151946   7.922   4.510   2.588  0.2317 -2.2926  0.6815
16835SOL    HW251947   8.043   4.587   2.639 -0.1169 -0.4277 -1.1838
16836SOL     OW51948   5.238   2.539   1.446  0.4010 -0.2104  0.0528
16836SOL    HW151949   5.267   2.594   1.374 -0.1569  0.6243  0.4620
16836SOL    HW251950   5.221   2.454   1.405  0.0032  0.2714 -0.8160
16837SOL     OW51951   6.526   6.333   4.439  0.3254  0.4885 -0.2756
16837SOL    HW151952   6.527   6.407   4.500 -2.2167 -0.1823  0.7271
16837SOL    HW251953   6.546   6.257   4.493 -0.3470  0.0754 -0.5916
16838SOL     OW51954   6.463   1.099   4.825 -0.6644 -0.6715 -0.0007
16838SOL    HW151955   6.469   1.193   4.840 -0.0922 -0.8971  1.3679
16838SOL    HW251956   6.553   1.071   4.813 -0.9396 -0.8470 -1.9924
16839SOL     OW51957   5.560   3.378  11.683  0.2046 -0.2499 -0.2583
16839SOL    HW151958   5.582   3.285  11.679  1.7555  0.1186 -1.2016
16839SOL    HW251959   5.547   3.404  11.592 -0.9932  0.3032  0.0504
16840SOL     OW51960   2.190   2.863   7.954 -0.2653 -0.5678  0.2954
16840SOL    HW151961   2.191   2.956   7.931  0.5010 -0.6843 -0.1999
16840SOL    HW251962   2.263   2.825   7.904  0.4925 -1.1225  1.7475
16841SOL     OW51963   0.987   6.697   3.793  0.6004  0.0619 -0.0543
16841SOL    HW151964   0.997   6.618   3.741  1.1537  0.5737 -0.7342
16841SOL    HW251965   1.037   6.764   3.747  1.0755  0.5423  1.1146
16842SOL     OW51966   0.345   0.305  12.172  0.0864  0.4112 -0.1587
16842SOL    HW151967   0.408   0.329  12.240  2.1993  0.2294 -1.9308
16842SOL    HW251968   0.354   0.372  12.105  0.2287 -0.9533 -1.5707
16843SOL     OW51969   3.989   4.904   9.940  0.1041  0.1913 -0.5272
16843SOL    HW151970   3.931   4.978   9.955 -0.3781 -0.0216 -1.2981
16843SOL    HW251971   4.031   4.889  10.025 -0.3767  0.8451 -0.1661
16844SOL     OW51972   0.727   7.660  11.096  0.5416 -0.4435  0.3519
16844SOL    HW151973   0.638   7.643  11.127  0.9646 -1.1248  1.2143
16844SOL    HW251974   0.724   7.640  11.003 -0.7193  1.5310 -0.0964
16845SOL     OW51975   5.678   2.440   9.079 -0.3392  0.4133  0.2206
16845SOL    HW151976   5.608   2.449   9.015 -1.0401  0.9900  1.0416
16845SOL    HW251977   5.743   2.383   9.037 -0.9032  0.5694 -0.8804
16846SOL     OW51978   5.990   4.876   8.428 -0.3254 -0.5480  0.0203
16846SOL    HW151979   6.027   4.852   8.513  0.1693 -0.4601 -0.1633
16846SOL    HW251980   5.898   4.892   8.445 -0.5753 -2.0589  0.2558
16847SOL     OW51981   2.705   2.686   8.687  0.0471  0.0945  0.2246
16847SOL    HW151982   2.727   2.776   8.714 -0.3953  0.2139  0.1867
16847SOL    HW251983   2.678   2.643   8.768  0.8180 -0.1780  0.3464
16848SOL     OW51984   4.182   1.829  12.466 -0.2578  0.1194  0.5115
16848SOL    HW151985   4.244   1.858  12.399  1.0016  0.1847  1.6583
16848SOL    HW251986   4.142   1.750  12.429 -0.8085  1.0529 -0.9731
16849SOL     OW51987   2.753   0.978   5.637 -0.3671  0.0889  0.0527
16849SOL    HW151988   2.700   0.898   5.637  0.0526 -0.2011  0.4780
16849SOL    HW251989   2.723   1.026   5.714 -1.6092  1.0345 -0.9860
16850SOL     OW51990   6.007   2.160   6.316  0.4464 -0.1376  0.3047
16850SOL    HW151991   5.933   2.158   6.255  2.0829 -0.7863 -1.7896
16850SOL    HW251992   6.014   2.252   6.342 -1.4579 -0.1671  1.0975
16851SOL     OW51993   3.301   0.713   3.135  0.4732 -0.0405  0.0409
16851SOL    HW151994   3.244   0.640   3.159  2.4519 -1.5602  0.3291
16851SOL    HW251995   3.317   0.700   3.041 -2.3324  2.4030 -0.9516
16852SOL     OW51996   0.711   1.992   2.277 -0.7509  0.3379 -0.4492
16852SOL    HW151997   0.786   1.941   2.247 -1.2103 -0.2948 -0.5219
16852SOL    HW251998   0.698   1.966   2.368 -0.3895  1.0413 -0.1868
16853SOL     OW51999   3.533   7.848   4.213  0.6644  0.2592  0.1599
16853SOL    HW152000   3.460   7.908   4.223  0.9195  1.2359 -2.7822
16853SOL    HW252001   3.493   7.762   4.203 -0.1924  0.8397 -1.8517
16854SOL     OW52002   1.942   1.252   7.874 -0.3927 -0.2197  0.1220
16854SOL    HW152003   1.911   1.272   7.786 -0.1404 -1.1906 -0.1933
16854SOL    HW252004   1.895   1.172   7.898 -0.2838 -0.0917  0.7785
16855SOL     OW52005   1.803   0.370   2.599 -0.2074  0.6821  0.4284
16855SOL    HW152006   1.714   0.368   2.633 -0.1664  1.6179  0.6170
16855SOL    HW252007   1.802   0.440   2.533  0.0021 -0.3249 -0.6828
16856SOL     OW52008   2.881   1.443   1.897 -0.9824 -0.2035  0.7247
16856SOL    HW152009   2.790   1.417   1.882 -1.2393  0.3441  1.2926
16856SOL    HW252010   2.922   1.437   1.811 -1.6768  0.0213  0.3653
16857SOL     OW52011   7.010   0.543  10.923 -0.1904  0.2932  0.1374
16857SOL    HW152012   7.070   0.563  10.851  0.4637  0.8516  0.8216
16857SOL    HW252013   6.923   0.555  10.886  0.1311  0.2499 -0.6521
16858SOL     OW52014   3.560   5.812   5.606 -1.1000  0.7467 -0.2605
16858SOL    HW152015   3.618   5.779   5.538  0.4680  0.2960  1.2184
16858SOL    HW252016   3.538   5.900   5.577  1.2502  1.3709 -0.3947
16859SOL     OW52017   4.752   0.657   0.220 -0.3056  0.0618 -0.2173
16859SOL    HW152018   4.725   0.706   0.298 -1.0716  1.2279 -1.1867
16859SOL    HW252019   4.800   0.720   0.167 -0.9170 -0.3384 -1.2817
16860SOL     OW52020   2.121   2.926   3.479  0.3048  0.3888  0.5914
16860SOL    HW152021   2.121   2.999   3.418 -0.1390  0.2277  0.3923
16860SOL    HW252022   2.211   2.893   3.478 -0.3843 -1.9241 -2.7730
16861SOL     OW52023   2.856   7.269   9.674  0.3089 -0.6197 -0.3101
16861SOL    HW152024   2.866   7.198   9.610  1.3998 -1.8665  1.1600
16861SOL    HW252025   2.945   7.303   9.686 -0.1108  0.6202 -0.5231
16862SOL     OW52026   3.122   4.495   4.290 -0.1168 -0.2297 -0.7149
16862SOL    HW152027   3.190   4.562   4.290  0.0355 -0.3836 -0.8544
16862SOL    HW252028   3.153   4.429   4.228 -1.3270  0.6462 -2.3367
16863SOL     OW52029   0.426   1.308   3.612  0.2273  0.4610  0.2454
16863SOL    HW152030   0.459   1.221   3.637 -0.9249 -0.7142 -2.0586
16863SOL    HW252031   0.505   1.361   3.602  1.0300 -0.6225  0.6201
16864SOL     OW52032   3.537   6.482   7.544 -0.1236  0.3507 -0.2701
16864SOL    HW152033   3.498   6.569   7.551 -0.3801  0.1877  0.4258
16864SOL    HW252034   3.632   6.499   7.545 -0.1618  0.7254 -1.7223
16865SOL     OW52035   6.129   2.130   8.469 -0.0809 -0.2238  0.0520
16865SOL    HW152036   6.082   2.088   8.541  0.0093 -0.1740  0.1411
16865SOL    HW252037   6.152   2.217   8.503  1.0155 -0.6280  0.4050
16866SOL     OW52038   3.060   2.327   8.186 -0.4839  0.1661  0.4669
16866SOL    HW152039   3.151   2.348   8.166 -0.0146 -1.2487  0.9479
16866SOL    HW252040   3.023   2.409   8.219  0.3229  1.0170 -0.6815
16867SOL     OW52041   3.520   7.696   3.346  0.1178  0.0069 -0.0850
16867SOL    HW152042   3.505   7.777   3.298  2.5795  0.2852 -0.5435
16867SOL    HW252043   3.588   7.651   3.296  0.1163 -1.4665  1.1682
16868SOL     OW52044   2.704   2.701   8.338  0.3564  0.0349 -0.0285
16868SOL    HW152045   2.636   2.634   8.331  0.5145  0.0660 -2.5057
16868SOL    HW252046   2.696   2.733   8.428 -1.2076 -1.7162  0.5227
16869SOL     OW52047   7.250   2.489   0.057 -0.4368  0.1082 -0.0149
16869SOL    HW152048   7.315   2.536   0.004 -0.6252  0.3890  0.0041
16869SOL    HW252049   7.299   2.417   0.096 -0.7580 -1.4491 -2.3228
16870SOL     OW52050   5.072   6.540   6.487 -0.4311 -0.1060 -0.4877
16870SOL    HW152051   5.003   6.487   6.526  0.1777 -0.1758  0.5466
16870SOL    HW252052   5.073   6.621   6.539  0.6747 -0.3738 -0.0498
16871SOL     OW52053   0.997   6.983   9.809  0.3181 -0.2822 -0.3368
16871SOL    HW152054   1.020   6.912   9.749  0.6226  0.6383 -1.3376
16871SOL    HW252055   1.005   7.062   9.756 -0.4453  0.4672  0.6434
16872SOL     OW52056   6.544   2.734   6.623 -0.2629  0.2403 -0.4344
16872SOL    HW152057   6.639   2.745   6.629 -0.1829 -1.1028  2.2639
16872SOL    HW252058   6.512   2.758   6.710 -1.9035 -3.3219  0.0960
16873SOL     OW52059   6.253   4.787   4.861 -0.2111  0.1074  0.1030
16873SOL    HW152060   6.182   4.782   4.798 -0.3782  1.0609  0.1963
16873SOL    HW252061   6.331   4.801   4.808 -0.3559  0.9425  0.0968
16874SOL     OW52062   7.181   1.731  10.548  0.2639 -0.1932  0.3947
16874SOL    HW152063   7.133   1.804  10.508  1.8123  0.8797  0.4107
16874SOL    HW252064   7.134   1.713  10.629 -0.1138  0.8508  0.4292
16875SOL     OW52065   6.123   7.271  11.660  0.0781 -0.1320 -0.2315
16875SOL    HW152066   6.038   7.266  11.704  0.0986 -1.1683 -0.2855
16875SOL    HW252067   6.102   7.268  11.567  0.0574  1.7369 -0.3391
16876SOL     OW52068   0.336   1.171   5.814  0.5765  0.3884  0.4573
16876SOL    HW152069   0.250   1.188   5.775 -0.0920  1.8177  2.4025
16876SOL    HW252070   0.347   1.077   5.806 -0.5376  0.3379 -1.0518
16877SOL     OW52071   1.373   6.384   3.472 -0.1287  0.2041 -0.3296
16877SOL    HW152072   1.368   6.359   3.380  0.2599 -0.5013 -0.1613
16877SOL    HW252073   1.411   6.308   3.516  1.2180  1.1301  0.1721
16878SOL     OW52074   2.855   5.621   6.887  0.1008  0.2369  0.0812
16878SOL    HW152075   2.814   5.560   6.825  1.0202 -1.0387  0.6601
16878SOL    HW252076   2.826   5.707   6.859 -0.3633 -0.3808 -1.4690
16879SOL     OW52077   1.459   6.551  11.731  0.6365 -0.2784 -0.6469
16879SOL    HW152078   1.517   6.613  11.774 -1.0277  0.4193  0.7111
16879SOL    HW252079   1.431   6.491  11.800 -1.1300  0.1068 -0.9682
16880SOL     OW52080   7.952   2.045   0.120  0.0943  0.2714 -0.1957
16880SOL    HW152081   7.883   1.999   0.073 -0.5598  0.6979  0.3343
16880SOL    HW252082   8.033   2.004   0.090 -0.4567 -1.1546  0.1896
16881SOL     OW52083   4.106   3.024   6.618  0.0762 -0.6769  0.0903
16881SOL    HW152084   4.093   3.088   6.688  1.6735 -1.1029  0.8055
16881SOL    HW252085   4.190   3.048   6.578  0.1252 -1.6133 -0.4085
16882SOL     OW52086   0.939   1.362   6.124 -0.4845  0.2664  0.1967
16882SOL    HW152087   0.973   1.273   6.116 -1.8022 -0.3261  0.7855
16882SOL    HW252088   0.993   1.402   6.193  0.6686  0.2296 -0.6609
16883SOL     OW52089   4.060   1.188   0.764 -0.1035 -0.6102  0.2691
16883SOL    HW152090   4.026   1.256   0.707  1.2261  0.1604  0.3424
16883SOL    HW252091   4.075   1.113   0.706  0.2103 -0.1997 -0.1852
16884SOL     OW52092   4.457   5.105   7.484 -0.1590  0.0178  0.3468
16884SOL    HW152093   4.400   5.040   7.525 -1.3079 -0.2509 -1.5492
16884SOL    HW252094   4.546   5.077   7.507 -0.6736 -1.4437  0.6706
16885SOL     OW52095   6.011   4.389  12.340 -0.1762  0.2942  0.6638
16885SOL    HW152096   6.032   4.351  12.425 -0.0873 -0.0881  0.4733
16885SOL    HW252097   5.983   4.315  12.286  2.2774  0.0443 -0.4392
16886SOL     OW52098   2.785   4.842   5.155 -0.2628  0.0914 -0.1825
16886SOL    HW152099   2.743   4.858   5.239  0.6240  0.9489  0.1118
16886SOL    HW252100   2.755   4.913   5.099 -3.3954 -2.1526 -1.6379
16887SOL     OW52101   3.405   2.458  10.843  0.1569 -0.1435 -0.2097
16887SOL    HW152102   3.318   2.445  10.879  0.3334  0.6929  0.5688
16887SOL    HW252103   3.410   2.398  10.769 -0.8706 -0.6051  0.0779
16888SOL     OW52104   3.734   2.919  10.620  0.5608 -0.1189 -0.6036
16888SOL    HW152105   3.686   2.959  10.548  1.8393  0.1403 -1.3571
16888SOL    HW252106   3.741   2.988  10.686  0.2483 -0.0292 -0.6657
16889SOL     OW52107   3.278   5.708   6.329  0.2382 -0.3503  0.2883
16889SOL    HW152108   3.257   5.796   6.361 -1.4150 -0.3219 -0.7331
16889SOL    HW252109   3.373   5.702   6.335  0.3667  1.4426  0.5404
16890SOL     OW52110   5.245   2.849   4.109  0.3337 -0.0152 -0.1824
16890SOL    HW152111   5.321   2.831   4.054 -0.5079 -0.7356 -1.1466
16890SOL    HW252112   5.247   2.944   4.121 -0.3077  0.4139 -2.7967
16891SOL     OW52113   7.943   7.108   5.881 -0.2501 -0.2235  0.1032
16891SOL    HW152114   7.888   7.142   5.811  0.6613 -0.2656 -0.6576
16891SOL    HW252115   7.962   7.018   5.855 -0.8134 -0.5984  0.9716
16892SOL     OW52116   1.844   5.772   0.613 -0.0334 -0.2485 -0.0034
16892SOL    HW152117   1.898   5.760   0.691  1.0638  0.7296 -0.5907
16892SOL    HW252118   1.763   5.811   0.646  1.0371  1.6658  0.5220
16893SOL     OW52119   2.471   5.683  10.131 -0.1673  0.1345 -0.4132
16893SOL    HW152120   2.458   5.609  10.072 -0.4714 -0.1171 -0.0295
16893SOL    HW252121   2.553   5.723  10.101 -1.4511  1.3972 -2.4906
16894SOL     OW52122   0.829   1.412   5.453 -0.1522  0.5016 -0.1562
16894SOL    HW152123   0.908   1.359   5.436  0.6771  0.8831  2.1351
16894SOL    HW252124   0.842   1.491   5.401  1.1665  0.7039  0.4349
16895SOL     OW52125   2.645   5.373   0.875  0.0858 -0.4983 -0.1398
16895SOL    HW152126   2.607   5.460   0.880  1.8363  0.2502  1.2160
16895SOL    HW252127   2.626   5.333   0.960  0.2426 -1.0215 -0.3428
16896SOL     OW52128   2.431   6.743  10.911 -0.3590  1.1601 -0.4259
16896SOL    HW152129   2.404   6.757  10.820  1.3875  0.8716 -1.0221
16896SOL    HW252130   2.500   6.808  10.926 -1.0409  1.6097  0.9074
16897SOL     OW52131   7.369   1.588   9.686  0.5627  0.2508  0.0093
16897SOL    HW152132   7.328   1.505   9.663  0.5773  0.3088 -0.2297
16897SOL    HW252133   7.453   1.587   9.641  1.0869 -0.1189  0.9607
16898SOL     OW52134   1.803   5.360  10.695 -0.2163 -0.1170 -0.0170
16898SOL    HW152135   1.860   5.300  10.647  0.4750 -0.9659  1.7778
16898SOL    HW252136   1.857   5.437  10.712 -0.6164  0.3941 -0.9799
16899SOL     OW52137   2.753   7.182  12.085  0.4587  0.1644  0.5537
16899SOL    HW152138   2.711   7.099  12.105 -1.1688  1.1898  1.5599
16899SOL    HW252139   2.707   7.214  12.008  0.3127  0.6677  0.8486
16900SOL     OW52140   1.239   2.380   1.210  0.1270 -0.2070 -0.3098
16900SOL    HW152141   1.257   2.457   1.263 -3.3468  0.6547 -0.1655
16900SOL    HW252142   1.210   2.313   1.272 -1.2452 -0.1087 -0.8139
16901SOL     OW52143   1.838   2.113   2.868  0.9802 -0.2098 -0.0314
16901SOL    HW152144   1.908   2.065   2.911  0.9740 -0.9602 -0.8337
16901SOL    HW252145   1.783   2.144   2.940  2.1303  0.4132  0.6112
16902SOL     OW52146   6.602   7.759   7.027  0.4618  0.0438  0.3359
16902SOL    HW152147   6.631   7.668   7.021  1.0328  0.2210  0.2772
16902SOL    HW252148   6.679   7.810   7.002 -0.0896  0.5287 -0.4168
16903SOL     OW52149   7.458   3.831   3.712 -0.2229  0.0225  0.2239
16903SOL    HW152150   7.516   3.879   3.653 -0.1098 -0.6421 -0.2155
16903SOL    HW252151   7.404   3.778   3.654  0.4261 -1.2430  0.7475
16904SOL     OW52152   6.525   0.057   8.313  0.5719  0.2840  0.7006
16904SOL    HW152153   6.490   0.056   8.224 -0.4701 -1.0829  1.0888
16904SOL    HW252154   6.619   0.072   8.302  0.2627  1.6099 -0.5183
16905SOL     OW52155   5.780   0.545   2.210  0.2980 -0.1222 -0.1000
16905SOL    HW152156   5.871   0.564   2.190  0.2563  0.3763  0.1489
16905SOL    HW252157   5.737   0.537   2.125  0.3002  1.0619 -0.2355
16906SOL     OW52158   5.860   3.787   1.345  0.0361  0.9095  0.7948
16906SOL    HW152159   5.823   3.843   1.277 -0.4307 -0.1637  0.1286
16906SOL    HW252160   5.940   3.831   1.372  0.0886  1.4907 -0.2680
16907SOL     OW52161   3.065   5.040   6.622 -0.6191 -0.2524  0.7752
16907SOL    HW152162   3.052   4.990   6.541 -1.8959  1.7975 -0.3899
16907SOL    HW252163   3.085   4.975   6.688  0.7731 -2.0192 -1.2311
16908SOL     OW52164   0.286   3.505   2.173  0.0034  0.2334 -0.1274
16908SOL    HW152165   0.295   3.409   2.176 -0.0844  0.2266 -0.0603
16908SOL    HW252166   0.276   3.525   2.080  0.8223  0.2537 -0.2180
16909SOL     OW52167   2.557   0.383   7.515 -0.0644  0.2875  0.1281
16909SOL    HW152168   2.600   0.429   7.443 -0.2195  2.9662  1.5981
16909SOL    HW252169   2.510   0.311   7.473  0.2231  1.4382 -2.3836
16910SOL     OW52170   4.204   1.959   0.245  0.0997  0.3930  0.2047
16910SOL    HW152171   4.204   1.918   0.158  1.7929  0.4706  0.1315
16910SOL    HW252172   4.187   2.052   0.227  0.8624  0.4837 -0.1193
16911SOL     OW52173   7.741   7.340   2.118  0.1473  0.2971  0.8472
16911SOL    HW152174   7.801   7.394   2.066  0.5737  0.5224  1.5435
16911SOL    HW252175   7.721   7.265   2.062  2.5667 -0.7650  1.2415
16912SOL     OW52176   2.231   2.437   3.066  0.5827 -0.0658 -0.6138
16912SOL    HW152177   2.273   2.515   3.029 -1.6312  1.1887 -0.6279
16912SOL    HW252178   2.157   2.420   3.009 -0.9719 -0.0799  1.2992
16913SOL     OW52179   3.155   3.334   5.935 -0.1046 -0.5363  0.1608
16913SOL    HW152180   3.162   3.429   5.932  1.8823 -0.4344  3.3594
16913SOL    HW252181   3.097   3.315   6.008 -2.8553 -1.9133 -2.1734
16914SOL     OW52182   1.976   1.894  10.593  0.4997 -0.0870 -0.2175
16914SOL    HW152183   1.957   1.963  10.530 -1.2049  0.3843  0.7552
16914SOL    HW252184   1.984   1.940  10.677 -0.8990 -1.0629  0.4842
16915SOL     OW52185   4.662   2.382  10.215 -0.8627  0.2087  0.0898
16915SOL    HW152186   4.756   2.385  10.203 -0.7736  0.6517  0.8135
16915SOL    HW252187   4.648   2.326  10.292 -1.4015 -2.4380 -1.8101
16916SOL     OW52188   1.693   3.025  10.545 -0.1008 -0.2525  0.0360
16916SOL    HW152189   1.693   3.048  10.452  1.5859  0.8332  0.2598
16916SOL    HW252190   1.635   3.089  10.586  1.0839  0.8604  0.0362
16917SOL     OW52191   2.831   2.823  10.020 -0.6861  0.2171  0.4533
16917SOL    HW152192   2.780   2.783   9.949 -0.9240  2.8116 -0.9564
16917SOL    HW252193   2.882   2.750  10.057 -0.7324 -1.3074 -2.2161
16918SOL     OW52194   3.825   1.161   8.649 -0.0737 -0.1232 -0.0873
16918SOL    HW152195   3.904   1.142   8.598  0.5081 -0.2641  0.8429
16918SOL    HW252196   3.787   1.237   8.606 -0.3327 -1.0222 -1.5354
16919SOL     OW52197   1.422   0.399   8.499 -0.6334 -0.3946 -0.3236
16919SOL    HW152198   1.445   0.307   8.508 -0.9406 -0.3083  1.6658
16919SOL    HW252199   1.330   0.398   8.471 -1.0864 -0.7193  1.0985
16920SOL     OW52200   3.144   7.772   4.406 -0.1293  0.5375 -0.1511
16920SOL    HW152201   3.127   7.806   4.494  0.1844 -0.9075  0.4916
16920SOL    HW252202   3.059   7.773   4.363 -0.6102 -0.3114  0.7452
16921SOL     OW52203   5.245   3.403   2.784 -0.1206 -0.2894  0.1332
16921SOL    HW152204   5.231   3.426   2.876  0.0056 -0.7118  0.2572
16921SOL    HW252205   5.300   3.326   2.786  1.7279  0.9537 -0.3295
16922SOL     OW52206   0.918   7.241   6.578 -0.0694 -0.0067 -1.0509
16922SOL    HW152207   0.965   7.284   6.506 -0.1965 -0.2397 -1.2770
16922SOL    HW252208   0.903   7.152   6.546  0.1391 -0.2018 -0.6093
16923SOL     OW52209   6.468   0.978   2.666  0.1593  0.2795 -0.0176
16923SOL    HW152210   6.408   0.951   2.736 -0.8504 -1.8580 -1.5670
16923SOL    HW252211   6.555   0.958   2.700 -0.1969  0.6861  1.1698
16924SOL     OW52212   0.158   5.357   0.364 -0.6921 -0.1062  0.5180
16924SOL    HW152213   0.200   5.443   0.370  1.5896 -0.9602 -1.5684
16924SOL    HW252214   0.120   5.343   0.451 -0.6120  2.7240  1.0970
16925SOL     OW52215   5.637   7.100   2.479  0.1007 -0.0962  0.6566
16925SOL    HW152216   5.589   7.081   2.398  0.3641  2.4022 -0.1707
16925SOL    HW252217   5.714   7.042   2.476  0.3488  0.2744 -1.1248
16926SOL     OW52218   0.283   3.243   8.992  0.4314 -0.7103 -0.0541
16926SOL    HW152219   0.337   3.268   9.067  0.4929 -0.5323 -0.1571
16926SOL    HW252220   0.229   3.171   9.024 -0.7946  0.5137  0.6753
16927SOL     OW52221   4.442   5.390   4.249 -0.2323 -0.1704  0.6418
16927SOL    HW152222   4.384   5.465   4.230  1.4557  1.0310  0.0051
16927SOL    HW252223   4.526   5.430   4.272  0.2388 -1.8554  2.0632
16928SOL     OW52224   1.287   1.623   8.768  0.2317 -0.2904  0.4886
16928SOL    HW152225   1.364   1.566   8.768  0.2022 -0.3431 -0.8277
16928SOL    HW252226   1.292   1.672   8.686 -0.6467  0.3845  0.8162
16929SOL     OW52227   7.054   7.169   7.275  0.1518  0.4823  0.5358
16929SOL    HW152228   7.127   7.168   7.213  0.4256  2.3710  0.7749
16929SOL    HW252229   6.983   7.125   7.229  0.6041  1.0972 -0.7870
16930SOL     OW52230   7.538   7.432   2.843 -0.1318  0.1337  0.1331
16930SOL    HW152231   7.526   7.366   2.774  1.3184 -0.2712  0.2323
16930SOL    HW252232   7.461   7.422   2.899  0.1305 -1.6199  0.2494
16931SOL     OW52233   5.539   2.549   8.892  0.6677  0.3449 -0.2035
16931SOL    HW152234   5.459   2.599   8.905  0.8529  0.3748  0.9226
16931SOL    HW252235   5.549   2.543   8.797 -0.3277  0.8752 -0.3504
16932SOL     OW52236   4.169   1.769   9.099 -0.5079 -0.1026 -0.2457
16932SOL    HW152237   4.195   1.854   9.133 -0.0435 -0.4462  0.2632
16932SOL    HW252238   4.097   1.741   9.155  0.6568 -0.9465  0.8860
16933SOL     OW52239   7.817   6.209  11.052  0.1092  0.1016 -0.0918
16933SOL    HW152240   7.895   6.243  11.009 -0.5785 -1.0941 -2.4892
16933SOL    HW252241   7.841   6.121  11.082 -0.3687 -0.4484 -1.2314
16934SOL     OW52242   7.282   1.489   3.435 -0.0592  0.3184 -0.9270
16934SOL    HW152243   7.328   1.421   3.485  0.9673  1.4302 -0.3251
16934SOL    HW252244   7.254   1.444   3.355 -0.7047 -1.1937  0.0993
16935SOL     OW52245   3.436   0.014  10.218 -0.1050 -0.3338 -0.0193
16935SOL    HW152246   3.515   0.065  10.201 -0.3429 -0.1288 -0.5268
16935SOL    HW252247   3.402   0.049  10.301  1.5350 -1.9348  1.4177
16936SOL     OW52248   4.378   3.244   8.325 -0.0222 -0.0994  0.0679
16936SOL    HW152249   4.288   3.212   8.335  0.3239 -0.9680  0.5301
16936SOL    HW252250   4.427   3.197   8.392  0.9793 -0.4624 -0.8887
16937SOL     OW52251   6.873   1.200   8.777  0.2297  0.0526  0.0112
16937SOL    HW152252   6.942   1.188   8.842 -0.9934  0.0359  1.3512
16937SOL    HW252253   6.840   1.288   8.792 -0.0490  0.0605 -0.6048
16938SOL     OW52254   6.856   7.708   8.101 -0.2604  0.0927 -0.2307
16938SOL    HW152255   6.867   7.804   8.104 -1.8389  0.4196 -2.3337
16938SOL    HW252256   6.763   7.694   8.118  0.1309 -1.1832  0.9930
16939SOL     OW52257   4.303   6.227  11.388  0.6427  0.0113  0.0468
16939SOL    HW152258   4.307   6.263  11.299  0.7041 -0.2688 -0.0659
16939SOL    HW252259   4.230   6.272  11.429 -0.0232 -0.5813 -0.4750
16940SOL     OW52260   2.007   2.880   8.893  0.4721  0.4307 -0.2427
16940SOL    HW152261   1.936   2.923   8.846 -0.2405  0.3736  0.7476
16940SOL    HW252262   2.066   2.849   8.825  0.1431  1.5051 -1.0333
16941SOL     OW52263   4.013   7.683   6.995 -0.1107 -0.0987  0.1396
16941SOL    HW152264   4.042   7.707   6.907  1.2658 -2.5051 -0.1358
16941SOL    HW252265   4.094   7.669   7.044 -0.8259 -1.8765  0.8664
16942SOL     OW52266   2.284   3.174   2.855  0.3574 -0.0108  0.0215
16942SOL    HW152267   2.311   3.247   2.800 -0.4212  0.8797  0.7766
16942SOL    HW252268   2.356   3.111   2.849  0.3211  0.0882 -1.9157
16943SOL     OW52269   3.739   1.306   8.128  0.1837  0.2831  0.2008
16943SOL    HW152270   3.653   1.336   8.158  0.4759  0.0108  1.3787
16943SOL    HW252271   3.720   1.247   8.055 -0.4663  2.2732 -1.3408
16944SOL     OW52272   1.358   7.710  11.251 -0.0434  0.0392  0.5941
16944SOL    HW152273   1.309   7.792  11.265  0.1241 -0.0336  1.6643
16944SOL    HW252274   1.427   7.711  11.318  0.2153 -0.7846  0.3528
16945SOL     OW52275   4.887   2.674   7.605 -0.6586  0.4249  0.1632
16945SOL    HW152276   4.818   2.692   7.541  0.1690 -0.4470 -1.0180
16945SOL    HW252277   4.842   2.626   7.675 -1.1645 -0.6956 -0.8848
16946SOL     OW52278   1.993   2.563   6.777 -0.3461 -0.1186  0.2929
16946SOL    HW152279   1.921   2.617   6.745  0.5958  0.1828 -1.4344
16946SOL    HW252280   2.013   2.504   6.704  1.7021  0.3820  0.3864
16947SOL     OW52281   2.458   5.518   2.567  0.3010 -0.4139 -0.0158
16947SOL    HW152282   2.488   5.454   2.632  1.1886  0.1441  0.1382
16947SOL    HW252283   2.396   5.470   2.513 -0.9551 -0.7258  1.6281
16948SOL     OW52284   1.038   0.900   9.248  0.5482  0.4099  0.0514
16948SOL    HW152285   1.090   0.962   9.300  0.7678  1.3257 -1.2153
16948SOL    HW252286   1.059   0.814   9.285 -0.3216  1.0834  2.3520
16949SOL     OW52287   5.721   2.999   0.899 -0.2525  0.3655 -0.4555
16949SOL    HW152288   5.694   2.909   0.921 -1.0724  0.1833 -2.0441
16949SOL    HW252289   5.816   2.993   0.891 -0.2236 -0.1900  0.1216
16950SOL     OW52290   6.087   2.684   0.880 -0.2675  0.3409  0.2536
16950SOL    HW152291   6.012   2.640   0.920 -0.1889  0.1252  0.1646
16950SOL    HW252292   6.160   2.666   0.940  0.3647 -1.8462 -1.0545
16951SOL     OW52293   4.979   5.075   5.027 -0.1650 -0.4103 -0.3331
16951SOL    HW152294   4.968   5.033   5.113 -0.8443  0.7015  0.1523
16951SOL    HW252295   4.946   5.164   5.040 -0.9462 -0.4294 -1.9426
16952SOL     OW52296   4.265   5.579  10.083  0.1474 -0.6833  0.0153
16952SOL    HW152297   4.332   5.512  10.096  0.8925  0.2841  1.2660
16952SOL    HW252298   4.184   5.539  10.116  0.1712 -1.6747 -1.0643
16953SOL     OW52299   1.513   1.862   3.293  0.5575  0.2611  0.3600
16953SOL    HW152300   1.451   1.820   3.234  0.6302  0.3653  0.2104
16953SOL    HW252301   1.497   1.956   3.283 -0.6341  0.2555  1.7851
16954SOL     OW52302   5.567   7.888   9.131  0.1185  0.8074  0.4597
16954SOL    HW152303   5.547   7.904   9.223 -0.9881 -0.2166  0.4301
16954SOL    HW252304   5.644   7.941   9.113 -0.1338  1.6596  1.7584
16955SOL     OW52305   7.980   4.050   2.992 -0.3495  1.0483 -0.3208
16955SOL    HW152306   7.940   4.037   2.906  0.3634 -0.6378 -0.4485
16955SOL    HW252307   7.983   3.962   3.030  1.8092  1.3368  0.2988
16956SOL     OW52308   1.565   3.593   0.932  0.3771 -0.3764  0.3963
16956SOL    HW152309   1.544   3.528   0.999 -0.7721 -0.0087  0.4073
16956SOL    HW252310   1.503   3.664   0.948  0.4516 -0.0520 -0.7239
16957SOL     OW52311   0.488   6.771   0.411  0.6437  0.4315  0.0932
16957SOL    HW152312   0.460   6.756   0.320 -1.2244  1.1632  0.4920
16957SOL    HW252313   0.582   6.758   0.409  0.3486 -2.5081 -1.3641
16958SOL     OW52314   6.301   0.615   0.517  0.4482  0.3103  0.0188
16958SOL    HW152315   6.236   0.582   0.579  2.1081 -0.0014  1.6734
16958SOL    HW252316   6.254   0.683   0.468 -1.7730 -1.4806 -0.4821
16959SOL     OW52317   3.271   3.513  12.211  0.5727  0.0443 -0.1479
16959SOL    HW152318   3.228   3.428  12.207 -0.1270  0.3985 -3.8335
16959SOL    HW252319   3.341   3.508  12.146  1.1175  2.0021  0.2012
16960SOL     OW52320   2.777   5.478   9.061  0.7784 -0.0649  0.3096
16960SOL    HW152321   2.704   5.415   9.061  0.8322 -0.1288  0.1267
16960SOL    HW252322   2.852   5.427   9.092  0.8668 -0.1456 -0.0324
16961SOL     OW52323   3.302   0.944  11.653 -0.2823 -0.5532 -0.0543
16961SOL    HW152324   3.319   0.871  11.713  1.9640  0.0911  0.1864
16961SOL    HW252325   3.330   0.912  11.567 -0.6948 -0.4726 -0.2200
16962SOL     OW52326   3.049   0.935  10.829  0.2155 -0.2664  0.0168
16962SOL    HW152327   3.036   0.911  10.737  0.0095  1.0405 -0.3123
16962SOL    HW252328   2.961   0.954  10.861  0.2397 -1.1245  0.6098
16963SOL     OW52329   2.562   5.122   8.416 -0.4810 -0.3499  0.6441
16963SOL    HW152330   2.533   5.080   8.335 -0.8908 -1.2806  1.2573
16963SOL    HW252331   2.646   5.162   8.393 -0.8728 -0.0837 -0.3969
16964SOL     OW52332   2.218   5.054   4.889 -0.0236  0.2913 -0.0714
16964SOL    HW152333   2.206   5.021   4.800  0.9078 -0.8386  0.1940
16964SOL    HW252334   2.133   5.092   4.913 -0.3775  0.3123 -1.3112
16965SOL     OW52335   2.860   3.412   5.350 -0.3467 -0.4095 -0.0366
16965SOL    HW152336   2.813   3.444   5.273 -0.1061 -1.0047 -0.4352
16965SOL    HW252337   2.802   3.347   5.388 -0.5581  0.0341  0.4149
16966SOL     OW52338   1.616   4.673  10.760 -0.1604 -0.0150 -0.2887
16966SOL    HW152339   1.698   4.719  10.742 -0.0167  0.7662  1.9415
16966SOL    HW252340   1.640   4.581  10.766  0.8796  0.3128  1.5306
16967SOL     OW52341   1.821   0.738  10.408 -0.4136  0.5129  0.2524
16967SOL    HW152342   1.852   0.791  10.335  1.1516 -1.4088 -0.5681
16967SOL    HW252343   1.900   0.718  10.459 -0.9015 -1.1280  0.4258
16968SOL     OW52344   3.502   4.934   9.715 -0.2177 -0.6868  0.2672
16968SOL    HW152345   3.547   5.015   9.738  0.6370 -0.5054 -1.8109
16968SOL    HW252346   3.415   4.962   9.686 -0.0685 -0.5446 -0.0481
16969SOL     OW52347   6.439   6.622   8.029 -0.3427 -0.3108  0.4795
16969SOL    HW152348   6.443   6.526   8.032  0.8612 -0.3021 -0.3504
16969SOL    HW252349   6.383   6.642   7.954 -0.5792 -0.3619  0.6418
16970SOL     OW52350   7.020   3.701   7.920 -0.0033 -0.6090  0.5182
16970SOL    HW152351   7.097   3.721   7.973  0.0623  2.4784 -0.5649
16970SOL    HW252352   6.956   3.768   7.944 -0.0316  0.8623 -3.0728
16971SOL     OW52353   5.152   4.854   5.650 -0.2322  0.0397 -0.0385
16971SOL    HW152354   5.201   4.833   5.570  1.0773 -0.6242  0.9022
16971SOL    HW252355   5.215   4.839   5.721 -1.2444  0.9945  1.0989
16972SOL     OW52356   2.264   2.048   2.453  0.1857 -0.1965  0.0286
16972SOL    HW152357   2.261   2.134   2.495 -0.0317 -0.2156  0.0527
16972SOL    HW252358   2.177   2.037   2.413  0.1857 -0.4370  0.0908
16973SOL     OW52359   7.621   7.489   3.645  0.2064 -0.1143 -0.0854
16973SOL    HW152360   7.557   7.557   3.625  0.7681 -0.2625 -2.8341
16973SOL    HW252361   7.677   7.487   3.567  0.0229 -3.9061 -0.2637
16974SOL     OW52362   7.198   3.111   8.668  0.1787 -0.0171 -0.5879
16974SOL    HW152363   7.161   3.060   8.595 -2.2525  0.9665 -0.1031
16974SOL    HW252364   7.134   3.104   8.738  2.1410 -0.3415  1.2787
16975SOL     OW52365   3.792   7.079  11.218 -0.4737  0.1550  0.0000
16975SOL    HW152366   3.783   7.174  11.216  1.9176  0.4462 -0.7408
16975SOL    HW252367   3.855   7.059  11.148  0.3440 -1.7660  1.1804
16976SOL     OW52368   7.525   0.145   5.641 -0.3159 -0.5292 -0.7458
16976SOL    HW152369   7.587   0.213   5.667 -1.8540  0.4471  0.5623
16976SOL    HW252370   7.568   0.062   5.665  0.6093  0.0927 -0.2108
16977SOL     OW52371   2.432   4.688   8.088  0.3204  0.4101 -0.3290
16977SOL    HW152372   2.355   4.711   8.035  0.2949  0.7702 -0.1359
16977SOL    HW252373   2.402   4.617   8.145  0.7240 -0.9879 -1.7704
16978SOL     OW52374   0.688   3.326   7.733 -0.2618 -0.6793 -0.5787
16978SOL    HW152375   0.731   3.367   7.658 -0.3022 -0.3735 -0.4377
16978SOL    HW252376   0.749   3.257   7.760  0.1555 -0.2371 -0.3692
16979SOL     OW52377   5.930   1.207   7.858  0.2301 -0.1633  0.7636
16979SOL    HW152378   6.005   1.154   7.886 -0.1068 -0.2199  1.6010
16979SOL    HW252379   5.921   1.274   7.926 -0.6471 -0.3342  0.8363
16980SOL     OW52380   2.487   6.065   9.556  0.1639  0.3756 -0.2944
16980SOL    HW152381   2.526   6.152   9.550  0.2255  0.3123 -0.9095
16980SOL    HW252382   2.502   6.038   9.646 -0.4302  1.2700  0.0908
16981SOL     OW52383   6.264   6.004   2.614  0.2689 -0.4645  0.3495
16981SOL    HW152384   6.291   6.061   2.686  0.5589  0.5257 -0.5239
16981SOL    HW252385   6.203   6.056   2.563  0.2905 -1.0478 -0.2852
16982SOL     OW52386   5.290   7.190   8.412 -0.3303 -0.0428 -0.1090
16982SOL    HW152387   5.321   7.202   8.502 -0.7826  0.3081  0.0073
16982SOL    HW252388   5.218   7.254   8.403  0.6996  1.0165 -1.2058
16983SOL     OW52389   1.652   0.490   8.126 -0.4890  0.3632 -0.0167
16983SOL    HW152390   1.605   0.539   8.194 -0.7630  1.3559 -0.9040
16983SOL    HW252391   1.608   0.513   8.044  1.4633  1.2530 -0.8745
16984SOL     OW52392   5.674   2.809   1.743  0.3973 -0.3680  0.5573
16984SOL    HW152393   5.634   2.725   1.768 -0.6837 -0.3740 -1.0126
16984SOL    HW252394   5.728   2.788   1.668 -0.8877  0.5035 -0.6662
16985SOL     OW52395   1.502   6.488   9.953 -0.0397  0.7845 -0.2677
16985SOL    HW152396   1.579   6.543   9.940 -0.6412  1.8300  0.3926
16985SOL    HW252397   1.538   6.402   9.975  0.9822  1.5820  1.4260
16986SOL     OW52398   7.167   5.278   7.762  0.5482 -0.7322  0.3170
16986SOL    HW152399   7.082   5.239   7.781  0.3167 -0.8468 -0.9009
16986SOL    HW252400   7.198   5.231   7.685  0.3304  1.3792 -1.1371
16987SOL     OW52401   5.651   4.349   4.514 -0.7220  0.6195  0.3145
16987SOL    HW152402   5.615   4.431   4.548 -0.2194  0.7444  0.5450
16987SOL    HW252403   5.631   4.285   4.582  0.6785  0.9565  1.0818
16988SOL     OW52404   6.011   6.926   3.427  0.3623  0.1590 -0.3841
16988SOL    HW152405   5.949   6.992   3.397  1.1584  1.0510 -0.1094
16988SOL    HW252406   6.042   6.959   3.512  1.4356 -0.1041 -0.6617
16989SOL     OW52407   6.715   7.906   1.857 -0.0172 -0.3217 -0.2755
16989SOL    HW152408   6.781   7.945   1.800  2.3137 -1.8341  1.2119
16989SOL    HW252409   6.685   7.828   1.809 -0.0372 -0.1557 -0.5374
16990SOL     OW52410   2.561   7.487   7.967 -0.2805 -0.6955  0.0317
16990SOL    HW152411   2.488   7.472   7.907  1.0784 -0.8863 -1.6549
16990SOL    HW252412   2.583   7.579   7.955  0.1158 -0.7791  0.1131
16991SOL     OW52413   3.448   5.793   0.606  0.2015 -0.2790  0.2828
16991SOL    HW152414   3.442   5.854   0.533  0.1638 -1.1961 -0.4997
16991SOL    HW252415   3.514   5.729   0.579  2.5312  1.0498  2.3273
16992SOL     OW52416   0.879   1.746   7.996  0.0020 -0.6308  0.2204
16992SOL    HW152417   0.938   1.719   7.926  0.3191 -1.2738  0.7192
16992SOL    HW252418   0.907   1.834   8.019  1.3204 -1.2189  1.0011
16993SOL     OW52419   2.722   4.600  12.301  0.6450 -0.4453  0.3092
16993SOL    HW152420   2.657   4.649  12.351 -0.2134  0.3984 -1.5351
16993SOL    HW252421   2.739   4.654  12.224  0.9516 -2.2490 -0.9629
16994SOL     OW52422   2.694   1.161   7.597  0.4020  0.3275 -0.1713
16994SOL    HW152423   2.730   1.122   7.517 -0.2873  1.7470 -1.2177
16994SOL    HW252424   2.770   1.176   7.653  0.6456 -3.1646  0.6631
16995SOL     OW52425   4.597   1.418   0.590  0.6906 -0.1381  0.1794
16995SOL    HW152426   4.538   1.367   0.535  1.5191  0.2126 -1.0800
16995SOL    HW252427   4.605   1.367   0.671 -1.2336 -0.2230  0.3417
16996SOL     OW52428   5.905   6.061   5.789 -0.2479 -0.1676  0.2250
16996SOL    HW152429   5.886   6.137   5.735  1.2933  1.3881  1.7500
16996SOL    HW252430   5.860   6.079   5.872  0.1030 -0.9390  0.5978
16997SOL     OW52431   5.347   3.974   8.965 -0.1231  1.3237 -0.4454
16997SOL    HW152432   5.388   3.888   8.976  2.1609  2.1821 -1.5104
16997SOL    HW252433   5.288   3.964   8.891 -0.9017  0.3764  0.2729
16998SOL     OW52434   1.762   0.866   4.471  0.1670  0.5158  0.2516
16998SOL    HW152435   1.731   0.848   4.560 -1.2375  2.6215  0.2733
16998SOL    HW252436   1.688   0.845   4.415  1.0361 -0.7607 -0.4613
16999SOL     OW52437   2.419   6.642  11.375 -0.5131 -0.0197 -0.4756
16999SOL    HW152438   2.481   6.611  11.309 -1.9018 -0.9002 -1.4250
16999SOL    HW252439   2.333   6.615  11.342 -1.3029 -0.0171  1.4363
17000SOL     OW52440   0.490   3.023   6.818 -0.3348  0.0924  0.0621
17000SOL    HW152441   0.402   3.053   6.840  0.0022 -0.0948  1.8263
17000SOL    HW252442   0.502   2.945   6.871  0.5585 -0.4288 -0.8836
17001SOL     OW52443   5.688   7.420   2.744 -0.3993 -0.2913 -0.2493
17001SOL    HW152444   5.651   7.375   2.820  1.6547 -1.6603  0.0239
17001SOL    HW252445   5.615   7.468   2.706 -1.8192 -0.8113  1.6979
17002SOL     OW52446   1.026   7.827  11.939 -0.0676 -0.4126  0.2619
17002SOL    HW152447   1.122   7.827  11.944  0.0348 -1.6922 -1.0052
17002SOL    HW252448   1.002   7.734  11.936 -1.3956 -0.1274  1.0170
17003SOL     OW52449   0.537   1.188  11.364 -0.0999  0.3897 -0.3749
17003SOL    HW152450   0.526   1.122  11.295 -1.8031  0.0865  0.1231
17003SOL    HW252451   0.539   1.137  11.445  1.3522  0.7816 -0.1358
17004SOL     OW52452   5.029   7.892   3.310  0.3226  0.6274 -0.2838
17004SOL    HW152453   4.980   7.952   3.255 -0.0879  2.2549  1.7111
17004SOL    HW252454   4.998   7.805   3.286 -1.2349  1.4112 -1.2353
17005SOL     OW52455   4.703   1.926   0.105 -0.5961  0.6375 -0.2576
17005SOL    HW152456   4.692   2.016   0.073  0.5277  0.2747 -1.7809
17005SOL    HW252457   4.784   1.929   0.156 -0.8871  0.6108  0.2095
17006SOL     OW52458   0.529   3.212   2.058 -0.2494 -0.3626 -0.2823
17006SOL    HW152459   0.557   3.261   1.981  0.1166  0.4820  0.3700
17006SOL    HW252460   0.473   3.143   2.023  1.1807 -0.9982 -1.4550
17007SOL     OW52461   5.253   2.343   0.706 -0.1009  0.5855 -0.3843
17007SOL    HW152462   5.304   2.317   0.630 -0.3478  1.3812 -0.8299
17007SOL    HW252463   5.176   2.287   0.704 -0.4897  1.1402 -1.1721
17008SOL     OW52464   5.417   0.088   4.899 -0.2612  0.6750  0.1447
17008SOL    HW152465   5.473   0.113   4.825 -1.7141  0.7718 -0.9745
17008SOL    HW252466   5.372   0.009   4.869 -0.6500  0.5457  1.0496
17009SOL     OW52467   1.659   5.093   9.220 -0.3609 -0.3720 -0.4408
17009SOL    HW152468   1.591   5.102   9.153 -1.0269 -1.9203 -0.0214
17009SOL    HW252469   1.627   5.023   9.277  0.7998  0.0396  0.7588
17010SOL     OW52470   5.724   1.892   4.906 -0.2768  0.1829 -0.0755
17010SOL    HW152471   5.810   1.932   4.920 -0.0234 -0.1870 -0.5203
17010SOL    HW252472   5.688   1.883   4.994 -0.7369  2.1947 -0.0138
17011SOL     OW52473   6.158   3.310  11.720  0.1168 -0.0666 -1.0076
17011SOL    HW152474   6.187   3.219  11.729  0.7747  0.2312  0.1647
17011SOL    HW252475   6.101   3.323  11.796 -0.6473  0.2539 -1.6377
17012SOL     OW52476   4.015   7.384   9.507 -0.0278 -0.2059  0.6826
17012SOL    HW152477   4.009   7.438   9.585 -1.4848  0.2585  0.2721
17012SOL    HW252478   4.027   7.295   9.540 -0.4783  0.0046  1.4249
17013SOL     OW52479   0.233   6.323   4.640  0.0986  0.2438 -0.5448
17013SOL    HW152480   0.262   6.263   4.709  1.7870  0.6949 -0.8046
17013SOL    HW252481   0.197   6.266   4.572  0.0426 -0.3347 -0.0419
17014SOL     OW52482   4.443   6.461   9.909  0.2914 -0.9166  0.5904
17014SOL    HW152483   4.404   6.389   9.958 -1.0903  0.0700  1.0079
17014SOL    HW252484   4.374   6.488   9.848  0.7972  0.0152  0.4177
17015SOL     OW52485   5.163   1.274   4.903  0.8227  0.5557 -0.0982
17015SOL    HW152486   5.156   1.204   4.967  3.7824  2.2102  2.2998
17015SOL    HW252487   5.183   1.230   4.820  0.5139 -1.4744  0.8492
17016SOL     OW52488   4.749   4.704   2.799 -0.0454  0.1136 -0.2107
17016SOL    HW152489   4.680   4.724   2.862 -0.2829  0.1998 -0.5003
17016SOL    HW252490   4.830   4.713   2.849 -0.2723 -0.7259  0.3342
17017SOL     OW52491   1.482   3.644   9.599  0.0107  0.0832 -0.4913
17017SOL    HW152492   1.427   3.566   9.593  1.4867 -1.0200 -0.3691
17017SOL    HW252493   1.467   3.690   9.516  0.0936 -1.0314 -1.1539
17018SOL     OW52494   0.972   1.438  10.344  0.7152 -0.5338 -0.1204
17018SOL    HW152495   1.033   1.510  10.359 -1.0423  1.0575 -0.2606
17018SOL    HW252496   1.023   1.359  10.362  2.5269  0.7520  0.6651
17019SOL     OW52497   2.610   6.869   4.334  0.4679 -0.3473 -0.2132
17019SOL    HW152498   2.646   6.920   4.407  0.4022 -0.7666  0.1163
17019SOL    HW252499   2.544   6.926   4.295 -0.0198 -0.3990  0.5180
17020SOL     OW52500   5.348   1.058  12.292 -0.1104  0.6015  0.3425
17020SOL    HW152501   5.411   0.994  12.259 -0.0704  0.9258 -0.2186
17020SOL    HW252502   5.262   1.021  12.270 -0.0696  1.3778 -1.2317
17021SOL     OW52503   1.661   1.327   8.265  0.2425 -0.1921  0.1613
17021SOL    HW152504   1.606   1.251   8.282 -0.3106  0.5317  1.7879
17021SOL    HW252505   1.749   1.291   8.257 -0.2225 -1.1684 -0.7388
17022SOL     OW52506   4.672   3.741  10.175  0.5871  0.3443 -0.1015
17022SOL    HW152507   4.747   3.769  10.123  1.0631  2.0097  1.3554
17022SOL    HW252508   4.597   3.780  10.131  0.6184 -0.7598 -1.1806
17023SOL     OW52509   2.614   7.751   0.171  0.3830  0.0700  0.4565
17023SOL    HW152510   2.546   7.817   0.182 -0.9457 -1.2378  0.4356
17023SOL    HW252511   2.630   7.748   0.077 -0.9202 -0.9048  0.2361
17024SOL     OW52512   1.914   7.334  10.082 -0.4245 -0.7088  0.7677
17024SOL    HW152513   2.000   7.292  10.087  0.2107  0.4109 -0.0191
17024SOL    HW252514   1.853   7.263  10.061  0.3404 -1.4888  1.1330
17025SOL     OW52515   0.360   7.550   9.904 -0.1475  0.5866 -0.4063
17025SOL    HW152516   0.325   7.611   9.839 -0.0566  1.8380  0.6793
17025SOL    HW252517   0.312   7.569   9.984  0.5871 -0.0728  0.2101
17026SOL     OW52518   4.549   2.128  10.762 -0.9650 -0.0260  0.7372
17026SOL    HW152519   4.632   2.176  10.765 -0.9340 -0.0916  0.9105
17026SOL    HW252520   4.540   2.090  10.849 -1.4535  0.4497  0.9023
17027SOL     OW52521   6.455   4.173   1.641 -0.2620 -0.5335 -0.4412
17027SOL    HW152522   6.543   4.144   1.617  0.4643  1.2649 -0.0784
17027SOL    HW252523   6.427   4.227   1.567 -0.4191  0.1843  0.1344
17028SOL     OW52524   6.899   2.785   7.305  0.6437 -0.4169  0.7022
17028SOL    HW152525   6.877   2.877   7.323 -0.8049 -0.7985  0.9699
17028SOL    HW252526   6.911   2.782   7.210  1.2665  0.1533  0.7544
17029SOL     OW52527   6.012   3.010   8.367  0.4129  0.2279 -0.2077
17029SOL    HW152528   6.021   3.104   8.353 -1.1792  0.3208 -0.8271
17029SOL    HW252529   6.040   2.996   8.457 -0.3932  1.4809  0.2570
17030SOL     OW52530   3.792   1.133  11.982 -0.5683 -0.4261  0.8791
17030SOL    HW152531   3.722   1.099  12.038 -1.2298 -0.7145 -0.1122
17030SOL    HW252532   3.788   1.078  11.904 -1.1123  1.4043 -0.4200
17031SOL     OW52533   2.680   0.843   7.200 -0.4584  0.1178 -0.1082
17031SOL    HW152534   2.696   0.937   7.186 -1.1708  0.5467  1.6729
17031SOL    HW252535   2.590   0.830   7.172 -0.5418  0.0969  0.1651
17032SOL     OW52536   7.366   4.561   8.761  0.5258  0.3219  0.0809
17032SOL    HW152537   7.334   4.624   8.696 -1.7953  1.0166  1.7618
17032SOL    HW252538   7.365   4.477   8.716 -0.8757  0.8041 -0.8584
17033SOL     OW52539   5.938   7.971   2.141 -0.3172 -0.1825  0.6132
17033SOL    HW152540   5.954   8.033   2.212 -1.2865 -2.0651  2.5682
17033SOL    HW252541   5.996   7.898   2.160 -0.5547 -0.7045 -0.6019
17034SOL     OW52542   4.317   4.020   9.638 -0.0977 -0.1101 -0.0552
17034SOL    HW152543   4.402   4.063   9.647  0.1370 -0.6503  0.4247
17034SOL    HW252544   4.317   3.986   9.548 -0.1997  0.6932 -0.3672
17035SOL     OW52545   3.144   0.375  10.929 -0.2298  0.0919 -0.7017
17035SOL    HW152546   3.194   0.352  10.851 -0.0621  2.0653 -1.2277
17035SOL    HW252547   3.178   0.461  10.955 -1.2168  0.0751  0.7473
17036SOL     OW52548   3.599   6.231   3.762 -0.0042 -0.1382  0.0752
17036SOL    HW152549   3.504   6.238   3.752  0.1894  0.5559 -1.6544
17036SOL    HW252550   3.615   6.241   3.855 -1.4572  2.0195  0.1531
17037SOL     OW52551   2.085   6.348   7.578 -0.0025 -0.1503 -0.2289
17037SOL    HW152552   2.098   6.388   7.492 -0.3827  0.7762  0.1377
17037SOL    HW252553   2.024   6.406   7.623 -0.6163 -1.1755  0.2968
17038SOL     OW52554   1.654   6.539   9.003 -0.1312  0.0797 -0.0782
17038SOL    HW152555   1.683   6.599   9.072  0.6218 -0.0300 -0.2931
17038SOL    HW252556   1.590   6.588   8.953 -1.3315 -0.1130  1.2029
17039SOL     OW52557   0.356   0.312   3.516 -0.0153  0.2621 -0.4135
17039SOL    HW152558   0.300   0.347   3.447 -0.0804 -0.9642 -1.0186
17039SOL    HW252559   0.400   0.237   3.475 -0.3414 -0.7395  0.9851
17040SOL     OW52560   4.637   7.895  11.340 -0.0774  0.0953  0.5445
17040SOL    HW152561   4.601   7.970  11.293  0.5776  0.2242  0.2404
17040SOL    HW252562   4.717   7.874  11.293  0.5575  0.1854  1.5643
17041SOL     OW52563   1.322   6.103   5.630 -0.3169  0.1812  0.7326
17041SOL    HW152564   1.243   6.055   5.608  0.6509 -2.1790  2.0496
17041SOL    HW252565   1.326   6.101   5.726  0.7662  1.2157  0.7286
17042SOL     OW52566   3.159   1.139   6.441 -0.5240 -0.1434  0.2598
17042SOL    HW152567   3.084   1.163   6.387 -0.4625 -0.4083  0.0583
17042SOL    HW252568   3.235   1.166   6.389 -0.4352 -1.2486 -0.2031
17043SOL     OW52569   2.885   6.904   8.272  0.3438  0.1577 -0.5870
17043SOL    HW152570   2.854   6.823   8.313  1.2035  0.3018  0.3820
17043SOL    HW252571   2.814   6.930   8.214 -1.3544  0.4520  1.5023
17044SOL     OW52572   1.091   3.267   0.889 -0.3599 -0.5084 -0.3200
17044SOL    HW152573   1.062   3.176   0.895  1.3651 -1.1274 -0.7467
17044SOL    HW252574   1.124   3.288   0.977 -3.1081  0.6205  0.5413
17045SOL     OW52575   5.896   4.226   8.142  0.2782  0.1467  0.1727
17045SOL    HW152576   5.930   4.136   8.139  3.2219  1.1836 -0.7880
17045SOL    HW252577   5.825   4.226   8.078 -1.0898 -1.8943  1.5534
17046SOL     OW52578   4.897   2.142   3.625  0.5795 -0.1199 -0.3003
17046SOL    HW152579   4.975   2.194   3.645  0.9629 -0.3875 -1.0667
17046SOL    HW252580   4.924   2.051   3.635  0.1338 -0.1969  0.2414
17047SOL     OW52581   4.331   3.546   1.212  0.2311  0.0624  0.3086
17047SOL    HW152582   4.418   3.506   1.214 -0.1413 -0.8434 -0.8161
17047SOL    HW252583   4.337   3.612   1.142 -0.2231 -0.6227 -0.3968
17048SOL     OW52584   7.416   5.313   4.356  0.6503  0.2642  0.0523
17048SOL    HW152585   7.356   5.375   4.314  0.9255  0.7763  0.4029
17048SOL    HW252586   7.422   5.343   4.446 -0.4935 -1.2480  0.6656
17049SOL     OW52587   3.014   1.326   9.206 -0.0056  0.1747 -0.2369
17049SOL    HW152588   3.063   1.408   9.201 -1.1981  0.9414  0.1972
17049SOL    HW252589   2.981   1.312   9.117 -1.5799  1.3264  0.1291
17050SOL     OW52590   5.350   2.781   1.994 -0.1703  0.3948 -0.4272
17050SOL    HW152591   5.333   2.729   2.073 -3.5364 -0.2401 -1.4165
17050SOL    HW252592   5.423   2.838   2.018  0.5555 -1.4767  2.2886
17051SOL     OW52593   6.036   2.058   1.904 -0.5182 -0.0879  0.6915
17051SOL    HW152594   6.109   2.025   1.851  1.3043  1.2107  2.2513
17051SOL    HW252595   5.998   2.128   1.851  0.6041  0.4777  0.5781
17052SOL     OW52596   4.557   2.904   7.547 -0.5056 -0.3306  0.2700
17052SOL    HW152597   4.561   2.937   7.637 -0.5609  0.6840 -0.0827
17052SOL    HW252598   4.485   2.952   7.507 -0.5305 -0.8324 -0.2975
17053SOL     OW52599   3.035   2.742   5.577  0.1999  0.0719  0.0479
17053SOL    HW152600   3.022   2.777   5.489  1.5036  0.3499 -0.0548
17053SOL    HW252601   3.066   2.817   5.628  3.6681 -0.9247 -0.3268
17054SOL     OW52602   4.053   1.956   7.924 -0.1696 -0.4392 -0.2795
17054SOL    HW152603   4.111   1.986   7.854  0.8374 -2.0035 -0.1504
17054SOL    HW252604   3.983   2.022   7.926  0.1453  0.0436 -2.2692
17055SOL     OW52605   2.598   4.029  10.668  0.4774  0.1489 -0.3713
17055SOL    HW152606   2.549   4.017  10.750  0.4774 -0.1856 -0.4178
17055SOL    HW252607   2.530   4.051  10.603 -0.0627 -3.0906 -1.0757
17056SOL     OW52608   0.894   6.869   8.844 -0.0442 -0.1648 -0.2306
17056SOL    HW152609   0.954   6.804   8.808 -0.6484 -0.0413 -1.4978
17056SOL    HW252610   0.951   6.934   8.886  0.5684 -1.5383  1.1936
17057SOL     OW52611   4.734   3.984   8.954  0.1246 -0.7608  0.0152
17057SOL    HW152612   4.733   3.924   8.879  0.5132 -1.2875  0.4182
17057SOL    HW252613   4.822   3.974   8.992  0.5165  0.7472 -0.4307
17058SOL     OW52614   3.214   0.107   9.631 -0.1226  0.0698  0.6533
17058SOL    HW152615   3.303   0.094   9.599 -0.7196 -0.4198 -0.8602
17058SOL    HW252616   3.200   0.201   9.622  0.1054  0.0980  0.5756
17059SOL     OW52617   4.990   0.227   7.705 -0.1532  0.4910 -0.0279
17059SOL    HW152618   5.011   0.298   7.766 -2.4808 -0.4897  2.0880
17059SOL    HW252619   5.065   0.167   7.711  0.4940  1.3335  0.4257
17060SOL     OW52620   3.885   6.715   9.413 -0.1976 -0.3589 -0.1608
17060SOL    HW152621   3.810   6.665   9.446 -0.9303  0.8788  0.1230
17060SOL    HW252622   3.847   6.799   9.386  1.1322  0.4011  0.2611
17061SOL     OW52623   5.092   5.533   0.361  0.6010 -0.1948 -0.0992
17061SOL    HW152624   5.044   5.535   0.444 -1.0799  1.0592 -1.0508
17061SOL    HW252625   5.181   5.510   0.386 -0.0608 -0.7473  1.9479
17062SOL     OW52626   2.255   5.015  10.024  0.1355  0.5138  0.4538
17062SOL    HW152627   2.177   5.039   9.974  0.1198 -1.4043 -0.5704
17062SOL    HW252628   2.304   4.958   9.965  1.3296  0.1070  1.7847
17063SOL     OW52629   0.279   7.736   3.514 -0.5312  0.2527 -0.1093
17063SOL    HW152630   0.300   7.771   3.601  0.5413 -1.9254  0.5915
17063SOL    HW252631   0.356   7.755   3.461 -0.0385 -0.7636  0.2122
17064SOL     OW52632   1.074   1.544   2.460 -0.0057 -0.1933 -0.0159
17064SOL    HW152633   1.129   1.604   2.409  1.2779 -0.4270  1.0679
17064SOL    HW252634   1.047   1.596   2.536 -1.1195 -0.1610 -0.4079
17065SOL     OW52635   3.129   3.438   2.502 -0.1011  0.1354 -0.3269
17065SOL    HW152636   3.073   3.497   2.452 -2.4984  0.1045  2.0896
17065SOL    HW252637   3.189   3.496   2.549  0.9192  0.2637 -1.7263
17066SOL     OW52638   7.224   5.771  10.292 -0.0168  0.8941 -0.1732
17066SOL    HW152639   7.285   5.764  10.219  0.2280  0.9203  0.0264
17066SOL    HW252640   7.214   5.682  10.325  0.2291  0.9446  0.0463
17067SOL     OW52641   7.077   3.187   2.771  0.1565 -0.6816 -0.2019
17067SOL    HW152642   7.132   3.188   2.693  2.8224 -0.3079  1.5347
17067SOL    HW252643   6.987   3.191   2.738  1.1905  0.4708 -3.1693
17068SOL     OW52644   6.907   7.528   6.192 -0.2500 -0.2887 -0.1812
17068SOL    HW152645   6.936   7.448   6.236  0.4595  0.3357  0.5337
17068SOL    HW252646   6.916   7.508   6.098  1.7752 -0.4326 -0.0121
17069SOL     OW52647   4.172   3.514  10.832  0.1332 -0.3235 -0.2119
17069SOL    HW152648   4.127   3.432  10.813 -1.1862  0.4521 -0.4996
17069SOL    HW252649   4.158   3.568  10.754 -1.1422  1.0780  0.9303
17070SOL     OW52650   0.053   3.631   9.579 -0.4118 -0.9695 -0.4800
17070SOL    HW152651  -0.011   3.627   9.649  0.2166 -1.3018  0.0827
17070SOL    HW252652   0.080   3.723   9.576  0.8497 -1.2520  0.9166
17071SOL     OW52653   0.754   5.646   3.093  0.0513  0.8164 -0.2845
17071SOL    HW152654   0.845   5.676   3.094  0.7733 -1.2286 -0.3210
17071SOL    HW252655   0.704   5.723   3.067  2.0359  1.3972 -2.8610
17072SOL     OW52656   4.643   1.776   4.648  0.1445 -0.3789  0.2381
17072SOL    HW152657   4.575   1.842   4.633  0.7027 -0.2391 -1.8949
17072SOL    HW252658   4.606   1.695   4.612  1.3964 -0.1059 -1.8330
17073SOL     OW52659   6.475   1.555   6.420 -0.6201  0.2620  0.0673
17073SOL    HW152660   6.562   1.587   6.447 -0.0099 -1.2400 -0.0394
17073SOL    HW252661   6.452   1.609   6.344  0.7125 -0.0231 -0.5654
17074SOL     OW52662   4.027   4.467   5.706 -0.5610 -0.1229 -0.3161
17074SOL    HW152663   3.997   4.447   5.617 -0.8567  1.6475 -0.6533
17074SOL    HW252664   4.096   4.533   5.694 -1.2358  0.8316  0.7859
17075SOL     OW52665   4.892   3.941   8.609 -0.1905 -0.4752  0.0560
17075SOL    HW152666   4.805   3.913   8.639 -1.0554  2.7192  0.8672
17075SOL    HW252667   4.894   3.918   8.516 -3.1294  1.7921 -0.7267
17076SOL     OW52668   5.428   4.477  11.322  0.3038 -0.8205 -0.3679
17076SOL    HW152669   5.434   4.446  11.232  0.1968 -0.9548 -0.3286
17076SOL    HW252670   5.519   4.489  11.350  0.3562 -1.4151 -0.2727
17077SOL     OW52671   0.748   2.501   8.250 -0.5108 -0.1277  0.3559
17077SOL    HW152672   0.739   2.563   8.322 -0.2071  1.0389 -0.5790
17077SOL    HW252673   0.725   2.416   8.288  0.3273  0.3420  1.9990
17078SOL     OW52674   1.875   0.353   9.617 -0.1011  0.2025  0.6236
17078SOL    HW152675   1.864   0.431   9.561  0.3123 -1.1767 -1.4987
17078SOL    HW252676   1.956   0.370   9.665  1.4865  0.0112 -1.8169
17079SOL     OW52677   6.078   7.513   9.850  0.0652  0.0275  0.1025
17079SOL    HW152678   5.994   7.531   9.809 -0.5213 -2.9603 -0.2083
17079SOL    HW252679   6.140   7.509   9.776  0.3635  1.3115  0.2484
17080SOL     OW52680   5.307   5.660   2.788 -0.1803 -0.2622 -0.1823
17080SOL    HW152681   5.338   5.609   2.863  1.7604  2.2837  0.9190
17080SOL    HW252682   5.221   5.693   2.816  1.2273  2.0791  1.8529
17081SOL     OW52683   5.846   2.266  11.066  0.2971  0.3848  0.3738
17081SOL    HW152684   5.918   2.329  11.061  0.3246  0.3315  0.1101
17081SOL    HW252685   5.885   2.184  11.037  0.2931  0.2171  0.8298
17082SOL     OW52686   7.505   6.369   5.745  0.2449  0.7954  0.1308
17082SOL    HW152687   7.491   6.353   5.839  2.4095  1.4945  0.6335
17082SOL    HW252688   7.493   6.464   5.735  1.6336  0.9792  0.0525
17083SOL     OW52689   3.274   2.830   8.040  0.3346 -0.2291  0.3710
17083SOL    HW152690   3.363   2.840   8.005 -0.0746  1.2105 -0.3192
17083SOL    HW252691   3.257   2.913   8.085 -0.8443 -0.3049  0.0834
17084SOL     OW52692   6.213   3.033   5.310 -0.3841 -0.2065 -1.2565
17084SOL    HW152693   6.119   3.051   5.313  0.0157  2.1101  0.7689
17084SOL    HW252694   6.237   3.014   5.400  1.1308 -0.6407 -1.7220
17085SOL     OW52695   5.171   2.058   4.590 -0.0028 -0.8099 -0.1490
17085SOL    HW152696   5.131   1.973   4.568 -1.1316 -0.3138 -0.0627
17085SOL    HW252697   5.185   2.054   4.685 -0.6863 -0.6440 -0.0378
17086SOL     OW52698   2.177   6.647   7.258 -0.3932  0.5379  0.7045
17086SOL    HW152699   2.250   6.585   7.266 -0.8166 -0.4792 -2.2533
17086SOL    HW252700   2.219   6.731   7.239  0.0655  0.2461  0.4119
17087SOL     OW52701   2.872   5.840   9.506 -0.4661  0.6357 -0.1701
17087SOL    HW152702   2.896   5.786   9.432 -0.3276  0.1034  0.2559
17087SOL    HW252703   2.940   5.907   9.510  0.0127  0.1467  0.0001
17088SOL     OW52704   2.677   1.880   1.290 -0.1396  0.1999 -0.1648
17088SOL    HW152705   2.704   1.833   1.211 -1.3885 -2.7963  1.0070
17088SOL    HW252706   2.758   1.918   1.325  0.9351 -0.8417 -1.4089
17089SOL     OW52707   4.792   7.200  11.747 -0.6893  0.1861  0.5064
17089SOL    HW152708   4.772   7.231  11.659  0.7415 -0.8626 -0.2419
17089SOL    HW252709   4.869   7.251  11.774  0.2895 -1.0455  0.1730
17090SOL     OW52710   2.328   4.976  10.581 -0.5382  0.0508  0.2199
17090SOL    HW152711   2.409   4.928  10.594 -0.7434 -0.3870 -0.1188
17090SOL    HW252712   2.284   4.931  10.510  0.0224  1.7012 -1.2486
17091SOL     OW52713   6.106   1.149   3.523  0.1427  0.2530 -0.0958
17091SOL    HW152714   6.107   1.126   3.616  0.5206  0.7674  0.0288
17091SOL    HW252715   6.188   1.113   3.489 -0.6855 -1.2798 -0.5707
17092SOL     OW52716   7.013   6.916   0.933 -0.1971 -0.6567 -0.4492
17092SOL    HW152717   7.084   6.900   0.995 -1.9148  3.1756  3.0202
17092SOL    HW252718   6.939   6.867   0.969 -0.6316 -0.2784 -0.8178
17093SOL     OW52719   6.840   7.437   5.907  0.5805  0.1308 -0.2978
17093SOL    HW152720   6.746   7.434   5.923  0.4253 -1.4236 -1.3583
17093SOL    HW252721   6.852   7.511   5.848 -0.0296  0.0726 -0.4963
17094SOL     OW52722   5.799   4.381   9.369  0.1133 -0.4159  0.2202
17094SOL    HW152723   5.764   4.367   9.457 -0.3242 -1.0043 -0.0425
17094SOL    HW252724   5.732   4.346   9.310 -0.8521  2.3721 -0.4837
17095SOL     OW52725   3.728   0.204   6.982  0.0152  0.3795  0.5282
17095SOL    HW152726   3.639   0.181   6.954 -0.2450  0.7402  1.0297
17095SOL    HW252727   3.742   0.151   7.061  1.4605 -2.0886 -1.2438
17096SOL     OW52728   1.074   0.359   5.608 -0.0680 -0.1362 -0.2299
17096SOL    HW152729   1.085   0.352   5.514 -1.2870  0.3226 -0.4285
17096SOL    HW252730   0.986   0.396   5.619  0.4581  0.8229  1.0520
17097SOL     OW52731   1.742   5.550   6.790 -0.6194  0.1156 -0.7589
17097SOL    HW152732   1.672   5.556   6.855 -0.6967 -1.2345 -0.6862
17097SOL    HW252733   1.706   5.590   6.711 -1.2927 -0.1124 -0.5740
17098SOL     OW52734   7.754   4.169   1.466 -0.0348  0.7075 -0.5535
17098SOL    HW152735   7.746   4.241   1.529 -1.7910  0.3386 -0.2892
17098SOL    HW252736   7.671   4.122   1.473  1.4330 -2.0115  0.0420
17099SOL     OW52737   0.333   2.254  12.156 -0.4178  0.2257 -0.2237
17099SOL    HW152738   0.244   2.285  12.170 -0.4994 -0.3462  0.5976
17099SOL    HW252739   0.323   2.168  12.115 -0.2440  0.1299 -0.0668
17100SOL     OW52740   0.397   3.745   0.504 -0.2427 -0.3254 -0.1298
17100SOL    HW152741   0.478   3.722   0.459  0.1336  0.6507  0.0018
17100SOL    HW252742   0.328   3.722   0.443  0.2851  1.7895 -1.6526
17101SOL     OW52743   4.424   0.793   9.117  0.4008  0.4101  0.1485
17101SOL    HW152744   4.399   0.791   9.025  0.7623  0.3834  0.0492
17101SOL    HW252745   4.352   0.838   9.161 -0.0505 -0.0968 -0.0594
17102SOL     OW52746   3.002   5.288   6.689 -0.1923  0.2103  0.0023
17102SOL    HW152747   3.052   5.323   6.615  2.6007 -1.0082  1.1560
17102SOL    HW252748   3.015   5.194   6.683 -2.1844 -0.1355  0.5796
17103SOL     OW52749   2.398   2.387   3.932 -0.1728 -0.1467  0.7735
17103SOL    HW152750   2.394   2.371   3.838  0.5510 -1.1616  0.9013
17103SOL    HW252751   2.460   2.459   3.941 -1.6737  1.2610  0.3598
17104SOL     OW52752   0.775   2.895   6.442  0.6312 -0.0290 -0.1561
17104SOL    HW152753   0.860   2.886   6.484  0.6977  1.1272 -0.0006
17104SOL    HW252754   0.730   2.963   6.493 -0.2751 -0.4288 -0.4038
17105SOL     OW52755   3.024   4.109  11.005 -0.8054 -0.4310 -0.1187
17105SOL    HW152756   3.065   4.164  10.938  0.1051 -0.5384  0.3436
17105SOL    HW252757   2.931   4.109  10.982 -1.7306  4.8942  2.2537
17106SOL     OW52758   0.722   3.516   7.962  0.0100 -0.0581 -0.0191
17106SOL    HW152759   0.689   3.459   7.892  1.4053 -2.0582  0.8551
17106SOL    HW252760   0.649   3.523   8.024  0.3058 -2.4048  0.6986
17107SOL     OW52761   3.639   5.392   1.298 -0.3537  0.9904  0.6966
17107SOL    HW152762   3.705   5.441   1.249  0.1328  1.3521  1.6722
17107SOL    HW252763   3.613   5.452   1.368 -0.4002  0.1858  1.3859
17108SOL     OW52764   0.233   3.892  12.108  0.1716  0.3822  0.5068
17108SOL    HW152765   0.305   3.841  12.071 -0.8670  0.1905 -1.3835
17108SOL    HW252766   0.208   3.843  12.187  1.5762  0.0242  0.7621
17109SOL     OW52767   0.272   7.694   3.034  1.0104 -0.1565  0.1881
17109SOL    HW152768   0.266   7.629   3.104  0.1792  0.5997  0.8393
17109SOL    HW252769   0.326   7.651   2.966  0.3107 -1.5914  0.4989
17110SOL     OW52770   6.228   6.971  10.831  0.4272  0.3636 -0.2948
17110SOL    HW152771   6.198   7.051  10.874 -0.6978  0.1552 -0.6326
17110SOL    HW252772   6.168   6.904  10.862  1.8946 -0.5546  0.6584
17111SOL     OW52773   5.652   6.525   0.804  0.0122 -0.3110  1.3491
17111SOL    HW152774   5.567   6.555   0.836 -0.8599 -1.6808  0.4524
17111SOL    HW252775   5.635   6.435   0.774  1.6297 -0.3792  0.5588
17112SOL     OW52776   2.871   2.273   5.038  0.1392 -0.5500 -0.5819
17112SOL    HW152777   2.929   2.349   5.033  2.1064 -1.9752 -0.2568
17112SOL    HW252778   2.819   2.289   5.117  2.4135 -0.7501  1.0600
17113SOL     OW52779   2.831   5.870  10.404  0.2569 -0.0428  0.4393
17113SOL    HW152780   2.756   5.908  10.449 -0.6317 -0.0599 -0.9751
17113SOL    HW252781   2.858   5.937  10.341 -0.1720 -0.9862 -0.7962
17114SOL     OW52782   3.397   6.769   2.521  0.0150  0.3881  0.5058
17114SOL    HW152783   3.423   6.683   2.489 -0.7646 -0.8749  2.9982
17114SOL    HW252784   3.302   6.761   2.535 -0.4876  2.3937 -1.1971
17115SOL     OW52785   3.083   3.137   5.108  0.6198 -0.2129  0.2952
17115SOL    HW152786   3.163   3.183   5.083 -0.5123  0.7566 -1.9294
17115SOL    HW252787   3.039   3.196   5.169 -0.4806  1.4952 -1.9919
17116SOL     OW52788   7.112   7.967   0.831 -0.5184  0.2203  0.3771
17116SOL    HW152789   7.123   8.025   0.756 -0.0188  0.0280  0.2972
17116SOL    HW252790   7.182   7.992   0.891  0.8204 -1.4607 -0.4122
17117SOL     OW52791   7.164   1.695  11.057  0.2519 -0.0156  0.1730
17117SOL    HW152792   7.200   1.784  11.051  0.1393  0.0845  0.8985
17117SOL    HW252793   7.239   1.640  11.080  0.2382 -0.0429  0.1527
17118SOL     OW52794   7.628   5.162   7.921  0.6003 -0.2789 -0.1493
17118SOL    HW152795   7.710   5.189   7.963  1.3788 -1.8186 -0.5961
17118SOL    HW252796   7.656   5.106   7.848 -0.7461  1.3684 -2.0273
17119SOL     OW52797   2.947   4.366   3.612 -0.2612 -0.1096  0.0618
17119SOL    HW152798   2.932   4.403   3.699 -0.4586  0.7470 -0.3290
17119SOL    HW252799   2.950   4.271   3.626 -1.5830 -0.0572  0.8116
17120SOL     OW52800   0.266   6.913   5.436 -0.8322  0.3799 -0.0270
17120SOL    HW152801   0.213   6.933   5.358 -2.6070 -1.7589  0.5080
17120SOL    HW252802   0.256   6.989   5.492  1.7278  2.6777 -2.3802
17121SOL     OW52803   2.934   0.219   9.411  0.1660 -0.5998 -0.3141
17121SOL    HW152804   2.956   0.187   9.324 -1.0273  1.4795 -1.4583
17121SOL    HW252805   2.850   0.178   9.432 -0.0162 -0.3563 -0.5691
17122SOL     OW52806   0.807   2.295   2.078  0.1824  0.1671  0.6503
17122SOL    HW152807   0.883   2.300   2.020 -0.3081  1.1281  0.0581
17122SOL    HW252808   0.840   2.326   2.163  0.7021 -0.4506  0.6797
17123SOL     OW52809   2.748   0.645  11.269  0.1072  0.7034 -0.3675
17123SOL    HW152810   2.663   0.635  11.312 -0.3297  2.0149 -0.8881
17123SOL    HW252811   2.731   0.625  11.177  0.6411 -0.2355 -0.2771
17124SOL     OW52812   0.653   6.585   6.032 -0.0452  0.7181  1.1776
17124SOL    HW152813   0.625   6.502   5.992  1.5140  0.2290  1.0210
17124SOL    HW252814   0.576   6.642   6.025 -0.7593 -0.3149  0.1675
17125SOL     OW52815   4.782   1.226   5.135  0.2781  0.1850  0.7471
17125SOL    HW152816   4.862   1.277   5.145  0.1882  0.4519  0.1262
17125SOL    HW252817   4.798   1.171   5.058 -1.0745  2.0839 -1.0218
17126SOL     OW52818   6.205   7.576  11.441  0.2387  0.3256  0.2371
17126SOL    HW152819   6.142   7.628  11.492 -0.3435  0.1407 -0.2792
17126SOL    HW252820   6.173   7.582  11.351  1.0159  0.3000 -0.0503
17127SOL     OW52821   1.350   3.681   6.258  0.0816 -0.0304  0.2266
17127SOL    HW152822   1.363   3.732   6.338  0.1305 -1.6394  1.2967
17127SOL    HW252823   1.325   3.594   6.289 -0.1887 -0.6192 -1.5315
17128SOL     OW52824   4.655   6.355   9.765  0.3486  0.5268 -0.4505
17128SOL    HW152825   4.691   6.429   9.716  0.0182  0.1540 -1.2678
17128SOL    HW252826   4.588   6.394   9.821  0.7375  0.9582 -0.2737
17129SOL     OW52827   2.257   3.163   6.002  0.3105  0.3826  0.0486
17129SOL    HW152828   2.322   3.232   6.017 -0.9210  1.7606 -0.7538
17129SOL    HW252829   2.264   3.107   6.080  3.2825 -0.2612 -0.5537
17130SOL     OW52830   1.412   4.487  11.430  0.0709 -0.3901 -0.3079
17130SOL    HW152831   1.501   4.511  11.453  0.4343 -0.6750 -1.3585
17130SOL    HW252832   1.405   4.505  11.336 -1.3320  0.7066 -0.0336
17131SOL     OW52833   1.043   5.105   6.027 -0.5614 -0.2738 -0.0686
17131SOL    HW152834   0.954   5.077   6.003 -0.7663  0.7897 -0.6427
17131SOL    HW252835   1.050   5.194   5.991 -0.5114  1.0609  2.9123
17132SOL     OW52836   3.521   6.930   9.822 -0.2460  0.5306  0.5378
17132SOL    HW152837   3.453   6.886   9.771  0.8193  0.8878 -1.3065
17132SOL    HW252838   3.542   6.869   9.892 -1.3377 -0.2760  0.1984
17133SOL     OW52839   0.370   6.814   6.814  0.2337 -0.3305 -0.0083
17133SOL    HW152840   0.363   6.892   6.870 -0.2643  0.2904 -0.9081
17133SOL    HW252841   0.314   6.750   6.858  0.1344  0.0273  0.4058
17134SOL     OW52842   1.231   0.713   5.114 -0.3156 -0.6742 -0.5597
17134SOL    HW152843   1.146   0.672   5.128 -0.9784  0.1077 -2.1187
17134SOL    HW252844   1.286   0.677   5.184 -1.4833 -2.3894 -0.4534
17135SOL     OW52845   0.149   5.268  12.023 -0.1604  0.0331  0.4281
17135SOL    HW152846   0.141   5.324  12.101 -0.4659 -0.2058  0.5742
17135SOL    HW252847   0.148   5.179  12.058  2.3816 -0.0737  0.3840
17136SOL     OW52848   5.069   7.354   8.358  0.5231 -0.4623  0.3245
17136SOL    HW152849   5.001   7.343   8.424  0.4132 -0.3683  0.2266
17136SOL    HW252850   5.028   7.326   8.276  0.3970  0.2078  0.1583
17137SOL     OW52851   0.017   5.151   5.256  0.3737  0.6140  0.4786
17137SOL    HW152852   0.005   5.058   5.275 -2.5301  1.1188  1.6685
17137SOL    HW252853  -0.028   5.165   5.173  0.2212  1.0956  0.6416
17138SOL     OW52854   2.102   6.440  10.701 -0.2188  0.0395  0.0101
17138SOL    HW152855   2.083   6.353  10.738 -0.9016 -0.1854 -0.8378
17138SOL    HW252856   2.195   6.454  10.720 -0.1778 -0.7414  0.4381
17139SOL     OW52857   6.887   3.301   8.815  0.4220 -0.0194  0.0896
17139SOL    HW152858   6.836   3.220   8.818 -1.3216  1.0417  1.2681
17139SOL    HW252859   6.821   3.371   8.812  1.8728  1.3760 -1.7170
17140SOL     OW52860   5.186   4.946   3.015 -0.3177  0.5871  0.0258
17140SOL    HW152861   5.127   4.923   2.944 -0.2285 -0.0305  0.1505
17140SOL    HW252862   5.208   4.863   3.057  0.9668  0.7525 -0.2820
17141SOL     OW52863   7.411   5.627  10.785 -0.1288  0.4235 -0.2482
17141SOL    HW152864   7.410   5.686  10.709 -1.0707  0.4261 -0.2425
17141SOL    HW252865   7.386   5.682  10.859  0.7934  0.4206  0.0742
17142SOL     OW52866   3.993   1.188   9.335 -0.1127  0.3053  0.2516
17142SOL    HW152867   3.975   1.168   9.243 -3.1762  0.4454  0.7177
17142SOL    HW252868   4.061   1.125   9.360 -1.1866 -1.6501 -1.3991
17143SOL     OW52869   7.691   6.409   0.842  0.1783  0.3401  0.1899
17143SOL    HW152870   7.776   6.413   0.798  0.3518  0.9244  0.5745
17143SOL    HW252871   7.640   6.480   0.804 -0.6329 -0.8276 -1.0203
17144SOL     OW52872   4.156   0.826   8.248  0.5489  0.1311 -0.3516
17144SOL    HW152873   4.173   0.850   8.339  0.0466 -0.4972 -0.0800
17144SOL    HW252874   4.101   0.748   8.254 -0.3945  0.7093 -1.1918
17145SOL     OW52875   0.344   3.065   7.062 -0.6954 -0.1578 -0.1178
17145SOL    HW152876   0.341   3.154   7.026 -0.7936 -0.4016 -0.7260
17145SOL    HW252877   0.256   3.050   7.097 -0.8661 -0.2294 -0.5626
17146SOL     OW52878   2.698   3.835   2.254 -0.7403 -0.2801  0.1071
17146SOL    HW152879   2.743   3.918   2.263 -0.2442 -0.2040 -2.4572
17146SOL    HW252880   2.755   3.782   2.198 -2.5942 -1.1100 -1.0885
17147SOL     OW52881   7.127   7.592  11.234  0.7191 -0.7106  0.6344
17147SOL    HW152882   7.125   7.563  11.143 -0.3565  0.8229  0.1169
17147SOL    HW252883   7.179   7.673  11.232 -0.4045  0.0556  1.1137
17148SOL     OW52884   1.869   7.500   5.138 -0.0143 -0.2387  0.4165
17148SOL    HW152885   1.850   7.411   5.168 -1.3915 -0.0154  0.2644
17148SOL    HW252886   1.964   7.510   5.150  0.2664 -1.9423 -0.1896
17149SOL     OW52887   6.551   6.470   6.097 -0.2712  0.0273 -0.2440
17149SOL    HW152888   6.526   6.426   6.177  0.3465  0.4817  0.2128
17149SOL    HW252889   6.499   6.428   6.028 -0.1993 -0.9299  0.2718
17150SOL     OW52890   6.352   7.340  11.050  0.0016  0.2860 -0.0660
17150SOL    HW152891   6.346   7.372  11.140 -0.3950  1.3674 -0.4548
17150SOL    HW252892   6.445   7.323  11.037 -0.0566 -0.8846  0.8648
17151SOL     OW52893   0.262   6.292   6.686  0.0332  0.0696  0.3865
17151SOL    HW152894   0.285   6.347   6.612 -0.9820  2.3943  1.6870
17151SOL    HW252895   0.325   6.315   6.754  0.1788 -1.1126  0.6839
17152SOL     OW52896   0.251   3.749   6.860  0.0498 -0.1933 -0.1562
17152SOL    HW152897   0.242   3.754   6.764 -2.1571 -0.8716 -0.0374
17152SOL    HW252898   0.193   3.818   6.893  0.3387 -0.3518  0.7003
17153SOL     OW52899   3.364   0.207  10.438 -0.0759 -0.0431  0.1304
17153SOL    HW152900   3.281   0.161  10.452  1.5885 -3.4355 -0.0647
17153SOL    HW252901   3.389   0.238  10.525 -1.1665  0.3913  0.3082
17154SOL     OW52902   7.185   1.792   1.757  0.4104 -0.6202 -0.5324
17154SOL    HW152903   7.278   1.790   1.736 -0.0242 -0.3285 -2.8082
17154SOL    HW252904   7.151   1.865   1.706 -1.1280 -0.9308 -0.0095
17155SOL     OW52905   2.210   5.148   5.608  0.6250  0.2096 -0.0215
17155SOL    HW152906   2.203   5.235   5.646  3.6247  0.1766  0.8542
17155SOL    HW252907   2.193   5.088   5.681 -0.2908  0.0624 -0.3500
17156SOL     OW52908   5.271   6.263   9.655  0.1397 -0.5254 -0.1392
17156SOL    HW152909   5.266   6.358   9.649  0.8116 -0.5380 -1.1147
17156SOL    HW252910   5.192   6.231   9.613 -0.9112 -0.3879  1.6461
17157SOL     OW52911   6.819   5.918   7.005  0.0019  0.3364 -0.4615
17157SOL    HW152912   6.753   5.897   7.071  1.1773 -0.4655  0.5004
17157SOL    HW252913   6.902   5.912   7.052  0.8560  0.0231 -1.9634
17158SOL     OW52914   4.908   2.753   6.692 -1.0446  0.3389  0.6054
17158SOL    HW152915   4.956   2.671   6.683  1.1939  1.1549  3.4748
17158SOL    HW252916   4.930   2.804   6.614 -0.3628 -0.7838  0.0461
17159SOL     OW52917   7.531   7.325  11.495 -0.1092  0.4992  0.1837
17159SOL    HW152918   7.496   7.391  11.435 -1.3067  0.9995  1.3856
17159SOL    HW252919   7.494   7.347  11.580  0.4200 -1.0236  0.8536
17160SOL     OW52920   4.649   2.962   4.522 -0.2486  0.3018  0.0939
17160SOL    HW152921   4.567   3.004   4.547  0.2877  0.4649  1.6488
17160SOL    HW252922   4.712   2.992   4.587  0.8785 -0.4279 -0.6327
17161SOL     OW52923   3.757   5.461   3.438 -0.1624 -0.5310 -0.0762
17161SOL    HW152924   3.811   5.514   3.379  0.5439 -2.1456 -0.9264
17161SOL    HW252925   3.817   5.433   3.506 -0.1685 -1.4283 -0.4298
17162SOL     OW52926   0.676   3.935   3.560  0.2190 -0.1485 -0.2860
17162SOL    HW152927   0.735   3.879   3.510  1.5821  0.1364  0.9257
17162SOL    HW252928   0.713   4.023   3.550  0.3342 -0.0451  0.9136
17163SOL     OW52929   1.252   5.813   1.863  0.2081  0.5733 -0.5628
17163SOL    HW152930   1.186   5.876   1.834 -2.4929 -1.4511  0.7770
17163SOL    HW252931   1.277   5.843   1.950 -0.3318  0.3263 -0.3233
17164SOL     OW52932   5.945   3.346   7.230  0.3495 -0.6281 -0.2945
17164SOL    HW152933   5.858   3.386   7.230  1.3605  1.7971  0.7941
17164SOL    HW252934   6.005   3.418   7.210  2.4084 -1.2446  2.9065
17165SOL     OW52935   5.384   2.163   0.123  0.3748 -0.2982  0.3601
17165SOL    HW152936   5.479   2.161   0.127  0.3617 -1.0003  0.6242
17165SOL    HW252937   5.359   2.246   0.162  0.8959  0.1292 -0.2048
17166SOL     OW52938   1.542   2.034   9.030  0.0449  0.5699  0.5196
17166SOL    HW152939   1.492   2.022   8.949 -1.0927  2.9499  0.7782
17166SOL    HW252940   1.625   2.073   9.001 -0.3925  1.4947  0.4705
17167SOL     OW52941   6.785   0.842   7.153 -0.1891  0.0057 -0.1279
17167SOL    HW152942   6.710   0.799   7.112 -0.5074 -0.0582  0.5037
17167SOL    HW252943   6.861   0.815   7.101 -0.4894 -0.6514 -0.2285
17168SOL     OW52944   1.904   4.469   2.333  0.6679 -0.1761 -0.8268
17168SOL    HW152945   1.881   4.387   2.290  1.6572 -1.6813  1.3340
17168SOL    HW252946   1.819   4.510   2.354  0.1745 -0.0784 -2.8227
17169SOL     OW52947   6.944   2.222   2.767 -0.3306 -0.8045 -0.0349
17169SOL    HW152948   6.850   2.206   2.761 -0.6745  0.9865 -0.1435
17169SOL    HW252949   6.960   2.240   2.860 -0.2689 -0.2830 -0.1403
17170SOL     OW52950   6.298   4.945   1.970  0.0104 -0.2172  0.3251
17170SOL    HW152951   6.241   4.997   2.027  2.7717  1.1151  2.0973
17170SOL    HW252952   6.308   4.998   1.891  0.5188  0.5898  0.9238
17171SOL     OW52953   0.905   1.359   0.683 -0.0730 -0.1736 -0.1085
17171SOL    HW152954   0.828   1.398   0.639 -0.0609  0.4145  0.3829
17171SOL    HW252955   0.890   1.265   0.677  0.8241 -0.2467 -3.0363
17172SOL     OW52956   0.591   3.266   0.995 -0.0496  0.7226 -0.0146
17172SOL    HW152957   0.517   3.271   0.935  0.7780  1.0446 -1.0231
17172SOL    HW252958   0.599   3.355   1.030  0.4260  0.9137 -0.6017
17173SOL     OW52959   5.595   6.627   2.378  0.4737  0.0692 -0.1036
17173SOL    HW152960   5.641   6.555   2.420  1.2956  0.3018 -0.5726
17173SOL    HW252961   5.645   6.705   2.403  0.2809  0.3394 -0.5516
17174SOL     OW52962   3.161   0.531   9.316 -0.0774 -0.2122 -0.1050
17174SOL    HW152963   3.072   0.516   9.346  0.2239 -1.0538  0.4057
17174SOL    HW252964   3.184   0.618   9.348 -1.0581  0.4371 -1.1105
17175SOL     OW52965   6.175   1.223   1.280  0.2187  0.1476 -0.0726
17175SOL    HW152966   6.178   1.275   1.360  1.8472  0.4535 -0.2975
17175SOL    HW252967   6.218   1.279   1.214  0.6573 -0.8757 -0.6746
17176SOL     OW52968   2.750   0.137   4.964  0.1430  0.1811 -0.0949
17176SOL    HW152969   2.768   0.230   4.951  2.0415 -0.2058 -0.4744
17176SOL    HW252970   2.772   0.096   4.880  2.1986 -0.9647  0.9443
17177SOL     OW52971   1.639   7.200   5.751  0.1757 -0.4247 -0.0187
17177SOL    HW152972   1.555   7.168   5.717 -1.1707  1.1658  1.6409
17177SOL    HW252973   1.650   7.286   5.711  1.8712 -1.2130 -1.4355
17178SOL     OW52974   7.284   7.972   7.243 -0.1413 -0.0019 -0.0233
17178SOL    HW152975   7.355   8.021   7.284  0.2855 -1.7501  1.4474
17178SOL    HW252976   7.320   7.943   7.159  0.8933 -0.8457  0.6909
17179SOL     OW52977   0.189   1.611   2.601 -0.0178 -0.1522  0.2823
17179SOL    HW152978   0.104   1.635   2.637 -0.1579 -0.3252  0.0720
17179SOL    HW252979   0.197   1.518   2.619 -0.5589 -0.4848 -1.0414
17180SOL     OW52980   0.170   1.490   6.680  0.3465  0.0955 -0.1681
17180SOL    HW152981   0.161   1.583   6.704  1.3704  0.0819  0.3446
17180SOL    HW252982   0.136   1.443   6.756 -2.3040 -0.0029 -1.3075
17181SOL     OW52983   7.803   2.902  12.398 -0.1359  0.0627 -0.5577
17181SOL    HW152984   7.820   2.838  12.467  2.7875  0.1100 -1.0927
17181SOL    HW252985   7.804   2.986  12.442 -0.2884 -0.0356 -0.3679
17182SOL     OW52986   2.876   7.666   2.714  0.3542  0.3385 -0.4731
17182SOL    HW152987   2.950   7.720   2.741 -0.2690  2.4286 -2.5938
17182SOL    HW252988   2.838   7.634   2.796  2.3902  0.8390  0.7369
17183SOL     OW52989   5.926   6.593   1.138 -0.0861 -0.0601  0.2038
17183SOL    HW152990   5.917   6.558   1.049 -2.0097  1.6238 -0.3340
17183SOL    HW252991   5.863   6.543   1.189 -2.7152  2.2414 -0.5312
17184SOL     OW52992   0.157   0.857   2.529  0.0652  0.6805  0.1447
17184SOL    HW152993   0.135   0.772   2.490 -0.3362 -0.0727  1.8770
17184SOL    HW252994   0.229   0.890   2.476  1.7896 -1.8241  0.7392
17185SOL     OW52995   3.515   3.255   1.372 -0.1093  0.3074 -0.7498
17185SOL    HW152996   3.560   3.302   1.442 -1.2830  2.6077 -1.4402
17185SOL    HW252997   3.585   3.225   1.314  0.8013 -0.6955  0.7882
17186SOL     OW52998   3.880   4.849   2.745  0.1326 -0.5945  0.0171
17186SOL    HW152999   3.798   4.887   2.775 -0.6670 -1.1080 -1.4395
17186SOL    HW253000   3.899   4.894   2.662  1.8926  0.2706  0.8264
17187SOL     OW53001   1.850   7.131  11.630 -0.4375 -0.2429  0.0269
17187SOL    HW153002   1.862   7.220  11.661 -2.5361 -0.1229  0.6822
17187SOL    HW253003   1.823   7.140  11.538  1.3842 -0.3684 -0.5706
17188SOL     OW53004   1.128   4.410   1.929 -0.4505 -0.6840  0.1079
17188SOL    HW153005   1.070   4.379   1.859 -0.6407 -1.2001  0.4930
17188SOL    HW253006   1.215   4.379   1.903 -0.5604 -1.0978  0.2261
17189SOL     OW53007   4.789   2.594   8.736  0.3370  0.1414  0.3461
17189SOL    HW153008   4.708   2.642   8.753  0.2747 -0.2531  1.1946
17189SOL    HW253009   4.761   2.502   8.727  0.7286 -0.0403  0.9599
17190SOL     OW53010   0.591   4.811  12.212  0.3373 -0.3503  0.1707
17190SOL    HW153011   0.618   4.901  12.193  0.3270 -0.0937  1.3070
17190SOL    HW253012   0.514   4.820  12.268  1.2220 -1.0213  1.5651
17191SOL     OW53013   7.772   7.272   4.114  0.0548 -0.1694  0.6274
17191SOL    HW153014   7.749   7.291   4.023 -0.1544 -1.2726  0.4379
17191SOL    HW253015   7.730   7.188   4.133 -0.2945  0.2581  1.8900
17192SOL     OW53016   1.152   7.085   6.347 -0.1465 -0.5548  0.3615
17192SOL    HW153017   1.186   7.014   6.292  0.2465 -1.0933  1.2564
17192SOL    HW253018   1.154   7.048   6.436  0.1437  0.6115  0.8547
17193SOL     OW53019   7.287   4.475   3.556 -0.0720 -0.1490 -0.0981
17193SOL    HW153020   7.192   4.475   3.564 -0.0538 -0.3126  0.1206
17193SOL    HW253021   7.316   4.551   3.606  0.0297 -1.0770  1.3186
17194SOL     OW53022   1.902   5.805   3.661 -0.3646  0.0439  0.2799
17194SOL    HW153023   1.945   5.874   3.711 -1.5899  2.0448 -1.2916
17194SOL    HW253024   1.818   5.791   3.705 -1.8547  2.4664 -1.5728
17195SOL     OW53025   0.716   1.706   4.722  0.1265  0.5392  0.0703
17195SOL    HW153026   0.781   1.639   4.703  0.0411  0.1443  1.1404
17195SOL    HW253027   0.632   1.661   4.712  0.0762  0.3696  1.1600
17196SOL     OW53028   2.432   5.982   8.086  0.5168  0.2553  0.2456
17196SOL    HW153029   2.390   6.001   8.170 -0.3202  0.7492 -0.2709
17196SOL    HW253030   2.372   5.921   8.043  1.3510 -0.6619  0.3389
17197SOL     OW53031   1.937   4.592   0.188 -0.0992 -0.1361  0.0896
17197SOL    HW153032   1.864   4.635   0.144  0.6494  0.5376 -0.5157
17197SOL    HW253033   1.944   4.636   0.272 -0.9679 -0.8339  0.5502
17198SOL     OW53034   2.024   6.286   5.737 -0.4860 -0.3386  0.3057
17198SOL    HW153035   2.053   6.348   5.804 -0.6061 -0.5285  0.5327
17198SOL    HW253036   1.929   6.294   5.735 -0.5322 -0.7630  0.5807
17199SOL     OW53037   7.452   1.996   9.036 -0.2721  0.2852 -0.3801
17199SOL    HW153038   7.407   1.974   8.954 -0.2432 -1.4880  0.0424
17199SOL    HW253039   7.382   2.004   9.100 -0.1688 -0.1348 -0.2106
17200SOL     OW53040   0.609   5.897   5.922  0.1113  0.1636  0.0246
17200SOL    HW153041   0.672   5.948   5.871 -0.9441  1.1610 -0.2941
17200SOL    HW253042   0.535   5.955   5.935  1.1227  0.8127  4.5636
17201SOL     OW53043   4.392   2.116   0.489 -0.2677  0.1211  0.6125
17201SOL    HW153044   4.300   2.128   0.465  0.1461 -0.0352 -1.1886
17201SOL    HW253045   4.401   2.022   0.503  0.0797 -0.1977 -1.4663
17202SOL     OW53046   1.661   4.396  10.747 -0.5383 -0.2420 -0.0481
17202SOL    HW153047   1.733   4.355  10.795 -0.0616  0.5325 -0.0916
17202SOL    HW253048   1.610   4.322  10.713  0.1662 -0.7962  0.0789
17203SOL     OW53049   7.655   7.861   2.796  0.1281 -0.2463 -0.1982
17203SOL    HW153050   7.701   7.926   2.743  1.2565  0.9365  2.0995
17203SOL    HW253051   7.665   7.779   2.747  0.4658  0.8992 -2.1430
17204SOL     OW53052   7.223   3.130   2.174  0.5488  0.1674 -0.3159
17204SOL    HW153053   7.190   3.093   2.256  0.1952  1.6174  0.2237
17204SOL    HW253054   7.219   3.225   2.187  2.5561  0.4095 -1.2056
17205SOL     OW53055   0.140   3.675   0.057 -0.3769  0.3103 -0.2268
17205SOL    HW153056   0.049   3.699   0.075 -0.9276 -0.7143 -1.4517
17205SOL    HW253057   0.155   3.705  -0.033  0.1175 -0.5307 -0.4337
17206SOL     OW53058   6.702   4.280  12.449 -0.7886  0.6391  0.0438
17206SOL    HW153059   6.622   4.234  12.475 -0.7023  1.2904  1.5029
17206SOL    HW253060   6.699   4.363  12.495  0.3214  1.0409 -0.5626
17207SOL     OW53061   5.718   6.203   0.983 -0.1582  0.0736 -0.0656
17207SOL    HW153062   5.688   6.223   0.894  1.7756  0.1538 -0.7524
17207SOL    HW253063   5.658   6.252   1.040 -1.4873 -0.0404 -1.3036
17208SOL     OW53064   1.727   0.835   5.510  0.2086 -0.2185  0.6432
17208SOL    HW153065   1.705   0.913   5.460  0.7199 -1.2864 -1.3636
17208SOL    HW253066   1.823   0.836   5.516  0.1986 -0.5192  0.9259
17209SOL     OW53067   5.317   2.276   4.590 -0.2608  0.0998 -0.1828
17209SOL    HW153068   5.412   2.278   4.581 -0.2904  0.9889 -0.3883
17209SOL    HW253069   5.294   2.183   4.583  0.6076 -0.1487  0.1106
17210SOL     OW53070   2.317   1.896   5.547  0.4155  0.0537  0.2811
17210SOL    HW153071   2.408   1.911   5.522  0.9539 -1.1983  1.3313
17210SOL    HW253072   2.308   1.938   5.632  0.4762 -1.0636  0.8681
17211SOL     OW53073   2.082   0.808   6.441  0.8734  0.8620 -0.2985
17211SOL    HW153074   2.028   0.748   6.389  1.2054  1.1630 -1.0099
17211SOL    HW253075   2.045   0.894   6.421  1.4339  1.0422 -0.5734
17212SOL     OW53076   4.035   2.663  10.279  0.0291  0.1079 -0.4064
17212SOL    HW153077   3.993   2.649  10.195 -0.2480  0.4415 -0.3273
17212SOL    HW253078   3.963   2.671  10.342  0.2371 -0.3714 -0.0992
17213SOL     OW53079   1.782   5.190   3.132 -0.3201 -0.1155  0.0152
17213SOL    HW153080   1.698   5.233   3.145 -0.2115  0.0824  0.0577
17213SOL    HW253081   1.830   5.206   3.213 -0.7926 -1.4852  0.5957
17214SOL     OW53082   1.403   0.930   9.308  0.4003  0.7401 -0.2497
17214SOL    HW153083   1.424   0.837   9.322 -1.4120  0.2881 -0.1582
17214SOL    HW253084   1.486   0.971   9.284  1.1895 -0.9616 -0.5683
17215SOL     OW53085   6.340   5.203   8.149 -0.4401 -0.5772  0.4593
17215SOL    HW153086   6.419   5.241   8.188 -0.4369 -0.0822 -0.0158
17215SOL    HW253087   6.289   5.171   8.224  0.1670 -0.8272  0.7775
17216SOL     OW53088   7.893   4.729   1.540  0.2362  0.5464 -0.0462
17216SOL    HW153089   7.955   4.751   1.470 -1.6782  1.9049 -1.4301
17216SOL    HW253090   7.870   4.814   1.578 -0.4854  0.0312  0.7001
17217SOL     OW53091   3.259   4.825   3.131  0.0402  0.3616  0.1951
17217SOL    HW153092   3.272   4.735   3.102 -2.4063  0.3654 -1.2222
17217SOL    HW253093   3.342   4.868   3.113  0.4273 -1.0178 -1.6256
17218SOL     OW53094   0.609   7.263   5.428  0.1968  0.9236 -0.2100
17218SOL    HW153095   0.611   7.315   5.347 -4.3181  1.1822 -0.4514
17218SOL    HW253096   0.577   7.177   5.401 -0.7762  0.8115  1.1701
17219SOL     OW53097   5.727   4.304   6.883 -0.5306  0.1905  0.0181
17219SOL    HW153098   5.796   4.249   6.845 -0.5116  0.9969 -1.1656
17219SOL    HW253099   5.774   4.363   6.942 -0.2597  0.4144 -0.4144
17220SOL     OW53100   4.370   5.031   8.879  0.0699 -0.1336 -0.1528
17220SOL    HW153101   4.353   5.124   8.865  0.1265  0.3513  2.4031
17220SOL    HW253102   4.287   4.987   8.860 -0.9501  0.8799  1.7126
17221SOL     OW53103   2.600   7.095   5.806 -0.2528 -0.0239 -0.0341
17221SOL    HW153104   2.623   7.121   5.717 -2.4536  1.3881 -0.2738
17221SOL    HW253105   2.591   7.000   5.802 -2.3187  0.1573 -1.9222
17222SOL     OW53106   2.850   6.864  11.193  0.3475  0.0927  0.1258
17222SOL    HW153107   2.846   6.803  11.266 -0.2151 -0.1801 -0.1296
17222SOL    HW253108   2.762   6.902  11.189  0.0274 -0.7482 -1.1391
17223SOL     OW53109   1.470   3.116   1.047  0.6163  0.1200  0.3991
17223SOL    HW153110   1.512   3.182   0.993 -2.0109  1.2355 -0.4123
17223SOL    HW253111   1.424   3.059   0.985 -1.1556  0.4786  1.3167
17224SOL     OW53112   1.884   1.774   2.871 -0.3913  0.1685  0.1217
17224SOL    HW153113   1.917   1.820   2.793 -1.9023 -0.1748 -0.7632
17224SOL    HW253114   1.952   1.788   2.937  0.2548  1.7455 -0.8009
17225SOL     OW53115   6.046   6.349   3.572  0.0945  0.1107  0.4427
17225SOL    HW153116   6.061   6.435   3.613 -2.0350  0.7736 -0.0540
17225SOL    HW253117   5.981   6.308   3.628 -1.2151  0.1214 -1.0195
17226SOL     OW53118   5.114   4.654   4.801 -0.3179 -0.1523  0.0890
17226SOL    HW153119   5.024   4.675   4.822 -0.2869 -0.6491  0.7442
17226SOL    HW253120   5.163   4.735   4.819 -0.6477  0.1767 -0.4561
17227SOL     OW53121   0.943   7.772   5.664  0.1893 -0.9291  0.3196
17227SOL    HW153122   0.959   7.858   5.625  0.1761 -1.3282 -0.5864
17227SOL    HW253123   0.886   7.790   5.739  1.2560 -0.0078  0.9336
17228SOL     OW53124   4.360   0.314  11.906  1.3521  0.2794  0.6767
17228SOL    HW153125   4.368   0.297  11.813  0.5656  0.0398  0.6388
17228SOL    HW253126   4.420   0.386  11.924  3.1768 -1.0907  0.4131
17229SOL     OW53127   2.958   0.805   7.368  0.1450 -0.0084 -0.1433
17229SOL    HW153128   2.963   0.721   7.323 -0.6220  0.0881 -0.4394
17229SOL    HW253129   3.012   0.864   7.315  0.8821 -0.3673  0.2052
17230SOL     OW53130   4.885   2.701   5.978  0.4596  0.1211  0.5404
17230SOL    HW153131   4.846   2.649   6.049  0.3473  1.0543  1.1730
17230SOL    HW253132   4.878   2.644   5.901  0.1996 -0.7446  1.1826
17231SOL     OW53133   6.266   2.938   4.766  0.3574  0.2087  0.0344
17231SOL    HW153134   6.316   2.919   4.845 -0.7958  2.5921  1.4621
17231SOL    HW253135   6.322   2.910   4.694  2.1168 -0.6046  1.6501
17232SOL     OW53136   6.971   0.018   6.537  0.1199  0.4323  0.5286
17232SOL    HW153137   6.952   0.056   6.623  1.3095  1.3776  0.4009
17232SOL    HW253138   7.050  -0.033   6.551 -2.0852 -3.1808  0.9836
17233SOL     OW53139   3.152   0.363   8.726 -0.0601 -0.3792  0.6643
17233SOL    HW153140   3.192   0.423   8.663 -0.6031  0.7027  1.3171
17233SOL    HW253141   3.221   0.345   8.789  0.1338 -0.5172  0.4140
17234SOL     OW53142   2.260   3.511   4.958  0.0794 -0.1308 -0.2876
17234SOL    HW153143   2.187   3.564   4.988 -0.2120 -0.6390 -0.0813
17234SOL    HW253144   2.308   3.489   5.038  0.0687 -0.3671 -0.3455
17235SOL     OW53145   1.756   6.320   4.436  0.3130  0.2625 -0.0995
17235SOL    HW153146   1.802   6.265   4.373  1.1055 -0.3939  1.0264
17235SOL    HW253147   1.800   6.405   4.429  0.9152 -0.0236  0.1039
17236SOL     OW53148   3.213   7.546  11.644  0.3846 -0.2324  0.1657
17236SOL    HW153149   3.202   7.640  11.626 -1.6359 -0.5797 -0.5745
17236SOL    HW253150   3.222   7.542  11.740 -0.6946  0.6316  0.3232
17237SOL     OW53151   1.148   0.930   1.373 -0.2347 -0.1317 -0.1077
17237SOL    HW153152   1.081   0.956   1.310 -0.2709  0.8291  0.2959
17237SOL    HW253153   1.222   0.901   1.320 -0.3795  0.3636 -0.5897
17238SOL     OW53154   6.258   1.563   6.608  0.8851  0.0879 -0.0335
17238SOL    HW153155   6.211   1.569   6.525  0.6981  2.4537  0.1648
17238SOL    HW253156   6.349   1.578   6.585  1.0775 -0.9820  0.0010
17239SOL     OW53157   4.620   4.897  11.440  0.1994 -0.2626  0.0929
17239SOL    HW153158   4.666   4.961  11.495  0.2636 -0.0003 -0.2632
17239SOL    HW253159   4.689   4.840  11.407  0.3557  0.5044 -0.9370
17240SOL     OW53160   3.568   0.949   6.483  0.3407  0.1230 -0.0337
17240SOL    HW153161   3.477   0.957   6.512  0.0587 -0.9211 -0.5923
17240SOL    HW253162   3.565   0.960   6.388  0.9167  0.8963  0.0223
17241SOL     OW53163   4.064   0.476   6.106 -0.2013  0.0632  0.0171
17241SOL    HW153164   4.113   0.429   6.039 -1.2511 -0.1540 -0.6197
17241SOL    HW253165   3.982   0.428   6.114 -0.2906  0.3774  1.1127
17242SOL     OW53166   0.119   2.915   0.040 -0.2437 -0.3135  0.2850
17242SOL    HW153167   0.051   2.860   0.079  0.4916 -1.7287 -0.3399
17242SOL    HW253168   0.162   2.858  -0.024  1.7622  0.4143  0.9042
17243SOL     OW53169   1.055   5.072   5.379 -0.1527 -0.6431 -0.8505
17243SOL    HW153170   1.032   5.055   5.288  1.4130  0.0318 -1.4142
17243SOL    HW253171   1.088   4.988   5.412  2.6568 -0.1453 -2.0544
17244SOL     OW53172   5.583   0.624   1.671  0.0401 -0.5159  0.8482
17244SOL    HW153173   5.576   0.607   1.578  1.5699 -1.2809  0.8362
17244SOL    HW253174   5.534   0.553   1.713  0.1192 -0.6954  0.6390
17245SOL     OW53175   2.649   6.979  11.777  0.5975 -0.3280  0.3955
17245SOL    HW153176   2.561   7.003  11.747  1.3807  2.2397 -0.0642
17245SOL    HW253177   2.664   7.035  11.854  2.6730  1.0532 -0.9202
17246SOL     OW53178   7.145   1.098   6.112 -0.7995 -0.0775  0.0153
17246SOL    HW153179   7.195   1.029   6.156 -0.2148 -0.6791 -1.5375
17246SOL    HW253180   7.094   1.139   6.182  0.5413 -0.5968  1.3514
17247SOL     OW53181   5.246   0.369   9.625 -0.3980  0.2278 -0.3712
17247SOL    HW153182   5.313   0.379   9.558  2.7942  0.4450  2.5899
17247SOL    HW253183   5.230   0.458   9.656  0.4962 -0.1246  1.1783
17248SOL     OW53184   7.442   0.023   8.203  0.1464 -0.3963  0.6390
17248SOL    HW153185   7.494   0.008   8.282 -2.6879  1.7547  3.1983
17248SOL    HW253186   7.380  -0.049   8.201 -0.0317 -0.2453  0.6389
17249SOL     OW53187   2.909   3.531   5.873 -0.6729 -0.0329 -0.1301
17249SOL    HW153188   2.952   3.514   5.789  0.1142  1.7221 -0.1412
17249SOL    HW253189   2.968   3.594   5.917 -0.6955 -1.4211  2.0431
17250SOL     OW53190   0.072   0.069   0.704  0.3206  0.2010  0.1994
17250SOL    HW153191   0.086   0.035   0.792  1.4860  0.1728  0.0164
17250SOL    HW253192   0.076  -0.007   0.647  1.5474  0.4358 -0.0648
17251SOL     OW53193   3.427   4.076   1.102  0.0233  0.1363 -0.1828
17251SOL    HW153194   3.372   4.012   1.147 -1.0831  1.8374  1.0015
17251SOL    HW253195   3.394   4.077   1.012 -1.2408  0.4360  0.2729
17252SOL     OW53196   6.509   4.673  11.894  0.4989  0.2398 -0.1329
17252SOL    HW153197   6.537   4.603  11.835 -1.5617 -0.6395 -0.1815
17252SOL    HW253198   6.551   4.652  11.977  0.9922 -0.2799 -0.5046
17253SOL     OW53199   1.566   7.497   8.675 -0.4864  0.2799  0.0342
17253SOL    HW153200   1.655   7.464   8.675 -1.0823 -1.5096 -1.6713
17253SOL    HW253201   1.535   7.482   8.765  0.8029  0.6348  0.5567
17254SOL     OW53202   3.287   6.544  11.995  0.5266  0.3411 -0.4447
17254SOL    HW153203   3.297   6.622  11.940 -1.2199 -0.0451 -1.3555
17254SOL    HW253204   3.369   6.496  11.983  2.3133  2.6798  1.3124
17255SOL     OW53205   3.894   3.680   4.830 -0.3695 -0.0477 -0.6372
17255SOL    HW153206   3.821   3.717   4.782 -0.3376  0.8313 -0.0428
17255SOL    HW253207   3.972   3.721   4.791 -0.3225  0.4046 -0.0850
17256SOL     OW53208   2.546   5.347  10.257 -0.3353 -0.3158  0.1925
17256SOL    HW153209   2.543   5.426  10.311  0.2324 -0.4786  0.4719
17256SOL    HW253210   2.487   5.286  10.301 -2.8786  0.7899 -1.4410
17257SOL     OW53211   6.764   3.698   3.648  0.2263  0.2322  0.5335
17257SOL    HW153212   6.756   3.721   3.740  0.1065 -1.0779  0.8802
17257SOL    HW253213   6.842   3.643   3.643 -0.6718 -1.0853  0.1841
17258SOL     OW53214   3.508   5.371   8.030 -0.1605 -0.3815 -0.1786
17258SOL    HW153215   3.572   5.324   7.976 -0.0782  0.6220 -0.9886
17258SOL    HW253216   3.554   5.387   8.112  0.3002 -0.5040 -0.4039
17259SOL     OW53217   1.687   0.288  10.031  0.0830 -0.0616  0.6241
17259SOL    HW153218   1.732   0.280   9.947  1.3408 -0.2386  1.2819
17259SOL    HW253219   1.740   0.236  10.092 -1.1939 -0.5257  1.3925
17260SOL     OW53220   0.181   6.175   6.400  0.1966  0.3905  0.0233
17260SOL    HW153221   0.089   6.174   6.375 -0.7138 -0.8539  2.9688
17260SOL    HW253222   0.182   6.142   6.490  3.5424  0.3427  0.1009
17261SOL     OW53223   4.628   4.481   5.837  0.1231 -0.0177 -0.3555
17261SOL    HW153224   4.632   4.509   5.929 -0.3087  0.4661 -0.4812
17261SOL    HW253225   4.691   4.409   5.832 -0.5443 -0.7060  0.5512
17262SOL     OW53226   1.719   6.006  10.953 -0.0632 -0.5020  0.6392
17262SOL    HW153227   1.632   6.026  10.988 -0.5154 -1.7522  0.2823
17262SOL    HW253228   1.728   6.062  10.876  0.2797  1.0849  1.7876
17263SOL     OW53229   0.541   4.895  11.395  0.2099 -0.4851  0.1329
17263SOL    HW153230   0.569   4.903  11.487  1.9090 -1.0217 -0.3021
17263SOL    HW253231   0.488   4.973  11.380  0.0675 -0.2813  1.5197
17264SOL     OW53232   5.068   1.493   6.466 -0.1733 -0.2368  0.1247
17264SOL    HW153233   5.035   1.419   6.517 -0.1861  0.8210  1.6978
17264SOL    HW253234   5.110   1.550   6.530  1.6462  0.1594 -1.3447
17265SOL     OW53235   4.693   1.350  11.928  0.0689  0.5449  1.0779
17265SOL    HW153236   4.782   1.322  11.907 -0.0101  1.7017 -1.1212
17265SOL    HW253237   4.638   1.308  11.861 -0.4460  3.0504 -0.1912
17266SOL     OW53238   7.889   5.822  10.310 -0.7184  0.0345  0.1729
17266SOL    HW153239   7.806   5.862  10.286 -0.3212 -0.4567 -2.2911
17266SOL    HW253240   7.950   5.851  10.242  0.6125 -1.2550  0.7650
17267SOL     OW53241   1.321   7.471  12.265  0.1054  0.1319 -0.1837
17267SOL    HW153242   1.412   7.486  12.238  0.2119 -0.1199  0.0419
17267SOL    HW253243   1.273   7.545  12.227  0.5191  0.6593  0.3082
17268SOL     OW53244   3.334   5.959   6.458  0.7949 -0.2315  0.1925
17268SOL    HW153245   3.264   5.929   6.515  0.0477  1.3606  0.1561
17268SOL    HW253246   3.412   5.957   6.513  0.8828 -2.5894  0.0647
17269SOL     OW53247   5.974   5.982  11.872 -0.4692  0.6149  0.0498
17269SOL    HW153248   6.035   5.924  11.827 -0.4950  0.4166  0.2668
17269SOL    HW253249   5.982   5.958  11.964  0.0495  1.4427  0.2352
17270SOL     OW53250   5.490   7.028   1.583 -0.4175  0.0476  0.1429
17270SOL    HW153251   5.423   7.082   1.624 -1.5328  0.4315 -2.0252
17270SOL    HW253252   5.448   6.944   1.567  0.0212 -0.1389 -0.0602
17271SOL     OW53253   0.392   3.036  11.739 -0.0189  0.9291  0.1366
17271SOL    HW153254   0.349   3.101  11.795  1.3191  1.6812  0.3513
17271SOL    HW253255   0.442   2.982  11.801  1.1806  1.5375 -0.2770
17272SOL     OW53256   1.858   1.203  11.837  0.4817 -0.0054 -0.1238
17272SOL    HW153257   1.899   1.120  11.860  0.0923 -0.3095 -0.5152
17272SOL    HW253258   1.897   1.225  11.752  0.6164  0.2382 -0.0001
17273SOL     OW53259   2.077   1.645   4.179  0.3488 -0.3057 -0.8076
17273SOL    HW153260   2.089   1.735   4.148  2.6458 -0.3825 -0.3213
17273SOL    HW253261   2.050   1.655   4.271  3.0782 -0.0365  0.0437
17274SOL     OW53262   3.970   2.301  11.392  0.2690  0.4238 -0.4472
17274SOL    HW153263   4.025   2.376  11.414  0.4143  0.1678  0.0807
17274SOL    HW253264   3.881   2.330  11.408  0.4637 -0.5801  3.1938
17275SOL     OW53265   6.624   4.557   0.637 -0.3048  0.1221 -0.1668
17275SOL    HW153266   6.565   4.571   0.563 -0.3939 -0.5971 -0.2332
17275SOL    HW253267   6.567   4.561   0.714 -0.3859 -0.2058 -0.2079
17276SOL     OW53268   1.628   2.504   4.664 -0.2152 -0.2029  0.2419
17276SOL    HW153269   1.677   2.448   4.724 -1.0832 -1.2752 -0.0138
17276SOL    HW253270   1.688   2.518   4.590  0.6854  0.7477  1.1063
17277SOL     OW53271   2.334   4.776   1.274  0.3741  0.0337  0.0362
17277SOL    HW153272   2.391   4.781   1.350 -0.0041  1.6761  0.2525
17277SOL    HW253273   2.307   4.684   1.270  0.7925 -0.1870  1.5904
17278SOL     OW53274   6.633   2.471   6.191 -0.4200  0.7594  0.4032
17278SOL    HW153275   6.553   2.493   6.239  0.1012 -0.4197  1.8525
17278SOL    HW253276   6.703   2.474   6.256  0.4129 -0.2820 -0.4025
17279SOL     OW53277   4.781   7.231  10.136  0.1956 -0.1871 -0.0380
17279SOL    HW153278   4.809   7.280  10.214 -0.7583 -0.4972  0.5115
17279SOL    HW253279   4.863   7.204  10.095  0.7157 -0.1253  0.9296
17280SOL     OW53280   4.581   7.508   1.862 -0.4867 -0.1632  0.1422
17280SOL    HW153281   4.514   7.494   1.928  0.3739 -0.6813  0.9242
17280SOL    HW253282   4.534   7.544   1.787 -1.3549  1.3711  1.3631
17281SOL     OW53283   6.136   1.765   1.988 -0.8973  0.0133  0.2186
17281SOL    HW153284   6.178   1.772   2.074 -0.2429 -0.4719 -0.0566
17281SOL    HW253285   6.050   1.726   2.006 -0.7004 -0.2320  0.6301
17282SOL     OW53286   5.415   2.981   0.537 -0.1706 -0.0937 -0.1755
17282SOL    HW153287   5.425   3.076   0.541 -0.1294 -0.1153  0.4480
17282SOL    HW253288   5.505   2.948   0.532 -0.2037 -0.0852 -0.8071
17283SOL     OW53289   0.796   7.416   6.268  0.1486 -0.1978  0.4662
17283SOL    HW153290   0.870   7.361   6.242  2.0055  2.6109 -0.6158
17283SOL    HW253291   0.777   7.469   6.191 -2.0728  0.1960  1.2219
17284SOL     OW53292   5.961   7.898   4.154  0.4988 -0.1279  0.2350
17284SOL    HW153293   6.034   7.859   4.201  0.2837  0.6566  1.2541
17284SOL    HW253294   5.888   7.898   4.216  1.0982  3.9790  1.2449
17285SOL     OW53295   6.003   3.112   0.663 -0.2245 -0.1599  0.0435
17285SOL    HW153296   6.095   3.136   0.658 -0.9221  2.5373 -1.7552
17285SOL    HW253297   5.999   3.047   0.733  2.8540  0.4311  0.9056
17286SOL     OW53298   0.540   5.363   2.560 -0.1930 -0.1290  0.4622
17286SOL    HW153299   0.518   5.270   2.558 -3.7548  0.4968  2.7074
17286SOL    HW253300   0.629   5.365   2.598  0.5678 -2.5856 -0.9373
17287SOL     OW53301   0.160   0.629   8.436  0.2223 -0.0225 -0.0804
17287SOL    HW153302   0.080   0.595   8.475  0.3804 -0.0832  0.1905
17287SOL    HW253303   0.137   0.645   8.344 -0.0423 -0.2282 -0.0499
17288SOL     OW53304   6.180   4.448   5.638  0.5538  0.0754  0.0662
17288SOL    HW153305   6.215   4.534   5.664 -1.2373  1.2020 -1.0503
17288SOL    HW253306   6.098   4.468   5.593 -0.7865 -2.3545  1.2596
17289SOL     OW53307   2.593   1.761   4.656  0.0781  0.2003  0.2405
17289SOL    HW153308   2.522   1.807   4.699  0.2126 -0.0210  0.7104
17289SOL    HW253309   2.600   1.678   4.703  0.3078  0.0038 -0.1305
17290SOL     OW53310   2.422   2.618  11.654 -0.0934  0.3431 -0.4714
17290SOL    HW153311   2.458   2.632  11.741 -0.4794  1.5608 -0.4887
17290SOL    HW253312   2.486   2.562  11.610  1.2081  1.5140 -0.1259
17291SOL     OW53313   5.887   0.731   2.024  0.0517  0.2184 -0.0263
17291SOL    HW153314   5.827   0.773   1.962  0.0585 -1.7770 -1.5037
17291SOL    HW253315   5.930   0.663   1.972  2.8663  0.9049  1.2517
17292SOL     OW53316   6.981   3.160   1.971 -0.6768 -0.4642 -0.6800
17292SOL    HW153317   7.040   3.151   2.045 -1.4628  1.0546  0.1698
17292SOL    HW253318   6.907   3.103   1.991 -0.6386 -0.4703 -0.5593
17293SOL     OW53319   1.189   3.712   4.244 -0.3912  0.3508  0.5042
17293SOL    HW153320   1.102   3.747   4.260 -0.5081 -0.8457  2.9488
17293SOL    HW253321   1.176   3.645   4.178 -0.8244  1.9223 -1.1060
17294SOL     OW53322   5.672   5.895   1.941 -0.0330 -0.1679 -0.0476
17294SOL    HW153323   5.600   5.951   1.910  1.5190  1.2490 -1.2418
17294SOL    HW253324   5.750   5.929   1.898  1.3940 -1.6616  1.2122
17295SOL     OW53325   2.038   6.596   4.765  0.3839 -0.1153  0.1694
17295SOL    HW153326   2.120   6.626   4.805  0.6986 -0.6052 -0.1024
17295SOL    HW253327   2.053   6.503   4.746 -0.1561 -0.1549 -0.0808
17296SOL     OW53328   0.765   0.054   1.095 -0.1526 -0.0217  0.2251
17296SOL    HW153329   0.859   0.051   1.078 -0.1755 -1.3113  0.1813
17296SOL    HW253330   0.749   0.142   1.129  1.2039 -0.0322  0.9758
17297SOL     OW53331   6.529   4.081   3.977 -0.8441  0.8841  0.0577
17297SOL    HW153332   6.598   4.146   3.990  0.0220 -0.4054  2.6379
17297SOL    HW253333   6.491   4.069   4.063 -0.8013 -2.1617 -0.2494
17298SOL     OW53334   4.188   0.361   0.922  0.3328  0.0900  0.0970
17298SOL    HW153335   4.261   0.305   0.897 -0.4343 -0.2794 -1.4742
17298SOL    HW253336   4.216   0.450   0.898  1.0549  0.2366  1.4200
17299SOL     OW53337   5.867   2.882   3.102 -0.2776  0.2220 -0.4453
17299SOL    HW153338   5.885   2.805   3.156  0.4829 -0.1021 -1.1349
17299SOL    HW253339   5.904   2.955   3.151 -1.7474  0.2963  0.6203
17300SOL     OW53340   5.740   4.898  12.463  0.0342  0.5422 -0.3091
17300SOL    HW153341   5.737   4.804  12.484 -0.8886  0.1432 -1.9651
17300SOL    HW253342   5.744   4.900  12.367  0.3931  2.2061 -0.2802
17301SOL     OW53343   7.333   4.384   0.587  0.3125 -0.2701 -0.0684
17301SOL    HW153344   7.328   4.417   0.676 -1.6248  0.5905 -0.4308
17301SOL    HW253345   7.422   4.352   0.577  0.2959 -1.3245  2.4787
17302SOL     OW53346   5.644   1.947   0.239  0.5982  0.0400  0.7600
17302SOL    HW153347   5.660   2.020   0.179  1.8637  0.4741  1.5795
17302SOL    HW253348   5.652   1.869   0.184 -0.4020  0.4897 -0.0538
17303SOL     OW53349   3.433   7.964  11.859  0.2518 -0.1474 -0.1437
17303SOL    HW153350   3.486   8.039  11.886 -1.2610  1.5970 -1.8092
17303SOL    HW253351   3.480   7.926  11.786 -0.2247  0.7611 -0.9408
17304SOL     OW53352   6.797   5.653   2.143 -0.3046 -0.0187 -0.0636
17304SOL    HW153353   6.822   5.561   2.151  0.0820  0.0950  0.0961
17304SOL    HW253354   6.869   5.693   2.094  0.7196  0.6693  1.8773
17305SOL     OW53355   3.315   6.122   3.986 -0.0436 -0.2495  0.2144
17305SOL    HW153356   3.388   6.060   3.996  0.5655  0.3169 -0.6011
17305SOL    HW253357   3.314   6.143   3.893 -2.1734 -1.3385 -0.0710
17306SOL     OW53358   2.929   7.604   0.781 -0.4862  0.0407 -0.0216
17306SOL    HW153359   3.020   7.608   0.750  0.7699 -1.1923  3.0571
17306SOL    HW253360   2.908   7.695   0.805  0.1159  0.2634 -0.3091
17307SOL     OW53361   2.388   7.175   0.451  0.0194  0.2344 -0.1044
17307SOL    HW153362   2.407   7.130   0.534  1.3821 -0.9509 -1.0171
17307SOL    HW253363   2.400   7.108   0.384 -1.5325  1.0442 -1.2560
17308SOL     OW53364   7.127   6.683   0.295  0.5448 -0.0409  0.2378
17308SOL    HW153365   7.201   6.623   0.289  0.3962 -0.0971 -1.6925
17308SOL    HW253366   7.107   6.705   0.204 -0.7741  1.2557  0.8043
17309SOL     OW53367   7.080   6.078  10.715 -0.5561 -0.1429  0.1536
17309SOL    HW153368   7.014   6.093  10.782 -0.4794  0.4640  0.1050
17309SOL    HW253369   7.073   6.154  10.657 -1.0274 -0.9552 -0.8755
17310SOL     OW53370   0.435   4.314   9.361  0.3239  0.4462  0.4124
17310SOL    HW153371   0.519   4.349   9.390  0.0769 -0.1932  2.0226
17310SOL    HW253372   0.450   4.221   9.349 -0.1650  0.3059  0.8302
17311SOL     OW53373   7.055   0.560   6.557  0.1321 -0.1682  0.2529
17311SOL    HW153374   6.983   0.507   6.592  0.7122 -1.5571 -0.6030
17311SOL    HW253375   7.014   0.617   6.492 -0.3235 -0.3053  0.4169
17312SOL     OW53376   2.185   5.051   9.720  0.5523 -0.1635  0.6055
17312SOL    HW153377   2.149   4.962   9.717 -0.7864  0.3703 -0.2097
17312SOL    HW253378   2.219   5.065   9.631 -0.4249  0.5979  0.3470
17313SOL     OW53379   0.121   7.650   2.610  0.0076 -0.5166 -0.1364
17313SOL    HW153380   0.102   7.580   2.673 -0.4809 -1.6221 -1.4697
17313SOL    HW253381   0.208   7.629   2.577 -0.3674 -0.8385 -0.9521
17314SOL     OW53382   6.262   4.951  11.141  0.5635 -0.1184 -0.1957
17314SOL    HW153383   6.333   4.961  11.204  2.3485 -0.2888 -2.0836
17314SOL    HW253384   6.260   4.857  11.122 -0.1507 -0.1103 -0.2021
17315SOL     OW53385   2.050   6.940   3.556 -0.5499  0.2621  0.1582
17315SOL    HW153386   2.144   6.933   3.538 -0.6519 -1.7048  0.1432
17315SOL    HW253387   2.041   6.918   3.648 -0.7970  2.9679  0.8665
17316SOL     OW53388   6.790   5.235   9.434  0.4628  0.3570  0.2526
17316SOL    HW153389   6.720   5.300   9.441  0.5766  0.4230  0.7698
17316SOL    HW253390   6.854   5.260   9.501  0.1557 -0.7094  0.9734
17317SOL     OW53391   6.535   7.942   2.477  0.2847 -0.5061 -0.1717
17317SOL    HW153392   6.623   7.970   2.452  0.0452 -0.0145 -0.4891
17317SOL    HW253393   6.544   7.849   2.496  1.0533 -0.2879  0.6529
17318SOL     OW53394   4.561   0.126   4.089  0.4691 -0.1045 -0.3652
17318SOL    HW153395   4.466   0.113   4.089  0.4314 -0.3569  2.3888
17318SOL    HW253396   4.594   0.064   4.024 -1.1722 -0.6966 -0.6698
17319SOL     OW53397   0.881   1.367   3.851  0.5653 -0.0217 -0.1207
17319SOL    HW153398   0.879   1.272   3.838 -2.0928  0.1252 -1.4466
17319SOL    HW253399   0.847   1.380   3.939 -2.5566 -0.2673 -1.1713
17320SOL     OW53400   3.438   1.275  11.280  0.0523  0.0872  0.1091
17320SOL    HW153401   3.407   1.299  11.193  0.3088 -0.7254 -0.2167
17320SOL    HW253402   3.430   1.355  11.331 -0.6544  0.4243 -0.5034
17321SOL     OW53403   5.398   2.284   5.998 -0.5468  0.6597 -0.0746
17321SOL    HW153404   5.480   2.264   5.951  0.9933  0.2121  2.6038
17321SOL    HW253405   5.334   2.300   5.928  1.9287  1.6085 -2.3068
17322SOL     OW53406   7.591   4.926   5.258  0.1492 -0.0078  0.0579
17322SOL    HW153407   7.579   4.971   5.341 -0.6003 -0.0683 -0.0097
17322SOL    HW253408   7.536   4.974   5.196 -0.3292 -0.7447 -0.1058
17323SOL     OW53409   3.847   6.195   7.023  0.4798 -0.3864  0.4267
17323SOL    HW153410   3.932   6.165   7.055  0.7422 -0.3369 -0.2032
17323SOL    HW253411   3.855   6.290   7.019  0.1985 -0.3404  0.9003
17324SOL     OW53412   3.635   3.308   2.355 -0.4527  0.2142  0.0863
17324SOL    HW153413   3.574   3.366   2.309 -0.7108 -1.3504 -1.6822
17324SOL    HW253414   3.702   3.288   2.289  0.8651  0.2980  1.3704
17325SOL     OW53415   2.321   2.993   5.580 -0.0721 -0.1575 -0.0510
17325SOL    HW153416   2.255   3.063   5.586 -1.3227 -1.0673 -2.2659
17325SOL    HW253417   2.320   2.952   5.667 -4.2757 -1.7090 -0.6361
17326SOL     OW53418   0.000   1.549  10.466 -0.2412  0.4779 -0.0312
17326SOL    HW153419   0.074   1.500  10.429 -1.5408 -1.4218 -0.2570
17326SOL    HW253420   0.025   1.641  10.457  1.7520 -0.0903 -0.7899
17327SOL     OW53421   1.264   3.566   2.147  0.4927  0.4139 -0.2552
17327SOL    HW153422   1.348   3.545   2.188  0.8184  2.5445  0.3111
17327SOL    HW253423   1.237   3.648   2.189 -1.8330 -0.1618 -0.4946
17328SOL     OW53424   5.571   0.342   8.221  0.5147  0.8648  0.3721
17328SOL    HW153425   5.620   0.263   8.202  2.5846  1.2616  3.4389
17328SOL    HW253426   5.620   0.412   8.176  0.1311  0.7344 -0.2614
17329SOL     OW53427   5.084   1.861   3.968  0.3636 -0.0120 -0.2143
17329SOL    HW153428   4.991   1.838   3.966 -0.0120  1.4144 -1.2120
17329SOL    HW253429   5.127   1.792   3.917 -0.6228  0.9708 -2.5533
17330SOL     OW53430   4.697   5.301   0.156  0.0877 -0.2855 -0.1409
17330SOL    HW153431   4.790   5.312   0.175  0.1972 -0.6971 -0.4248
17330SOL    HW253432   4.652   5.328   0.236  0.3344  1.9264 -0.6899
17331SOL     OW53433   6.161   3.739  10.257 -0.0393 -0.0820 -0.5595
17331SOL    HW153434   6.078   3.764  10.298  0.0011  0.8472 -1.0091
17331SOL    HW253435   6.137   3.717  10.167 -0.2423 -2.8159  0.0741
17332SOL     OW53436   7.973   3.322   0.906  0.2423  0.1747 -0.2963
17332SOL    HW153437   8.044   3.382   0.887  0.2877  0.4177  0.5889
17332SOL    HW253438   7.896   3.378   0.918  0.1521  0.0084 -0.0844
17333SOL     OW53439   6.226   4.268  11.847  0.1560 -0.3040  0.6079
17333SOL    HW153440   6.257   4.350  11.886 -0.3791 -0.5243  1.5200
17333SOL    HW253441   6.140   4.254  11.885 -0.1689 -0.8017 -0.2805
17334SOL     OW53442   7.010   4.057   6.612 -0.2969  0.1298 -0.2590
17334SOL    HW153443   6.917   4.074   6.596 -0.4094  0.2341  0.4719
17334SOL    HW253444   7.049   4.145   6.619 -0.3274  0.0948  0.4297
17335SOL     OW53445   5.328   3.705   8.369  0.6093  0.1542 -0.4596
17335SOL    HW153446   5.384   3.629   8.351  1.2275  0.8056 -1.4092
17335SOL    HW253447   5.380   3.760   8.429  0.8576  0.5959 -1.0689
17336SOL     OW53448   5.062   1.081   0.022 -0.5280  0.3691  0.4818
17336SOL    HW153449   5.076   1.166   0.066 -1.4957  0.8825 -0.1673
17336SOL    HW253450   4.995   1.099  -0.044  0.2411 -0.5975 -0.5992
17337SOL     OW53451   1.801   2.169   1.549  0.0318  0.0448 -0.5755
17337SOL    HW153452   1.738   2.137   1.485 -2.0278  2.5107  0.0665
17337SOL    HW253453   1.850   2.091   1.576 -2.1002 -1.8139 -1.7928
17338SOL     OW53454   7.506   7.634  10.239 -0.6385  0.2111 -0.6620
17338SOL    HW153455   7.451   7.701  10.199 -1.5016 -0.3855 -0.5095
17338SOL    HW253456   7.507   7.656  10.332 -0.7111  0.1631 -0.6495
17339SOL     OW53457   4.691   3.789   8.766 -0.4322  0.3015  0.3332
17339SOL    HW153458   4.764   3.738   8.801 -1.2037 -0.4556  0.8658
17339SOL    HW253459   4.626   3.724   8.741 -0.8197  0.9571 -0.3935
17340SOL     OW53460   1.908   3.259   2.212  0.5122 -0.0895 -0.4373
17340SOL    HW153461   1.948   3.252   2.125  0.5165 -0.7059 -0.3912
17340SOL    HW253462   1.821   3.220   2.201  0.4229  0.0512 -0.2254
17341SOL     OW53463   4.061   2.998   5.128  0.4092 -0.0998  0.0900
17341SOL    HW153464   4.023   2.991   5.040  0.0247 -1.9807  0.3712
17341SOL    HW253465   3.988   3.027   5.183 -0.4345 -2.6372  0.4293
17342SOL     OW53466   6.031   0.728   7.788 -0.7424 -0.3377 -0.0030
17342SOL    HW153467   6.040   0.667   7.715 -0.6373  0.6451 -0.8412
17342SOL    HW253468   5.939   0.723   7.813 -1.0373  0.1561 -0.9670
17343SOL     OW53469   7.012   1.458   4.822 -0.2004 -0.0598 -0.0693
17343SOL    HW153470   7.044   1.521   4.887  0.9478 -1.9217  1.2831
17343SOL    HW253471   6.918   1.476   4.815  0.1240  1.8751  0.1395
17344SOL     OW53472   5.711   4.657   7.264 -0.0928  0.1094  0.3006
17344SOL    HW153473   5.722   4.569   7.299 -1.9353 -0.5188 -0.5704
17344SOL    HW253474   5.628   4.688   7.300  0.7057  1.6671  0.9015
17345SOL     OW53475   0.214   0.022   5.101  0.2362  0.4455  0.2153
17345SOL    HW153476   0.270   0.084   5.054  1.5112  0.6575  1.9207
17345SOL    HW253477   0.140   0.008   5.043  1.7132  0.6907 -1.8413
17346SOL     OW53478   5.195   5.730   4.895  0.0198  0.1498  0.1633
17346SOL    HW153479   5.119   5.687   4.935 -0.3771  0.3693 -0.3350
17346SOL    HW253480   5.199   5.693   4.806  0.9101 -0.3622  0.4108
17347SOL     OW53481   4.055   2.726   8.410 -0.2021  0.2780  0.1233
17347SOL    HW153482   4.041   2.819   8.395 -2.1488  0.0362  0.1773
17347SOL    HW253483   4.061   2.688   8.322 -1.9267  0.1581  0.0177
17348SOL     OW53484   0.780   2.232   7.668  0.9767 -0.2016 -0.3509
17348SOL    HW153485   0.694   2.249   7.629  1.0883 -0.6288 -0.7984
17348SOL    HW253486   0.779   2.138   7.688  0.8169  0.0675  0.9498
17349SOL     OW53487   6.260   6.466  11.787 -0.6991 -0.2849  0.3826
17349SOL    HW153488   6.224   6.498  11.870 -0.7392  0.6838  0.0050
17349SOL    HW253489   6.325   6.532  11.762  0.0712 -1.1018  0.1567
17350SOL     OW53490   6.189   6.983   6.989  0.4498  0.3529  0.1361
17350SOL    HW153491   6.114   7.002   7.046  0.1768 -1.8026  0.5670
17350SOL    HW253492   6.254   6.942   7.047  1.2899  0.6260 -0.5776
17351SOL     OW53493   1.747   3.605   9.718  0.1987 -0.0320  0.0395
17351SOL    HW153494   1.670   3.599   9.662  0.1408 -0.8007  0.1944
17351SOL    HW253495   1.816   3.638   9.661 -0.2868  0.8515 -0.0550
17352SOL     OW53496   4.262   2.827   3.181  0.0174  0.2381 -0.3122
17352SOL    HW153497   4.178   2.839   3.135  1.2018  0.2765 -2.6227
17352SOL    HW253498   4.322   2.887   3.137  1.0419  1.1038  2.0914
17353SOL     OW53499   1.884   1.451  11.600  0.0450  0.0738 -0.4115
17353SOL    HW153500   1.902   1.500  11.520 -0.2198  2.4223  0.8419
17353SOL    HW253501   1.963   1.461  11.653 -0.7781  1.0560  0.7168
17354SOL     OW53502   0.171   4.568   1.740 -0.2469 -0.0210  0.2785
17354SOL    HW153503   0.225   4.589   1.664 -1.0101 -0.5178 -0.4253
17354SOL    HW253504   0.133   4.652   1.767 -1.4342 -0.0867 -1.0600
17355SOL     OW53505   5.506   1.705   7.625  0.1408  0.7337 -0.0948
17355SOL    HW153506   5.457   1.773   7.578 -0.8686 -0.8965 -1.5288
17355SOL    HW253507   5.551   1.752   7.695 -0.5710  2.8533 -0.9746
17356SOL     OW53508   0.556   0.267   2.952  0.3245 -0.0632 -0.3189
17356SOL    HW153509   0.573   0.330   2.881  1.5631 -1.3524 -1.2346
17356SOL    HW253510   0.506   0.317   3.016  0.7544  1.6968 -1.2595
17357SOL     OW53511   2.365   1.306   8.137 -0.6313  0.3061  0.7724
17357SOL    HW153512   2.366   1.310   8.233  1.4630  0.4848  0.7923
17357SOL    HW253513   2.321   1.224   8.117  0.5110 -0.6490  1.9779
17358SOL     OW53514   5.817   5.010   7.440  0.0872 -0.4354 -0.3262
17358SOL    HW153515   5.889   5.016   7.503 -0.2564  1.2645 -0.0477
17358SOL    HW253516   5.834   5.081   7.378 -1.9243  0.7626  0.3990
17359SOL     OW53517   7.763   1.334   2.378  0.3967  0.2014 -0.0822
17359SOL    HW153518   7.787   1.425   2.396 -2.0453  0.4527  2.6360
17359SOL    HW253519   7.679   1.340   2.332  1.0350 -0.7089 -1.4271
17360SOL     OW53520   4.181   6.235   6.377  0.5929 -0.2346  0.1585
17360SOL    HW153521   4.188   6.322   6.415  0.6685  0.0614 -0.5262
17360SOL    HW253522   4.136   6.183   6.443  0.8690  0.2305  0.7165
17361SOL     OW53523   5.327   1.266   9.957  0.3779  0.1554  0.5309
17361SOL    HW153524   5.355   1.245  10.046  0.1155 -0.9149  0.3684
17361SOL    HW253525   5.387   1.218   9.900  0.0631  0.2179  0.1368
17362SOL     OW53526   3.983   6.463   8.746 -0.7219 -0.0446  0.0310
17362SOL    HW153527   3.948   6.540   8.701  0.8192  1.4750  1.2993
17362SOL    HW253528   3.933   6.390   8.710 -2.0963  1.4993 -1.3920
17363SOL     OW53529   5.419   3.082   0.973  0.1879 -0.7438 -0.1619
17363SOL    HW153530   5.407   3.010   0.911  0.9561 -1.6770  0.7379
17363SOL    HW253531   5.509   3.111   0.958  0.0707 -0.3579 -0.1144
17364SOL     OW53532   3.889   7.486  11.340 -0.2983 -0.0302 -0.5382
17364SOL    HW153533   3.969   7.469  11.290 -0.8051  0.0992 -1.4205
17364SOL    HW253534   3.863   7.401  11.374 -0.3950 -0.2656 -1.1958
17365SOL     OW53535   0.054   6.733  10.811 -0.3757 -0.3127  0.6766
17365SOL    HW153536   0.115   6.700  10.877  0.6619  0.7552  0.2791
17365SOL    HW253537  -0.028   6.688  10.830  0.0452 -0.4414  2.3468
17366SOL     OW53538   0.347   5.975  12.066  0.3089  0.1177 -0.5373
17366SOL    HW153539   0.288   5.940  12.000 -0.2768 -0.5842  0.3295
17366SOL    HW253540   0.430   5.928  12.053  0.2422  0.0935 -0.8646
17367SOL     OW53541   6.035   1.211   2.161 -0.2950 -0.1249  0.0336
17367SOL    HW153542   6.067   1.225   2.250 -1.4902  0.6916  0.3584
17367SOL    HW253543   5.974   1.283   2.146 -2.2894 -1.8039 -0.3843
17368SOL     OW53544   1.491   5.831   8.107 -0.2271  0.4756 -0.1076
17368SOL    HW153545   1.460   5.747   8.074 -0.3298  0.5923 -0.3028
17368SOL    HW253546   1.440   5.846   8.186 -0.8580  0.7968 -0.5712
17369SOL     OW53547   4.228   4.112  10.399  0.2712 -0.3381  0.0220
17369SOL    HW153548   4.237   4.173  10.473 -0.2082 -1.4720  1.0588
17369SOL    HW253549   4.146   4.137  10.357  0.4231  0.1591  0.0125
17370SOL     OW53550   3.627   5.135  11.069  0.5769 -0.6901  0.1737
17370SOL    HW153551   3.688   5.199  11.032  1.3387 -1.8492 -0.6185
17370SOL    HW253552   3.547   5.144  11.016 -0.3735  1.4945  1.8054
17371SOL     OW53553   2.533   3.364   4.009 -0.1082  0.2685 -0.1971
17371SOL    HW153554   2.625   3.351   4.031 -0.2758 -0.0687  0.3429
17371SOL    HW253555   2.506   3.282   3.967 -0.6174 -0.3712  1.2910
17372SOL     OW53556   4.724   4.323   1.321 -0.0669  0.0545  0.0528
17372SOL    HW153557   4.669   4.259   1.276 -2.2464  2.2783 -0.6861
17372SOL    HW253558   4.672   4.348   1.399  0.2442  1.5737 -0.1881
17373SOL     OW53559   4.627   2.509  12.034 -0.4672  0.4972 -0.5311
17373SOL    HW153560   4.693   2.471  12.092  0.3120  0.8480 -1.1595
17373SOL    HW253561   4.588   2.434  11.990 -0.8156  0.2556  0.1743
17374SOL     OW53562   0.386   2.262  10.572 -0.2021 -0.1522  0.0907
17374SOL    HW153563   0.324   2.251  10.644  0.1724  0.8158  0.5770
17374SOL    HW253564   0.335   2.244  10.493 -1.0266  0.3446  0.5026
17375SOL     OW53565   1.403   2.835   3.667 -0.2679 -0.4145  0.1940
17375SOL    HW153566   1.460   2.883   3.727 -1.0588  0.1425  0.5088
17375SOL    HW253567   1.431   2.864   3.580  0.0252 -0.2567  0.3394
17376SOL     OW53568   4.966   3.566   7.897  0.0428 -0.2167 -0.2167
17376SOL    HW153569   4.909   3.557   7.974  0.8315 -0.4527  0.3499
17376SOL    HW253570   4.964   3.660   7.877 -0.0117 -0.1239  0.2168
17377SOL     OW53571   2.072   1.941  12.026 -0.2035 -0.2042 -0.2080
17377SOL    HW153572   2.002   1.986  12.073  0.5024 -1.4612  2.1776
17377SOL    HW253573   2.026   1.890  11.959 -1.3594  0.6890 -0.1301
17378SOL     OW53574   5.565   7.788   6.886  0.2054  0.0036  1.0199
17378SOL    HW153575   5.531   7.751   6.967 -0.7825 -1.2388  0.0847
17378SOL    HW253576   5.658   7.763   6.886  0.3329  0.4364  1.9754
17379SOL     OW53577   1.349   6.980   0.845 -0.8918  0.4054  0.4043
17379SOL    HW153578   1.380   6.940   0.764 -0.9133  0.8000  0.1979
17379SOL    HW253579   1.288   6.916   0.882 -0.5643  0.0416  0.3214
17380SOL     OW53580   7.374   5.611   4.725  0.0001 -0.6725  0.2856
17380SOL    HW153581   7.398   5.704   4.725  0.5734 -0.8175 -0.1879
17380SOL    HW253582   7.280   5.611   4.746 -0.6514  0.2101 -2.2869
17381SOL     OW53583   7.682   0.354   9.242 -0.0546 -0.1786  0.0587
17381SOL    HW153584   7.642   0.274   9.275  0.1611 -0.6011 -0.6725
17381SOL    HW253585   7.748   0.377   9.307  1.7864 -2.1322 -0.9861
17382SOL     OW53586   6.247   4.093   8.123 -0.1593  0.1722  0.5004
17382SOL    HW153587   6.225   4.066   8.034 -1.0230  1.7569  0.1954
17382SOL    HW253588   6.245   4.012   8.174 -1.5018 -0.5143 -0.5660
17383SOL     OW53589   5.003   3.237   7.898  0.5918 -0.1349  0.3203
17383SOL    HW153590   5.082   3.204   7.855  0.5131 -0.6900  0.5912
17383SOL    HW253591   4.965   3.299   7.835  0.7107 -0.6049 -0.2183
17384SOL     OW53592   7.510   4.871   8.727 -0.8545  0.2208 -0.4074
17384SOL    HW153593   7.453   4.838   8.657 -1.1437 -0.7761  0.2742
17384SOL    HW253594   7.463   4.948   8.762 -1.5795 -0.3278 -0.1490
17385SOL     OW53595   7.017   5.290   0.506 -0.2709 -0.1463 -0.0583
17385SOL    HW153596   7.002   5.196   0.491  1.5317 -0.6159  0.7396
17385SOL    HW253597   7.075   5.316   0.434 -0.5011  0.2901 -0.0882
17386SOL     OW53598   6.158   6.855   2.978  0.5074 -0.0174  0.1833
17386SOL    HW153599   6.079   6.827   3.025  0.4697 -0.8703 -0.3654
17386SOL    HW253600   6.129   6.863   2.887  1.7881 -3.8423 -0.7435
17387SOL     OW53601   1.738   7.758  10.398 -0.2058 -0.0685 -0.8220
17387SOL    HW153602   1.729   7.668  10.366  1.0825 -0.0927 -1.1831
17387SOL    HW253603   1.690   7.759  10.480  1.9928 -1.8852  0.6299
17388SOL     OW53604   3.222   2.216   0.828  0.6185  0.0245  0.1697
17388SOL    HW153605   3.312   2.224   0.795  0.4733  0.6752 -0.0899
17388SOL    HW253606   3.218   2.278   0.901  1.0988 -1.8070  1.8208
17389SOL     OW53607   0.174   3.129   3.810 -0.2151  0.6225 -0.0517
17389SOL    HW153608   0.102   3.172   3.764 -0.4059 -1.1591 -1.5350
17389SOL    HW253609   0.132   3.083   3.883 -0.6449 -0.5140 -0.9834
17390SOL     OW53610   3.636   7.790   1.492  0.3524 -0.0818 -0.0738
17390SOL    HW153611   3.540   7.787   1.504 -0.0375  2.7349 -1.6743
17390SOL    HW253612   3.648   7.808   1.399  2.3618  1.1562  0.3675
17391SOL     OW53613   6.018   0.114   5.849 -0.0545  0.4239 -0.3097
17391SOL    HW153614   5.980   0.093   5.764 -0.2358  1.3250 -0.4644
17391SOL    HW253615   6.111   0.126   5.832  0.1991 -1.0220 -0.0697
17392SOL     OW53616   1.226   4.046  12.301 -0.1323 -0.6580 -0.3320
17392SOL    HW153617   1.172   4.030  12.223  0.2174 -1.3281 -0.4426
17392SOL    HW253618   1.162   4.065  12.370 -0.7839 -3.9704  0.1787
17393SOL     OW53619   4.672   7.563   9.586  0.1039  0.1745 -0.2611
17393SOL    HW153620   4.674   7.566   9.682 -1.3125  0.4547 -0.2191
17393SOL    HW253621   4.587   7.525   9.565  0.6077 -0.3601 -1.4124
17394SOL     OW53622   7.304   0.575   2.233  0.5100 -0.4591  0.4730
17394SOL    HW153623   7.320   0.652   2.180  1.2817  1.5144  3.3263
17394SOL    HW253624   7.219   0.591   2.274  1.4539 -0.1946  2.4501
17395SOL     OW53625   1.573   3.927   5.260 -0.1064  0.4206 -0.7606
17395SOL    HW153626   1.650   3.893   5.216 -0.3860 -2.0965  0.5387
17395SOL    HW253627   1.601   3.941   5.351 -1.5684 -2.5289  0.2688
17396SOL     OW53628   6.969   2.786   3.614  0.5821  0.5527  0.0629
17396SOL    HW153629   7.018   2.789   3.532  0.5740 -0.1273  0.0271
17396SOL    HW253630   7.024   2.833   3.677  1.5528 -0.6563  0.1556
17397SOL     OW53631   4.832   2.647  10.983  0.0726 -0.3127  0.5334
17397SOL    HW153632   4.844   2.555  11.009 -0.4142 -0.3505  0.6382
17397SOL    HW253633   4.803   2.690  11.064 -3.4095 -0.8081 -0.3216
17398SOL     OW53634   4.900   3.515   6.777 -0.2518  0.2104  0.4943
17398SOL    HW153635   4.926   3.607   6.769 -0.0981  0.1668  0.4828
17398SOL    HW253636   4.884   3.487   6.686  0.7385 -0.0681  0.3948
17399SOL     OW53637   0.621   7.832   0.725 -0.4655 -0.1369  0.1130
17399SOL    HW153638   0.645   7.924   0.723 -0.6154 -0.1053 -0.6399
17399SOL    HW253639   0.676   7.791   0.658  0.3532 -0.7917  1.1632
17400SOL     OW53640   1.055   0.553  12.276  0.3012  0.2870 -0.3230
17400SOL    HW153641   1.145   0.522  12.269  1.2798  2.8063 -0.1565
17400SOL    HW253642   1.054   0.634  12.225 -1.5595  0.9219  0.6372
17401SOL     OW53643   7.317   2.734   2.332  0.1324 -0.5307 -0.2356
17401SOL    HW153644   7.225   2.756   2.346 -0.2070 -1.7931 -0.3553
17401SOL    HW253645   7.353   2.811   2.286 -1.1743 -0.5346 -1.3455
17402SOL     OW53646   2.030   7.955   5.417  0.1480 -1.2803  0.3753
17402SOL    HW153647   1.938   7.984   5.419  0.8762  1.4108 -0.3316
17402SOL    HW253648   2.049   7.931   5.508 -1.3856 -2.4366  0.4289
17403SOL     OW53649   0.930   3.273   3.222 -0.0190 -0.2824  0.3602
17403SOL    HW153650   0.950   3.274   3.128 -0.1936 -1.2672  0.3014
17403SOL    HW253651   0.839   3.300   3.227 -1.4824 -4.4540 -0.2037
17404SOL     OW53652   5.111   5.488   3.048  0.1579  0.9271  0.0279
17404SOL    HW153653   5.179   5.524   3.104  1.5949  0.7946 -1.5769
17404SOL    HW253654   5.080   5.563   2.997 -1.8366  1.2583  1.5602
17405SOL     OW53655   0.836   0.276  10.690  0.0714 -0.0641 -0.3272
17405SOL    HW153656   0.919   0.235  10.664  1.0358  1.4601  0.2072
17405SOL    HW253657   0.817   0.239  10.776  1.6060  1.4199  0.7339
17406SOL     OW53658   1.924   4.615   3.484  0.0116  0.1716  0.4060
17406SOL    HW153659   1.988   4.619   3.413 -0.5174 -0.3648 -0.1143
17406SOL    HW253660   1.925   4.523   3.511 -0.0166  0.3114  0.8936
17407SOL     OW53661   0.269   3.244   6.188 -0.2649  0.1410 -0.6690
17407SOL    HW153662   0.298   3.330   6.157 -0.0832 -0.0886 -1.1448
17407SOL    HW253663   0.242   3.260   6.278 -1.2372  0.9170 -1.0684
17408SOL     OW53664   2.387   0.236   0.498  0.3515  0.1387  0.7194
17408SOL    HW153665   2.380   0.291   0.576 -0.0735  1.5052 -0.2385
17408SOL    HW253666   2.448   0.167   0.523 -0.6464 -0.1160  2.6179
17409SOL     OW53667   6.460   5.115  11.300  0.5419 -0.0046 -0.4140
17409SOL    HW153668   6.533   5.081  11.249  1.3793 -0.2748  0.9096
17409SOL    HW253669   6.474   5.210  11.300  0.0490  0.0819 -1.3740
17410SOL     OW53670   5.453   6.688   3.766 -0.1479 -0.4365  0.1590
17410SOL    HW153671   5.362   6.714   3.759  0.1219  0.3487 -0.6195
17410SOL    HW253672   5.452   6.593   3.759 -0.7680 -0.3362 -1.6337
17411SOL     OW53673   3.459   3.760   4.999  0.0504 -0.2387  0.8877
17411SOL    HW153674   3.443   3.854   4.993  0.0913 -0.1509  1.9584
17411SOL    HW253675   3.532   3.752   5.061 -0.7883 -1.0324  1.7963
17412SOL     OW53676   2.206   0.660   3.239 -0.0111 -0.1614 -0.7785
17412SOL    HW153677   2.127   0.638   3.190  0.4709 -0.7300 -1.3308
17412SOL    HW253678   2.255   0.578   3.243  1.3196  0.5329 -1.8973
17413SOL     OW53679   0.580   2.110   6.336 -0.5155  0.2317  0.5446
17413SOL    HW153680   0.560   2.027   6.293  1.2607 -0.7214  1.4626
17413SOL    HW253681   0.628   2.160   6.270 -0.6472  0.0957  0.3431
17414SOL     OW53682   0.708   6.580  10.601 -0.1771  0.1499  0.5861
17414SOL    HW153683   0.715   6.511  10.535  0.3459  0.3984  0.3805
17414SOL    HW253684   0.706   6.662  10.550  2.4722  0.5108  0.9247
17415SOL     OW53685   2.815   2.984   2.249  0.2110  0.1283  0.3613
17415SOL    HW153686   2.830   2.990   2.343 -1.3169 -2.1098  0.8361
17415SOL    HW253687   2.867   2.909   2.221 -0.5155 -0.1615 -0.2488
17416SOL     OW53688   0.773   3.901   9.973  0.0059 -0.1976 -0.3670
17416SOL    HW153689   0.697   3.867   9.926 -1.2354  1.5652  0.2410
17416SOL    HW253690   0.845   3.897   9.910 -0.4513 -2.2913 -0.8324
17417SOL     OW53691   6.998   7.874   9.705 -0.4416 -0.3060 -0.0933
17417SOL    HW153692   6.920   7.929   9.700  0.8350  1.5401 -1.3292
17417SOL    HW253693   6.969   7.794   9.748 -2.6062  0.9863  1.0158
17418SOL     OW53694   2.673   6.564   2.043  0.4651  0.3947  0.2002
17418SOL    HW153695   2.746   6.507   2.068  1.5847  2.3959  1.7843
17418SOL    HW253696   2.677   6.568   1.947  0.2258 -2.2514  0.0095
17419SOL     OW53697   7.138   2.385   7.240  0.1739  0.5966  0.0278
17419SOL    HW153698   7.172   2.412   7.154 -1.4478  2.6851 -0.0355
17419SOL    HW253699   7.043   2.395   7.232 -0.1581 -0.9763  1.5089
17420SOL     OW53700   0.057   6.925   9.014 -0.0200  0.0999  0.0652
17420SOL    HW153701   0.079   6.933   9.107  0.7583 -1.2407  0.0221
17420SOL    HW253702   0.001   7.000   8.996 -0.8856 -0.0662  1.8336
17421SOL     OW53703   0.317   6.418   7.637  0.1131  0.5684 -0.3900
17421SOL    HW153704   0.381   6.472   7.591  1.3757 -0.2041  0.4178
17421SOL    HW253705   0.367   6.373   7.705 -0.7097 -2.2542 -1.5136
17422SOL     OW53706   2.997   0.965   0.444  0.2856  0.4159 -0.7105
17422SOL    HW153707   3.061   0.929   0.506  0.8889  1.9558 -0.3927
17422SOL    HW253708   2.971   0.891   0.390  1.6776 -0.4245 -0.2634
17423SOL     OW53709   7.884   1.454   7.246  0.1751 -0.2198  0.2630
17423SOL    HW153710   7.899   1.360   7.254 -0.9619 -0.3537  1.0041
17423SOL    HW253711   7.824   1.461   7.171  0.9487  0.0056 -0.3523
17424SOL     OW53712   3.303   2.003   0.415  0.7062  0.1632  0.4060
17424SOL    HW153713   3.323   1.984   0.323  0.5937  0.8543  0.2289
17424SOL    HW253714   3.377   1.967   0.464  1.3862  0.8903 -0.0680
17425SOL     OW53715   4.500   3.024   1.050 -0.3476 -0.2268 -0.1746
17425SOL    HW153716   4.485   2.931   1.066  0.4859 -0.1736  1.1167
17425SOL    HW253717   4.595   3.035   1.059 -0.4599  0.7933 -0.0365
17426SOL     OW53718   4.831   7.590   3.442 -0.5880  0.1781  0.0729
17426SOL    HW153719   4.824   7.628   3.355  1.1681  1.5854  0.4950
17426SOL    HW253720   4.743   7.599   3.479 -0.9987  0.8652 -1.0304
17427SOL     OW53721   5.200   0.159   3.097 -0.3067  0.3579  0.0021
17427SOL    HW153722   5.200   0.089   3.162 -0.6793  0.2060 -0.1610
17427SOL    HW253723   5.292   0.166   3.070 -0.4712 -1.1020 -1.0919
17428SOL     OW53724   2.554   0.957   7.719 -0.1621  0.0383  0.4617
17428SOL    HW153725   2.479   1.000   7.759 -0.4620 -0.2135  0.1799
17428SOL    HW253726   2.616   1.027   7.701 -0.0826  0.1694  1.2360
17429SOL     OW53727   1.129   1.508   3.308 -0.7502 -0.0503 -0.1687
17429SOL    HW153728   1.110   1.568   3.380  0.4869  0.3118 -0.1237
17429SOL    HW253729   1.220   1.483   3.320 -1.4190 -2.5801  0.2505
17430SOL     OW53730   3.531   3.171   0.931 -0.2373 -0.1942  0.0293
17430SOL    HW153731   3.565   3.210   1.012  0.3062 -0.9442  0.1668
17430SOL    HW253732   3.608   3.159   0.876 -0.5619 -0.0153 -0.4663
17431SOL     OW53733   2.110   3.471   5.578 -0.3409  0.1364  0.4053
17431SOL    HW153734   2.095   3.464   5.673  0.7379 -0.0498  0.5728
17431SOL    HW253735   2.171   3.544   5.569  0.8289 -0.8607  0.0101
17432SOL     OW53736   1.276   6.394   9.136 -0.5240 -0.5485  0.0181
17432SOL    HW153737   1.298   6.317   9.187  1.0478 -0.3497 -0.3337
17432SOL    HW253738   1.323   6.466   9.179 -0.6661 -0.0612 -0.6201
17433SOL     OW53739   4.131   6.185   9.532 -0.3138  0.1109  0.3398
17433SOL    HW153740   4.156   6.229   9.450  0.8876 -2.1509 -0.6122
17433SOL    HW253741   4.205   6.199   9.590  0.5520 -1.4277 -0.3321
17434SOL     OW53742   3.781   0.865   2.302 -0.1160  0.1769 -0.1453
17434SOL    HW153743   3.716   0.826   2.244  1.4414 -1.8606 -0.6525
17434SOL    HW253744   3.862   0.817   2.284  1.3353  1.9809  1.1060
17435SOL     OW53745   2.884   0.358  10.450  0.0751 -0.3764 -0.3699
17435SOL    HW153746   2.892   0.262  10.456  0.9293 -0.2701  0.2745
17435SOL    HW253747   2.950   0.392  10.510 -0.3470  0.6278 -0.4549
17436SOL     OW53748   5.064   7.135   2.137 -0.4389 -0.2496  0.0769
17436SOL    HW153749   4.974   7.151   2.110 -0.6523  0.9013  1.3914
17436SOL    HW253750   5.069   7.165   2.228  0.9195 -1.5722  0.4966
17437SOL     OW53751   6.413   0.290   1.159  0.5068  0.0582  0.9507
17437SOL    HW153752   6.334   0.289   1.212 -0.1662 -3.9598  0.1774
17437SOL    HW253753   6.483   0.263   1.218  0.2581 -1.6403  0.5250
17438SOL     OW53754   6.033   5.480   1.533 -0.5649 -0.1633 -0.4020
17438SOL    HW153755   5.941   5.482   1.560 -1.1820 -1.2069 -2.2343
17438SOL    HW253756   6.078   5.533   1.598 -2.5116  0.6617  0.3615
17439SOL     OW53757   0.563   6.398   4.673  0.2617  0.5124 -0.2695
17439SOL    HW153758   0.573   6.337   4.746 -0.4147  1.5145  0.7003
17439SOL    HW253759   0.652   6.427   4.654  0.3509  1.1627  1.0008
17440SOL     OW53760   0.215   5.384   6.179 -0.1964 -0.7516 -0.6204
17440SOL    HW153761   0.164   5.311   6.217  0.2250 -0.5436  0.3880
17440SOL    HW253762   0.197   5.379   6.085 -1.2253 -1.3448 -0.4175
17441SOL     OW53763   4.464   3.061   2.382 -0.1444 -0.5511 -0.4370
17441SOL    HW153764   4.524   2.987   2.369 -0.1451 -0.3899 -1.4269
17441SOL    HW253765   4.405   3.033   2.451 -0.3563 -1.6209 -1.0354
17442SOL     OW53766   3.310   7.221   6.241  0.1353 -0.0453 -0.6838
17442SOL    HW153767   3.300   7.187   6.152 -2.2752 -1.7166  0.1205
17442SOL    HW253768   3.316   7.143   6.296 -1.1650  0.8801  0.8455
17443SOL     OW53769   3.163   3.804   1.516 -0.1793  0.1302 -0.0537
17443SOL    HW153770   3.140   3.896   1.506 -2.4252 -0.5487 -1.9487
17443SOL    HW253771   3.220   3.785   1.442  1.7029  0.3359  1.2767
17444SOL     OW53772   5.376   0.999   3.851 -0.2728 -0.1490 -0.2131
17444SOL    HW153773   5.448   0.936   3.857  0.1663  0.0103 -2.8759
17444SOL    HW253774   5.386   1.053   3.929  1.2408 -1.4037  0.5224
17445SOL     OW53775   2.680   5.545   8.539 -0.5658 -0.7452 -0.1122
17445SOL    HW153776   2.683   5.452   8.561 -0.7570 -0.8259 -0.4369
17445SOL    HW253777   2.621   5.583   8.604 -0.1525 -0.7735  0.2904
17446SOL     OW53778   7.050   4.982   6.722 -0.2400  0.1088 -0.6600
17446SOL    HW153779   7.139   4.947   6.727  0.9651  2.9131 -0.7479
17446SOL    HW253780   7.042   5.012   6.631 -0.4382  1.8458 -0.0921
17447SOL     OW53781   6.592   4.219   9.806 -0.1707 -0.7513 -0.7047
17447SOL    HW153782   6.652   4.213   9.880 -2.3367 -0.0948  1.2041
17447SOL    HW253783   6.613   4.303   9.765 -1.2244  0.5664  1.3231
17448SOL     OW53784   1.273   7.846   4.685 -0.8920 -0.0473  0.3322
17448SOL    HW153785   1.178   7.844   4.688 -0.8987 -2.2371  0.0234
17448SOL    HW253786   1.300   7.857   4.776 -1.4306 -0.3649  0.5336
17449SOL     OW53787   3.710   0.145   5.374  0.3114  0.0247 -0.1347
17449SOL    HW153788   3.732   0.066   5.423  2.3008 -0.7409 -2.0943
17449SOL    HW253789   3.647   0.116   5.308  0.9045  0.0808 -0.7393
17450SOL     OW53790   1.761   2.317   6.017 -0.0032 -0.0837  0.6614
17450SOL    HW153791   1.709   2.245   6.052 -1.6900 -0.2560 -1.9495
17450SOL    HW253792   1.797   2.283   5.935  2.5412  0.7653  1.3239
17451SOL     OW53793   6.528   1.425   8.595  0.0252  0.0978  0.0507
17451SOL    HW153794   6.583   1.484   8.646 -0.0711  0.1453  0.1014
17451SOL    HW253795   6.566   1.338   8.608  1.0708  0.3414 -1.2346
17452SOL     OW53796   2.719   3.076   2.938 -0.2256  0.1878 -0.0933
17452SOL    HW153797   2.812   3.069   2.916  0.0814 -3.3437  1.6078
17452SOL    HW253798   2.716   3.139   3.010  1.3061 -1.2362  1.3322
17453SOL     OW53799   7.233   0.099  11.518 -0.4658  0.5068 -0.7614
17453SOL    HW153800   7.303   0.148  11.562 -0.3140 -0.4432  0.1010
17453SOL    HW253801   7.160   0.102  11.580 -0.2643 -0.8046 -0.4368
17454SOL     OW53802   0.385   3.254   0.836 -0.1010  0.5604 -0.2235
17454SOL    HW153803   0.350   3.172   0.801  0.8053 -0.0188  0.2100
17454SOL    HW253804   0.366   3.319   0.767  1.5285 -0.5250 -1.8025
17455SOL     OW53805   7.271   0.259  10.550  0.8203 -0.5721  0.6647
17455SOL    HW153806   7.256   0.276  10.643  2.8934  1.0114  0.7855
17455SOL    HW253807   7.336   0.188  10.549  2.1108  0.5713  0.5207
17456SOL     OW53808   0.362   7.885  11.055 -0.2578  0.3745  0.3059
17456SOL    HW153809   0.376   7.930  11.138  1.4792  1.6439 -0.6177
17456SOL    HW253810   0.286   7.930  11.016 -1.1815 -0.3334  1.2332
17457SOL     OW53811   5.324   5.304   5.124  0.0904 -0.1104 -0.1364
17457SOL    HW153812   5.262   5.339   5.188 -0.1922  0.8502 -0.8974
17457SOL    HW253813   5.381   5.378   5.103  1.3123 -0.9045  0.3255
17458SOL     OW53814   6.584   4.228   1.311 -0.2539 -0.0301 -0.6406
17458SOL    HW153815   6.536   4.167   1.254 -0.5598 -2.3223  1.8783
17458SOL    HW253816   6.612   4.175   1.385  0.6863  2.6691  1.0867
17459SOL     OW53817   5.440   7.658   4.344 -0.1771  0.5924 -0.4121
17459SOL    HW153818   5.430   7.683   4.436  1.0196 -0.0196 -0.0919
17459SOL    HW253819   5.510   7.592   4.345 -0.7240 -0.0375 -1.6639
17460SOL     OW53820   3.723   2.695  11.418  0.1630 -0.8740 -0.2418
17460SOL    HW153821   3.702   2.687  11.325 -0.5644  0.8269 -0.2727
17460SOL    HW253822   3.690   2.782  11.442 -0.3951 -1.5987  1.8055
17461SOL     OW53823   6.464   7.713   5.956 -0.4218 -0.2318 -0.4731
17461SOL    HW153824   6.492   7.787   6.008 -0.5920  0.7283 -1.7076
17461SOL    HW253825   6.374   7.734   5.930 -1.0068 -1.5493  0.3461
17462SOL     OW53826   3.024   7.967   2.378  0.2612 -0.3525 -0.3890
17462SOL    HW153827   2.961   7.941   2.445  0.3019 -0.5907 -0.4402
17462SOL    HW253828   3.015   8.062   2.371 -0.3663 -0.4253 -0.6712
17463SOL     OW53829   5.343   4.861   1.747  0.4545 -0.2330  0.8144
17463SOL    HW153830   5.386   4.881   1.664  0.6632 -3.2542  0.0622
17463SOL    HW253831   5.412   4.868   1.813  1.2110 -1.2989  0.1653
17464SOL     OW53832   6.849   5.937   3.462 -0.1710 -0.0149  0.0018
17464SOL    HW153833   6.836   5.847   3.432  1.0378 -0.2269  0.0618
17464SOL    HW253834   6.780   5.951   3.527  0.2605 -1.2914  0.7892
17465SOL     OW53835   5.963   1.788   2.959 -0.3989 -0.4279 -0.2408
17465SOL    HW153836   5.978   1.827   2.873 -0.7230 -0.7807 -0.4600
17465SOL    HW253837   5.905   1.714   2.942  2.2537 -2.6927 -0.2648
17466SOL     OW53838   0.003   3.616   8.304 -0.5733  0.2659 -0.0076
17466SOL    HW153839   0.004   3.687   8.369  0.4223  0.7102 -0.4834
17466SOL    HW253840   0.014   3.661   8.220  0.8255 -0.4895 -0.2654
17467SOL     OW53841   5.641   1.776   3.860  0.3613 -0.4018 -0.5369
17467SOL    HW153842   5.714   1.742   3.911  0.0092 -0.2709  0.0738
17467SOL    HW253843   5.584   1.818   3.925 -0.3343 -0.6411 -0.9728
17468SOL     OW53844   5.532   7.471   7.535 -0.3584  0.0324  0.2483
17468SOL    HW153845   5.462   7.532   7.559  0.4459  0.3025  2.0587
17468SOL    HW253846   5.577   7.452   7.617  1.5240 -0.3501 -0.8005
17469SOL     OW53847   4.332   0.115   0.917  0.1040  0.2040 -0.3243
17469SOL    HW153848   4.259   0.111   0.979  0.8246  3.4015  0.9130
17469SOL    HW253849   4.410   0.106   0.970  0.6842  0.6535 -1.0770
17470SOL     OW53850   1.576   6.769   5.157  0.2171 -0.5280 -0.2991
17470SOL    HW153851   1.591   6.772   5.063 -0.6860 -0.4329 -0.4464
17470SOL    HW253852   1.541   6.855   5.179  2.6035  0.3088  0.5362
17471SOL     OW53853   3.455   4.647  11.849 -0.0808 -0.1638 -0.4497
17471SOL    HW153854   3.543   4.629  11.882 -0.0787  0.5226 -0.0730
17471SOL    HW253855   3.402   4.573  11.880 -0.0530  0.3844  1.0011
17472SOL     OW53856   0.078   6.429  10.988 -0.0599 -0.3587 -0.0161
17472SOL    HW153857   0.124   6.511  10.971 -0.1277  0.4788  3.1651
17472SOL    HW253858   0.137   6.380  11.045 -0.6038 -1.9358 -0.7624
17473SOL     OW53859   4.251   2.397   6.937  0.0738 -0.0921  0.3663
17473SOL    HW153860   4.331   2.345   6.948  0.2558  0.1739  0.3097
17473SOL    HW253861   4.282   2.488   6.934 -0.3392  0.0922  1.4255
17474SOL     OW53862   1.763   3.660   8.816  0.3883 -0.2008 -0.3632
17474SOL    HW153863   1.812   3.654   8.898  0.4296 -1.1445 -0.4485
17474SOL    HW253864   1.709   3.581   8.815  0.8343 -0.5068 -1.5328
17475SOL     OW53865   1.235   5.669   0.491  0.1278 -0.1359 -0.1417
17475SOL    HW153866   1.219   5.751   0.537 -1.1364 -0.3100 -0.2403
17475SOL    HW253867   1.302   5.624   0.544  1.7705  1.4705 -0.7556
17476SOL     OW53868   0.588   5.072   4.358  0.2576  0.6164  0.5438
17476SOL    HW153869   0.525   5.133   4.319 -0.0470 -0.3278 -0.5115
17476SOL    HW253870   0.552   4.986   4.338  1.7114  0.0608  0.2230
17477SOL     OW53871   5.112   6.057   5.650  0.2958  0.1286 -0.0549
17477SOL    HW153872   5.128   5.974   5.606  0.2895  0.1575 -0.1107
17477SOL    HW253873   5.160   6.050   5.732  2.2754  1.0148 -1.0836
17478SOL     OW53874   0.830   6.062   2.737  0.2054 -0.1142  0.0602
17478SOL    HW153875   0.888   6.018   2.674  0.6697  0.1018  0.3302
17478SOL    HW253876   0.821   6.151   2.703 -1.3965 -0.6224 -0.9298
17479SOL     OW53877   6.896   4.754  11.867 -0.0175  0.5513  0.3712
17479SOL    HW153878   6.985   4.788  11.866 -0.1905  1.0195 -0.6417
17479SOL    HW253879   6.892   4.694  11.794 -0.1670 -0.5050  1.2205
17480SOL     OW53880   7.558   5.700   9.657  0.6097 -0.0324 -0.3473
17480SOL    HW153881   7.548   5.605   9.660  1.3703 -0.1225 -0.3520
17480SOL    HW253882   7.566   5.720   9.564  0.2556  0.0617 -0.3583
17481SOL     OW53883   3.822   2.891   6.539  0.3249 -0.5369 -0.3081
17481SOL    HW153884   3.894   2.954   6.535 -1.0811  1.1095 -1.6879
17481SOL    HW253885   3.863   2.806   6.521  2.2247 -0.0056  1.2356
17482SOL     OW53886   1.719   7.408   7.008  0.0808  0.2525  0.1012
17482SOL    HW153887   1.677   7.322   7.015  0.6927 -0.2617 -1.8796
17482SOL    HW253888   1.693   7.453   7.088 -0.1459 -1.8133  1.2785
17483SOL     OW53889   3.302   7.221  12.433 -0.1763  0.1963  0.0395
17483SOL    HW153890   3.262   7.305  12.411  3.0138  2.4654  2.0433
17483SOL    HW253891   3.258   7.193  12.513 -2.4843 -1.0936 -1.5878
17484SOL     OW53892   5.889   5.174   1.267 -0.5436 -0.3747  0.4516
17484SOL    HW153893   5.812   5.190   1.322 -1.1138 -1.8915  0.1297
17484SOL    HW253894   5.948   5.125   1.324 -0.5777 -0.7799  0.1383
17485SOL     OW53895   4.610   1.416   2.152  0.8697 -0.2752  0.0523
17485SOL    HW153896   4.584   1.356   2.082 -1.2110  2.0010 -1.2674
17485SOL    HW253897   4.538   1.412   2.215  0.6564  0.8642 -0.0991
17486SOL     OW53898   7.981   6.674   0.840 -0.1572 -0.3575  0.3439
17486SOL    HW153899   8.060   6.682   0.894  0.5879 -0.8644 -0.6399
17486SOL    HW253900   7.982   6.584   0.808 -1.1516 -0.3760  0.3211
17487SOL     OW53901   4.094   5.418   9.776  0.1155  0.4663  0.4489
17487SOL    HW153902   4.171   5.422   9.718 -0.0514 -0.2479  0.1625
17487SOL    HW253903   4.071   5.326   9.778 -1.9308  0.8754 -1.0689
17488SOL     OW53904   5.847   0.924   5.604 -0.5324  0.6041  0.1024
17488SOL    HW153905   5.923   0.915   5.663  0.7023 -0.1999 -1.5099
17488SOL    HW253906   5.779   0.964   5.658  1.3964  2.4669  1.3386
17489SOL     OW53907   3.238   3.672  11.567 -0.4452  0.0854 -0.2851
17489SOL    HW153908   3.317   3.661  11.515 -0.4218 -0.4633 -0.1376
17489SOL    HW253909   3.166   3.657  11.506 -0.4658 -4.2846  0.4768
17490SOL     OW53910   7.441   3.392   1.096 -0.4454  0.3037 -0.1735
17490SOL    HW153911   7.412   3.418   1.183 -0.8040  1.5035 -0.6377
17490SOL    HW253912   7.378   3.324   1.069  0.9023 -1.6391  1.3155
17491SOL     OW53913   7.356   7.324   3.718  0.5011  0.1066 -0.1219
17491SOL    HW153914   7.273   7.370   3.733  0.1881 -0.4773 -0.0462
17491SOL    HW253915   7.413   7.391   3.679  0.4297  0.8784  1.0394
17492SOL     OW53916   2.992   0.338  11.898 -0.4003 -0.1500 -0.4479
17492SOL    HW153917   3.069   0.311  11.947 -0.1916 -0.1902 -0.7911
17492SOL    HW253918   2.931   0.372  11.964 -0.5516 -1.1755 -0.0360
17493SOL     OW53919   5.025   0.520  11.749  0.6005  0.2131  0.2392
17493SOL    HW153920   5.083   0.596  11.741  0.9971 -0.0562  0.5172
17493SOL    HW253921   5.062   0.469  11.822  0.6258 -0.4837 -0.2458
17494SOL     OW53922   7.634   5.502   8.620  0.4617 -0.7435 -0.8742
17494SOL    HW153923   7.689   5.579   8.604 -0.5670  0.0137 -0.8930
17494SOL    HW253924   7.628   5.497   8.716 -0.2959 -0.1701 -0.8787
17495SOL     OW53925   6.491   5.974   0.372  0.4679  0.2414 -0.3009
17495SOL    HW153926   6.453   6.014   0.451 -1.8630  1.4027 -1.9000
17495SOL    HW253927   6.473   6.036   0.302 -0.1396 -2.0240 -2.2892
17496SOL     OW53928   7.152   6.789   4.277  0.2565  0.1913  0.0973
17496SOL    HW153929   7.176   6.697   4.279 -2.0895 -0.4712  1.2684
17496SOL    HW253930   7.171   6.817   4.187  1.2532 -1.3299 -0.1955
17497SOL     OW53931   0.741   5.839  10.224 -0.2653 -0.1484 -0.0083
17497SOL    HW153932   0.789   5.802  10.299  0.1440  0.5846  0.1030
17497SOL    HW253933   0.649   5.823  10.245 -0.0906 -1.4888 -0.1778
17498SOL     OW53934   2.274   6.002  12.249  0.3266  0.8230  0.5140
17498SOL    HW153935   2.265   5.911  12.279  0.4047  0.4523 -0.5282
17498SOL    HW253936   2.185   6.027  12.223  0.2742  1.1098  0.9609
17499SOL     OW53937   2.856   1.511   7.364 -0.4353  0.5053  0.1142
17499SOL    HW153938   2.870   1.585   7.423  0.3104  1.2809 -1.0045
17499SOL    HW253939   2.768   1.479   7.386 -1.8363  3.2750 -1.0120
17500SOL     OW53940   5.968   1.219   4.696  0.0925  0.3043 -0.4578
17500SOL    HW153941   5.879   1.190   4.675 -0.3815  2.1778 -1.2677
17500SOL    HW253942   6.011   1.225   4.610 -0.0680  2.5739 -0.4246
17501SOL     OW53943   6.806   6.851   0.756  0.5347  0.4856 -0.3842
17501SOL    HW153944   6.876   6.785   0.752 -0.5853 -0.6688 -2.5331
17501SOL    HW253945   6.852   6.934   0.766  2.1271 -0.3844 -0.1446
17502SOL     OW53946   7.743   4.132  10.722  0.0449 -0.3206 -0.0503
17502SOL    HW153947   7.758   4.037  10.721  1.0330 -0.1989  1.1193
17502SOL    HW253948   7.696   4.148  10.804 -2.6813 -0.1113 -1.5480
17503SOL     OW53949   3.572   2.726  12.148  0.5054  0.4603  0.1496
17503SOL    HW153950   3.534   2.692  12.067 -0.0487 -3.1518  1.7431
17503SOL    HW253951   3.497   2.756  12.199  0.3925 -0.7642  0.7494
17504SOL     OW53952   5.150   7.140   2.860 -0.0137 -0.1220 -0.5274
17504SOL    HW153953   5.214   7.211   2.852 -0.5289  0.6662  1.6831
17504SOL    HW253954   5.193   7.064   2.819  1.2719  0.9965 -1.3492
17505SOL     OW53955   5.313   6.711  11.109 -0.5920 -0.3440 -0.1098
17505SOL    HW153956   5.332   6.804  11.117 -1.2236 -0.1599 -0.7168
17505SOL    HW253957   5.383   6.668  11.159  0.1162  0.4166 -0.4302
17506SOL     OW53958   5.594   6.582   3.446  0.1180 -0.3249 -0.5218
17506SOL    HW153959   5.682   6.617   3.462 -0.5434  1.2102 -0.0606
17506SOL    HW253960   5.597   6.493   3.481  1.4228 -0.2219 -0.3178
17507SOL     OW53961   7.770   6.374   8.798  0.6643 -0.0044  0.2094
17507SOL    HW153962   7.778   6.279   8.800 -0.1121 -0.0743  0.1905
17507SOL    HW253963   7.860   6.406   8.804  0.8722 -0.7271  1.2123
17508SOL     OW53964   7.073   5.332   1.759 -0.4366  0.5381  0.1123
17508SOL    HW153965   7.133   5.294   1.694 -0.8176  0.6977 -0.3373
17508SOL    HW253966   7.120   5.323   1.842 -0.1669 -0.1612 -0.1017
17509SOL     OW53967   5.726   7.162   6.029  0.0913  0.3197 -0.6661
17509SOL    HW153968   5.783   7.209   5.969  2.8194 -0.3230  1.2139
17509SOL    HW253969   5.640   7.164   5.988  0.8166  3.7867 -2.3488
17510SOL     OW53970   4.836   7.335   3.075  0.1053 -0.1152 -0.7800
17510SOL    HW153971   4.914   7.288   3.103  0.1036  0.1501 -0.3309
17510SOL    HW253972   4.847   7.345   2.980  1.5861  1.6567 -0.4842
17511SOL     OW53973   3.386   2.108   9.294  0.7253 -0.3130 -0.6725
17511SOL    HW153974   3.349   2.050   9.361 -0.5473 -0.0195 -1.0806
17511SOL    HW253975   3.480   2.089   9.294  0.6729 -0.6793  0.8298
17512SOL     OW53976   4.080   5.263   4.831  0.5643  0.1386 -0.4727
17512SOL    HW153977   4.138   5.339   4.834  0.5733  0.1178 -0.1286
17512SOL    HW253978   4.111   5.213   4.756  0.9747  0.1444 -0.3106
17513SOL     OW53979   1.975   4.583  10.951  0.1116  0.0111  0.5745
17513SOL    HW153980   1.963   4.623  10.865  0.5293 -1.3464 -0.1483
17513SOL    HW253981   2.070   4.573  10.960  0.2458  2.1302  2.1739
17514SOL     OW53982   6.347   4.949   6.325  0.4360 -0.4136  0.8715
17514SOL    HW153983   6.353   4.854   6.319 -0.5281 -0.5396  1.6264
17514SOL    HW253984   6.255   4.966   6.346 -0.2878  0.8769 -2.5555
17515SOL     OW53985   5.777   4.165   9.869 -0.2807 -0.3465 -0.1799
17515SOL    HW153986   5.861   4.132   9.837 -0.2096  0.8366 -1.3086
17515SOL    HW253987   5.737   4.090   9.913  1.1435 -1.0699 -0.0573
17516SOL     OW53988   6.502   5.091  10.372  0.2393  0.1470 -0.2831
17516SOL    HW153989   6.452   5.098  10.291 -0.4669  0.2903  0.1586
17516SOL    HW253990   6.445   5.043  10.431  0.1315  1.3317  0.6120
17517SOL     OW53991   4.271   2.556   9.423 -0.3041  0.4247  0.2078
17517SOL    HW153992   4.348   2.588   9.470 -0.6623  0.1134  1.0116
17517SOL    HW253993   4.200   2.613   9.452 -0.8312 -0.7059  1.2196
17518SOL     OW53994   5.378   5.723   9.932 -0.2526 -0.4701  0.3349
17518SOL    HW153995   5.372   5.638   9.976 -0.1171 -1.0741 -0.7693
17518SOL    HW253996   5.308   5.775   9.971  1.1178 -0.2617  2.7036
17519SOL     OW53997   5.194   6.215   8.333 -0.0850  0.4167  0.2954
17519SOL    HW153998   5.174   6.163   8.255  0.7088  0.7021 -0.1144
17519SOL    HW253999   5.168   6.304   8.308  0.3114  0.5339  0.2956
17520SOL     OW54000   0.054   0.661   3.155  0.3285 -0.5367 -0.0171
17520SOL    HW154001   0.017   0.597   3.093 -0.4973 -0.5632  0.4849
17520SOL    HW254002   0.032   0.746   3.117 -0.9491 -0.5405  0.6412
17521SOL     OW54003   4.286   2.657   6.163  0.2016 -0.3923  0.0951
17521SOL    HW154004   4.276   2.653   6.259  1.5458 -0.9593  0.2305
17521SOL    HW254005   4.204   2.696   6.133 -0.5666 -0.8927  1.4158
17522SOL     OW54006   7.632   6.152   0.701  0.1473 -0.3159  0.6267
17522SOL    HW154007   7.562   6.087   0.702 -0.4596  0.3190 -0.0427
17522SOL    HW254008   7.614   6.206   0.625  0.7790  0.5097  1.0449
17523SOL     OW54009   6.013   5.229  10.260 -0.4884 -0.5851 -0.1462
17523SOL    HW154010   6.032   5.310  10.212  0.5757 -1.5540 -1.4392
17523SOL    HW254011   6.044   5.246  10.349  1.6411 -0.2519 -0.8968
17524SOL     OW54012   4.503   1.991   1.821 -0.2266 -0.2291 -0.1295
17524SOL    HW154013   4.561   1.917   1.838 -0.4424 -0.5274 -0.6436
17524SOL    HW254014   4.456   1.966   1.741  0.8151  1.1235 -1.2204
17525SOL     OW54015   6.663   5.231   3.206 -0.1035 -0.2717  0.0753
17525SOL    HW154016   6.756   5.251   3.213 -0.3929  0.8698  1.0853
17525SOL    HW254017   6.629   5.295   3.144 -0.6633  1.1573  1.7575
17526SOL     OW54018   4.806   6.655   8.554  0.0274  0.4285 -0.0459
17526SOL    HW154019   4.857   6.727   8.591 -1.4712  1.3687  0.3051
17526SOL    HW254020   4.795   6.678   8.462  1.6887 -0.6715 -0.5501
17527SOL     OW54021   7.172   6.355   1.239  0.0465  0.0207  0.2877
17527SOL    HW154022   7.259   6.363   1.277 -0.7641 -2.2010  2.9534
17527SOL    HW254023   7.173   6.271   1.194 -0.6470  0.1195  0.0743
17528SOL     OW54024   5.868   7.205   4.440  0.4317  0.4503 -0.2018
17528SOL    HW154025   5.864   7.141   4.369  0.7022  0.5739 -0.3318
17528SOL    HW254026   5.960   7.234   4.441  0.0460  1.8265 -1.0321
17529SOL     OW54027   6.320   6.679   3.875 -0.0767  0.6253 -0.0511
17529SOL    HW154028   6.324   6.588   3.902  0.5479  0.5434 -0.3915
17529SOL    HW254029   6.336   6.677   3.781 -1.4841  0.9677 -0.3204
17530SOL     OW54030   4.601   1.187   8.161 -0.7209 -0.4917 -0.5216
17530SOL    HW154031   4.610   1.095   8.137 -2.6004 -0.6925 -0.6424
17530SOL    HW254032   4.506   1.201   8.167 -0.5143  1.6295 -1.2913
17531SOL     OW54033   7.002   4.907   3.149  0.1889 -0.5071 -0.6019
17531SOL    HW154034   7.051   4.985   3.121 -0.5991  0.3698  0.3725
17531SOL    HW254035   6.911   4.927   3.127  0.1460 -1.8847 -1.8723
17532SOL     OW54036   1.022   3.271   9.316  0.4903  0.0456  0.1069
17532SOL    HW154037   1.011   3.366   9.312  0.7476  0.2585  2.6702
17532SOL    HW254038   0.933   3.237   9.317  0.3978  0.2171 -1.0069
17533SOL     OW54039   1.041   5.842   3.627  0.3502  0.0835  0.4030
17533SOL    HW154040   1.124   5.849   3.580  0.5364  0.1162  0.7385
17533SOL    HW254041   1.006   5.931   3.626 -0.6918 -0.2779 -1.5613
17534SOL     OW54042   4.472   2.250   1.203  0.5194  0.5179  0.6176
17534SOL    HW154043   4.413   2.274   1.131  0.8323  1.5416  0.6845
17534SOL    HW254044   4.535   2.190   1.163  0.3546  0.6374  0.1717
17535SOL     OW54045   4.935   6.324   2.258 -0.0100 -0.3990  0.1026
17535SOL    HW154046   4.986   6.298   2.335 -0.3588 -1.0685  0.1090
17535SOL    HW254047   4.844   6.304   2.282 -0.1473 -0.3477 -0.3787
17536SOL     OW54048   1.037   1.859   5.253  0.6900  0.1214 -0.3445
17536SOL    HW154049   1.128   1.829   5.262  0.5251 -0.2555  0.0955
17536SOL    HW254050   1.043   1.934   5.194  1.1451 -0.6034 -1.2572
17537SOL     OW54051   7.179   7.693  11.828 -0.7091 -0.6627 -0.2223
17537SOL    HW154052   7.088   7.723  11.831 -0.6009 -0.4163  0.6582
17537SOL    HW254053   7.228   7.758  11.877  0.1356 -0.1906 -1.6259
17538SOL     OW54054   2.717   7.698   4.867  0.7652 -0.2789  0.0759
17538SOL    HW154055   2.724   7.687   4.962 -1.3458  0.6973  0.3928
17538SOL    HW254056   2.755   7.618   4.831  1.5065 -0.7218  1.7323
17539SOL     OW54057   6.061   1.580  10.760 -0.1116  0.2797 -0.7408
17539SOL    HW154058   6.045   1.631  10.681  0.5742  1.5407 -0.0833
17539SOL    HW254059   6.148   1.605  10.789  0.6947 -2.0310 -0.9312
17540SOL     OW54060   5.363   4.502   9.822 -0.1828 -0.0516  0.0126
17540SOL    HW154061   5.332   4.497   9.732  1.3120 -0.2150 -0.5237
17540SOL    HW254062   5.287   4.480   9.875 -0.8357 -0.9283 -1.2472
17541SOL     OW54063   5.334   2.203   9.215 -0.3543 -0.1417  0.3763
17541SOL    HW154064   5.362   2.183   9.304 -0.5674 -1.3600  0.1928
17541SOL    HW254065   5.252   2.154   9.205 -0.3408  0.0036 -0.4846
17542SOL     OW54066   2.655   0.453   5.755 -0.2007 -0.0861 -0.4042
17542SOL    HW154067   2.597   0.525   5.783  0.3970 -0.0427  0.8083
17542SOL    HW254068   2.694   0.484   5.674  0.9817  1.5296  0.7183
17543SOL     OW54069   1.831   5.249  10.959  0.1029 -0.2925  0.4472
17543SOL    HW154070   1.864   5.324  11.010 -0.8867 -0.3744  1.2308
17543SOL    HW254071   1.807   5.287  10.875  1.6035 -0.1267  0.0547
17544SOL     OW54072   3.323   2.639   9.190  0.5094 -0.1827  0.0039
17544SOL    HW154073   3.374   2.711   9.152 -0.9062  1.3301  0.8559
17544SOL    HW254074   3.385   2.566   9.196  1.8182  0.7410 -1.4884
17545SOL     OW54075   0.758   1.812   9.350 -0.2882  0.1792  0.1681
17545SOL    HW154076   0.670   1.839   9.377 -0.1482 -0.0658  0.8814
17545SOL    HW254077   0.808   1.894   9.348 -0.4636  0.2850  0.0096
17546SOL     OW54078   0.898   1.048   8.472 -0.0642 -0.4048  0.2667
17546SOL    HW154079   0.844   0.987   8.421  0.2582 -0.5607  0.1076
17546SOL    HW254080   0.836   1.095   8.527 -0.6857  1.0639 -1.5598
17547SOL     OW54081   0.884   5.248   4.168  0.1237  0.2379  0.0647
17547SOL    HW154082   0.875   5.170   4.223 -3.5809  0.2852 -0.1981
17547SOL    HW254083   0.810   5.243   4.107 -0.1221  3.7716 -0.1495
17548SOL     OW54084   7.848   4.230   3.143  0.0061 -0.1584 -0.1657
17548SOL    HW154085   7.780   4.251   3.079  1.6054 -0.8918 -2.2246
17548SOL    HW254086   7.919   4.193   3.091  2.3427  1.3336  1.7722
17549SOL     OW54087   2.265   5.881   4.327  0.1970 -0.0072 -0.0114
17549SOL    HW154088   2.259   5.958   4.384 -2.1878  1.0761 -1.5403
17549SOL    HW254089   2.230   5.809   4.380 -2.0378  0.9865 -0.0106
17550SOL     OW54090   0.617   6.050  11.777  0.0893  0.4617 -0.6303
17550SOL    HW154091   0.530   6.091  11.774 -0.8328 -1.2774  0.2775
17550SOL    HW254092   0.644   6.056  11.868  0.2533 -0.2609 -0.6189
17551SOL     OW54093   0.939   4.519   2.775 -0.2913 -0.1005  0.4714
17551SOL    HW154094   0.866   4.517   2.713  0.9646  0.8741 -1.1189
17551SOL    HW254095   0.972   4.430   2.777 -0.6811 -0.2530  0.1543
17552SOL     OW54096   0.703   2.034  10.356 -0.2573 -0.1543 -0.1604
17552SOL    HW154097   0.713   1.948  10.317  1.1215  0.1295 -0.4762
17552SOL    HW254098   0.688   2.017  10.449 -2.9201 -0.8043 -0.6223
17553SOL     OW54099   7.503   6.615   5.624 -0.1352 -0.7565  0.3175
17553SOL    HW154100   7.550   6.592   5.543 -0.1020 -0.4335  0.2452
17553SOL    HW254101   7.573   6.635   5.687 -0.1701 -0.6536  0.3226
17554SOL     OW54102   7.688   3.394   4.296 -0.2732  0.2532 -0.3019
17554SOL    HW154103   7.691   3.322   4.233 -0.5235 -0.1452  0.1326
17554SOL    HW254104   7.595   3.407   4.313 -0.2662  1.1352 -0.8823
17555SOL     OW54105   4.352   6.086   8.975 -0.7475 -0.0372  0.2526
17555SOL    HW154106   4.367   6.098   9.069  0.3883  2.2397 -0.1674
17555SOL    HW254107   4.396   6.003   8.955  0.0756  0.0586  1.5034
17556SOL     OW54108   0.915   6.630   4.577 -0.5042  0.0343 -0.1974
17556SOL    HW154109   0.875   6.632   4.664 -0.3817  1.0533 -0.1521
17556SOL    HW254110   0.900   6.541   4.546 -2.6590  0.3029 -0.1126
17557SOL     OW54111   0.735   6.086   8.240 -0.7893 -0.0490 -0.0804
17557SOL    HW154112   0.698   6.107   8.154 -1.3437  2.1699  0.6165
17557SOL    HW254113   0.806   6.026   8.222 -0.9945  0.2495 -2.0840
17558SOL     OW54114   3.672   5.254   0.868  0.0132  0.7109  0.3793
17558SOL    HW154115   3.602   5.309   0.833  0.6245 -0.4867 -3.2013
17558SOL    HW254116   3.752   5.303   0.850  0.3164  0.4600  1.0126
17559SOL     OW54117   3.707   5.052   2.102  0.1096 -0.0506 -0.0949
17559SOL    HW154118   3.766   4.979   2.087  0.3153  0.0650  0.1425
17559SOL    HW254119   3.648   5.052   2.027 -0.0770 -0.6427  0.0477
17560SOL     OW54120   6.368   2.975  10.325  0.1891  0.1703 -0.2794
17560SOL    HW154121   6.378   3.019  10.409 -0.2070  1.4705 -0.8772
17560SOL    HW254122   6.288   2.924  10.334  0.6745 -0.4828  0.4444
17561SOL     OW54123   7.882   6.283   4.606  0.0976  0.1743  0.2393
17561SOL    HW154124   7.827   6.307   4.532 -1.9763  0.1148  1.6651
17561SOL    HW254125   7.878   6.358   4.665 -2.2132 -1.4841  2.3861
17562SOL     OW54126   3.090   6.995   8.850 -0.3392 -0.0928 -0.3380
17562SOL    HW154127   2.997   6.975   8.853 -0.5834  1.0651  2.0841
17562SOL    HW254128   3.130   6.939   8.916  0.7101 -0.5003 -1.2708
17563SOL     OW54129   1.747   2.470  11.831  0.1537 -0.5107 -0.2374
17563SOL    HW154130   1.708   2.387  11.856 -0.9577  0.4478  1.4788
17563SOL    HW254131   1.824   2.478  11.887  1.2667 -1.1261 -1.6271
17564SOL     OW54132   1.427   6.574  10.514  0.5523 -0.5881 -0.1566
17564SOL    HW154133   1.360   6.632  10.548  1.0137 -0.4051  0.4659
17564SOL    HW254134   1.509   6.610  10.548  0.9675 -0.8070 -0.9019
17565SOL     OW54135   2.251   3.145   0.102 -0.0626  0.2890 -0.1088
17565SOL    HW154136   2.291   3.137   0.189  1.1149  0.2929 -0.6210
17565SOL    HW254137   2.323   3.176   0.046 -0.6167 -0.3802 -1.2230
17566SOL     OW54138   3.802   0.430   1.869  0.2209 -0.3179  0.3399
17566SOL    HW154139   3.837   0.388   1.948 -1.6268 -0.5498  1.0989
17566SOL    HW254140   3.707   0.425   1.880 -0.0683  0.7955 -1.3174
17567SOL     OW54141   3.581   2.353  12.040  0.0838 -0.3035  0.4174
17567SOL    HW154142   3.492   2.352  12.005  0.6840 -0.5886 -1.1417
17567SOL    HW254143   3.568   2.351  12.135 -1.5716 -2.5545  0.2348
17568SOL     OW54144   1.709   7.952   0.455  0.5688 -0.1755  0.2872
17568SOL    HW154145   1.646   7.884   0.432 -0.3608  0.9462 -0.5682
17568SOL    HW254146   1.766   7.910   0.520 -1.1394 -1.1710  1.2115
17569SOL     OW54147   0.376   2.593   3.123 -0.0971  0.3012  0.8210
17569SOL    HW154148   0.362   2.686   3.104 -0.5963 -0.0431 -0.5542
17569SOL    HW254149   0.383   2.590   3.219 -0.4088  1.7061  0.9162
17570SOL     OW54150   3.427   4.992   6.784 -0.2044 -0.1452 -0.0270
17570SOL    HW154151   3.455   4.976   6.874  0.4533  1.2211  0.0344
17570SOL    HW254152   3.416   4.905   6.746 -0.2143 -0.7357  1.2841
17571SOL     OW54153   7.226   5.153   3.565  0.2785  0.0209 -0.1692
17571SOL    HW154154   7.227   5.217   3.494  1.1920 -0.9954 -1.1000
17571SOL    HW254155   7.220   5.068   3.522  0.2833 -0.6036  0.9974
17572SOL     OW54156   4.085   0.510   2.029 -0.1660 -0.5942  0.4145
17572SOL    HW154157   4.140   0.510   1.950  0.6267  0.4458  0.9283
17572SOL    HW254158   4.060   0.419   2.042  1.3953 -1.0873  0.1114
17573SOL     OW54159   3.449   7.392   3.703 -0.1375  0.4679  0.8346
17573SOL    HW154160   3.473   7.392   3.796  0.6100  1.2819  0.6576
17573SOL    HW254161   3.465   7.482   3.675 -0.1776  0.1809 -0.1312
17574SOL     OW54162   7.595   3.911   3.116 -0.0646 -0.7255 -0.3176
17574SOL    HW154163   7.686   3.882   3.113 -0.0264 -0.5747 -1.8813
17574SOL    HW254164   7.585   3.951   3.202  1.9597  1.0630 -0.8102
17575SOL     OW54165   2.325   1.313   8.910  0.3095  0.5406  0.3995
17575SOL    HW154166   2.287   1.232   8.876 -0.6777  0.9560  0.4982
17575SOL    HW254167   2.360   1.357   8.832 -0.9169  0.9421  0.0658
17576SOL     OW54168   2.894   3.195   0.395  0.0216  0.3654 -0.3358
17576SOL    HW154169   2.989   3.209   0.390  0.0078  0.2670 -0.9729
17576SOL    HW254170   2.881   3.109   0.355 -0.4386  0.8329 -1.2374
17577SOL     OW54171   5.201   6.339   9.069  0.2778 -0.0936  0.3082
17577SOL    HW154172   5.204   6.274   9.139  0.2849  0.7623  1.1312
17577SOL    HW254173   5.116   6.326   9.027 -0.0822 -0.0852  1.0188
17578SOL     OW54174   5.924   4.211   0.781  0.0709 -0.6602 -0.4780
17578SOL    HW154175   5.882   4.146   0.837 -0.0992 -1.6207 -1.6759
17578SOL    HW254176   6.007   4.231   0.825 -0.7570 -0.1529  0.9328
17579SOL     OW54177   7.974   0.842  11.387  0.0630 -0.0506 -0.5388
17579SOL    HW154178   8.018   0.890  11.317 -1.3238  0.1233 -1.3214
17579SOL    HW254179   7.973   0.903  11.461  1.6190 -0.2714 -0.2906
17580SOL     OW54180   7.575   1.183   9.076  0.1887  0.1455 -0.4606
17580SOL    HW154181   7.539   1.241   9.009  0.6495  1.0832  0.0809
17580SOL    HW254182   7.656   1.227   9.104 -0.1498 -0.0787  0.9108
17581SOL     OW54183   5.680   0.438   5.404  0.5205 -0.1636 -0.1072
17581SOL    HW154184   5.747   0.423   5.337  0.1262 -0.5007 -0.4313
17581SOL    HW254185   5.602   0.463   5.354  1.1036  3.0726  0.3600
17582SOL     OW54186   3.361   7.774   1.855  0.3700 -0.1454  0.2515
17582SOL    HW154187   3.451   7.791   1.883 -0.0246  0.4727  1.2233
17582SOL    HW254188   3.329   7.858   1.822  0.9386 -0.9385 -2.5791
17583SOL     OW54189   5.767   3.553   3.285  0.2763  1.1040  0.1349
17583SOL    HW154190   5.727   3.476   3.326  0.5603  1.1874  0.5732
17583SOL    HW254191   5.857   3.552   3.316  0.3364  1.5012 -0.0264
17584SOL     OW54192   3.598   6.454   1.072  0.1994 -0.7707  0.3193
17584SOL    HW154193   3.663   6.525   1.073 -0.7151  0.1097 -0.4842
17584SOL    HW254194   3.539   6.476   1.000 -1.1778 -1.3731  1.2058
17585SOL     OW54195   4.625   6.091  12.276  0.3088 -0.3013  0.6201
17585SOL    HW154196   4.676   6.021  12.235  1.1630  0.8001 -0.2804
17585SOL    HW254197   4.548   6.101  12.220 -0.1064 -0.9179  1.0846
17586SOL     OW54198   4.147   2.219   0.398  0.0530 -0.0497  0.0625
17586SOL    HW154199   4.098   2.138   0.389  1.1864 -0.7811  0.3248
17586SOL    HW254200   4.163   2.249   0.309 -2.0133  0.9339 -0.0260
17587SOL     OW54201   2.389   6.205   9.252  0.3421 -0.2045  0.0622
17587SOL    HW154202   2.369   6.290   9.291  1.5564 -0.2970  0.8988
17587SOL    HW254203   2.345   6.142   9.309 -0.3311 -0.1776 -0.4067
17588SOL     OW54204   5.389   3.495   4.909  0.0604  0.4027  0.5019
17588SOL    HW154205   5.420   3.566   4.965 -0.1435  1.3696 -0.5728
17588SOL    HW254206   5.294   3.510   4.902 -0.1971 -0.7708  1.3487
17589SOL     OW54207   6.804   7.002   1.885 -0.1885 -0.0984 -0.1963
17589SOL    HW154208   6.849   7.055   1.818 -0.1948  0.0161 -0.1099
17589SOL    HW254209   6.870   6.988   1.953 -0.8048  1.6319  0.8113
17590SOL     OW54210   1.010   2.633   8.436  0.2935  0.2075 -0.6677
17590SOL    HW154211   0.959   2.668   8.363  0.5836  0.8184 -0.5875
17590SOL    HW254212   1.094   2.680   8.430  0.4464 -0.0017 -0.1572
17591SOL     OW54213   0.690   4.252   5.695  0.5631  0.3656 -0.4449
17591SOL    HW154214   0.626   4.236   5.625 -0.4292  0.0952  0.5060
17591SOL    HW254215   0.713   4.344   5.686  0.6902  0.2666 -1.3104
17592SOL     OW54216   0.489   4.729   0.153 -0.4765  0.0627 -0.1285
17592SOL    HW154217   0.476   4.666   0.224 -0.7324  1.8463  1.4944
17592SOL    HW254218   0.407   4.727   0.104 -1.4769  0.8953  1.4236
17593SOL     OW54219   1.244   3.802   6.890  0.0348 -0.4746 -0.6632
17593SOL    HW154220   1.161   3.808   6.937 -0.7005  0.2104 -1.9902
17593SOL    HW254221   1.311   3.801   6.959 -1.0520 -0.8592  0.4176
17594SOL     OW54222   2.940   2.743   5.034  0.7655  0.3514 -0.0321
17594SOL    HW154223   2.971   2.828   5.002 -1.0227  0.5600 -1.3861
17594SOL    HW254224   2.871   2.719   4.972 -1.0004 -0.5690  2.1637
17595SOL     OW54225   2.251   2.471   8.786 -0.0910 -0.7425 -0.0746
17595SOL    HW154226   2.270   2.386   8.825  1.6220 -0.2810  0.1687
17595SOL    HW254227   2.320   2.529   8.818 -0.7871  0.5656 -0.8302
17596SOL     OW54228   5.998   5.031   0.825  0.2116 -0.7032 -0.2045
17596SOL    HW154229   5.950   4.950   0.844 -1.4836  0.2856 -0.0873
17596SOL    HW254230   5.968   5.093   0.891 -0.4925  0.7659 -1.8174
17597SOL     OW54231   1.752   1.718   5.887  0.1159 -0.1386 -0.4355
17597SOL    HW154232   1.829   1.759   5.849  0.4504 -0.8917 -0.5784
17597SOL    HW254233   1.703   1.682   5.813  0.5073 -1.1533 -0.2244
17598SOL     OW54234   0.993   6.812  11.597 -0.3811 -0.2578 -0.0834
17598SOL    HW154235   0.978   6.795  11.505 -0.9679 -0.8316  0.1145
17598SOL    HW254236   1.088   6.822  11.605 -0.4818  2.2002 -1.1457
17599SOL     OW54237   1.503   4.224   1.250 -0.6199  0.0079 -0.0229
17599SOL    HW154238   1.589   4.232   1.293 -0.6989  1.0422 -0.0295
17599SOL    HW254239   1.469   4.314   1.248 -2.1315 -0.5149  0.8585
17600SOL     OW54240   7.448   5.617   5.871  0.0768 -0.6478 -0.0611
17600SOL    HW154241   7.365   5.570   5.881 -0.9819  1.1928  0.2309
17600SOL    HW254242   7.439   5.692   5.929  1.3861  0.3371 -1.0924
17601SOL     OW54243   5.500   4.130   8.750 -0.0544  0.0479 -0.2861
17601SOL    HW154244   5.564   4.058   8.750  0.5822  0.4835  2.7030
17601SOL    HW254245   5.418   4.089   8.775  0.2670  0.2707  1.2225
17602SOL     OW54246   6.347   1.657   7.022  0.0088  0.1930  0.2717
17602SOL    HW154247   6.319   1.704   6.944  2.3500 -0.6843 -1.2015
17602SOL    HW254248   6.310   1.569   7.012 -0.9238  0.4843  0.9537
17603SOL     OW54249   5.269   4.991  10.295  0.4450 -0.8622 -0.2136
17603SOL    HW154250   5.204   4.925  10.319  1.9133 -2.5071 -0.5534
17603SOL    HW254251   5.281   5.044  10.374 -3.5502  1.6074 -0.9912
17604SOL     OW54252   4.656   1.438   9.621 -0.2480 -0.4548 -0.4153
17604SOL    HW154253   4.631   1.358   9.667  1.9095 -1.4830 -0.8590
17604SOL    HW254254   4.613   1.508   9.669 -0.9796 -1.7627  0.9338
17605SOL     OW54255   3.628   2.716   1.193  0.3173  0.1639 -0.6534
17605SOL    HW154256   3.548   2.755   1.158  1.1267  0.2842 -2.5112
17605SOL    HW254257   3.604   2.685   1.281 -1.6098  0.6244 -0.9749
17606SOL     OW54258   1.257   0.399   0.655  0.2500 -0.5178 -0.6408
17606SOL    HW154259   1.310   0.404   0.575 -0.1741  1.1846 -0.8575
17606SOL    HW254260   1.167   0.393   0.623 -0.1551  2.8041 -0.3973
17607SOL     OW54261   5.492   1.343   6.522  0.3288  0.1736  0.1352
17607SOL    HW154262   5.534   1.429   6.512  0.2311  0.1037 -1.0287
17607SOL    HW254263   5.439   1.351   6.601  1.7146  0.5989  1.0503
17608SOL     OW54264   3.415   4.906   3.938 -0.0097 -0.4052  0.4537
17608SOL    HW154265   3.502   4.918   3.977  0.1568 -0.2131  0.0291
17608SOL    HW254266   3.365   4.982   3.966  0.3121  0.0744 -0.2514
17609SOL     OW54267   6.876   3.518  11.200  0.4238 -0.2146  0.2487
17609SOL    HW154268   6.829   3.579  11.257  0.9714 -2.6397  3.5938
17609SOL    HW254269   6.958   3.562  11.180 -0.1565  1.0615  0.5462
17610SOL     OW54270   6.774   5.461   7.655 -0.2514 -0.1387 -0.4168
17610SOL    HW154271   6.803   5.370   7.656  0.5252  0.1140  0.2743
17610SOL    HW254272   6.831   5.504   7.592  0.1156  0.1084  0.0806
17611SOL     OW54273   5.792   5.585  10.757  0.3971 -0.1574  0.1915
17611SOL    HW154274   5.740   5.663  10.778  0.2221 -0.9189  2.9205
17611SOL    HW254275   5.868   5.619  10.709  0.1171  1.6627  0.9507
17612SOL     OW54276   6.050   5.531   0.816  0.2670  0.0466 -0.7535
17612SOL    HW154277   6.120   5.498   0.873 -1.9089 -1.7562  1.0553
17612SOL    HW254278   5.998   5.588   0.872 -0.0128  1.0032 -1.9412
17613SOL     OW54279   3.492   2.203   8.204  0.2683  0.2152  0.3379
17613SOL    HW154280   3.463   2.280   8.155  2.1133  1.5847  1.2555
17613SOL    HW254281   3.412   2.157   8.228 -0.8618  1.6581 -0.5415
17614SOL     OW54282   5.199   7.000   7.874 -0.2413 -0.5035  0.5501
17614SOL    HW154283   5.147   6.922   7.888 -2.4878  0.5977 -1.0724
17614SOL    HW254284   5.163   7.040   7.795  2.4722  0.8767 -0.1346
17615SOL     OW54285   3.137   1.208   1.952  0.0957  0.3629  0.0474
17615SOL    HW154286   3.120   1.239   2.041  1.5027 -0.1046  0.4975
17615SOL    HW254287   3.071   1.140   1.937  0.4550 -0.2380  1.1009
17616SOL     OW54288   7.125   4.429   3.231  0.1122  0.0234  0.3749
17616SOL    HW154289   7.205   4.408   3.183  0.0119  0.2759  0.0905
17616SOL    HW254290   7.109   4.522   3.211 -0.9039 -0.3155 -0.5516
17617SOL     OW54291   5.935   7.113   1.360  0.1058 -0.0143  0.1070
17617SOL    HW154292   6.008   7.125   1.300 -0.1180 -2.6039 -0.7843
17617SOL    HW254293   5.877   7.051   1.316 -1.7266  0.5522  1.5937
17618SOL     OW54294   7.816   0.238   2.849 -0.0401 -0.2363 -0.0503
17618SOL    HW154295   7.808   0.154   2.804 -0.3970 -0.0492 -0.3365
17618SOL    HW254296   7.780   0.302   2.788 -2.1602 -0.1766  1.1530
17619SOL     OW54297   7.669   4.125   9.557  0.7394 -0.2713 -0.2769
17619SOL    HW154298   7.718   4.176   9.621  0.8868 -2.1042  1.1420
17619SOL    HW254299   7.733   4.104   9.489  0.9284  0.5376 -0.3587
17620SOL     OW54300   3.162   6.134   6.814  0.5985  0.4437 -0.1786
17620SOL    HW154301   3.239   6.180   6.846  0.7861 -0.3716  0.6142
17620SOL    HW254302   3.092   6.159   6.875  0.6159 -0.0244  0.0392
17621SOL     OW54303   1.741   0.684   2.758  0.0834 -0.0180  0.0414
17621SOL    HW154304   1.699   0.769   2.752 -0.8865 -0.5390 -0.9840
17621SOL    HW254305   1.745   0.652   2.667 -2.2052 -2.2682  0.6115
17622SOL     OW54306   2.165   4.046   9.485 -0.5914  0.0612  0.0327
17622SOL    HW154307   2.178   3.952   9.472 -2.8805 -0.5690  1.5798
17622SOL    HW254308   2.099   4.070   9.420 -2.1049 -0.1101  1.4240
17623SOL     OW54309   0.179   7.440  11.199  0.3330  0.4399 -0.5415
17623SOL    HW154310   0.184   7.455  11.294  0.1808 -0.0584 -0.4525
17623SOL    HW254311   0.228   7.360  11.185 -0.2140  0.1433 -0.7941
17624SOL     OW54312   3.650   2.207   9.860 -0.8475 -0.1167  0.2649
17624SOL    HW154313   3.570   2.250   9.888  0.4850  2.7205  0.0530
17624SOL    HW254314   3.676   2.253   9.781  1.2775 -0.5633  0.6368
17625SOL     OW54315   2.940   3.349   2.687 -0.4771 -0.6367  0.0923
17625SOL    HW154316   2.863   3.376   2.635  0.0064  0.1364 -0.2455
17625SOL    HW254317   3.015   3.376   2.634  0.0446  0.7363  1.4505
17626SOL     OW54318   0.329   3.877   9.708  0.1741  0.2437  0.5193
17626SOL    HW154319   0.254   3.854   9.763  0.2878  0.7333  0.8848
17626SOL    HW254320   0.294   3.878   9.619  0.4891 -2.9478  0.2292
17627SOL     OW54321   1.308   3.508  10.827  0.7287  0.0763  0.3900
17627SOL    HW154322   1.323   3.443  10.758  1.1410  0.9459 -0.3530
17627SOL    HW254323   1.213   3.512  10.836  0.6928 -0.5014  0.3272
17628SOL     OW54324   6.850   1.830   0.816  0.1946  0.2142  0.1003
17628SOL    HW154325   6.853   1.833   0.912 -1.8806 -0.5618  0.2386
17628SOL    HW254326   6.821   1.917   0.791 -1.4874 -0.2486  0.3492
17629SOL     OW54327   3.481   1.324  10.493 -0.2921  0.1668 -0.4278
17629SOL    HW154328   3.403   1.349  10.444  0.3771 -1.6824 -2.6223
17629SOL    HW254329   3.519   1.252  10.442  1.7445 -0.3397  1.6488
17630SOL     OW54330   7.559   4.118   0.513  0.4551 -0.5388 -0.0924
17630SOL    HW154331   7.618   4.045   0.492  1.9993  0.9914 -1.3971
17630SOL    HW254332   7.508   4.087   0.588  1.5950 -2.6433 -0.1052
17631SOL     OW54333   3.347   4.606  11.211  0.3973 -0.0078  0.3318
17631SOL    HW154334   3.429   4.652  11.229  0.1950  0.7941 -0.7143
17631SOL    HW254335   3.280   4.674  11.216 -0.0400 -0.3943 -0.2047
17632SOL     OW54336   7.900   5.867   7.610 -0.1330  0.4530 -0.5032
17632SOL    HW154337   7.809   5.870   7.636  0.0002  1.8305 -0.1196
17632SOL    HW254338   7.924   5.774   7.614 -0.9599  0.2872  1.3208
17633SOL     OW54339   4.136   1.041   0.525 -0.4659  0.9312  0.4286
17633SOL    HW154340   4.146   1.036   0.430 -1.6212  0.6789  0.3041
17633SOL    HW254341   4.220   1.012   0.559 -0.7075 -1.1359 -0.5171
17634SOL     OW54342   4.488   6.694   0.868  0.1409 -0.3603 -0.4835
17634SOL    HW154343   4.503   6.605   0.835  1.4149  0.5444 -2.5508
17634SOL    HW254344   4.575   6.734   0.870 -0.6934  1.8088 -2.6722
17635SOL     OW54345   0.346   7.003   7.026  0.0511 -0.4939 -0.1772
17635SOL    HW154346   0.330   7.087   6.983  0.0648 -0.8249 -0.8474
17635SOL    HW254347   0.335   7.021   7.119  1.0021  0.4671 -0.2371
17636SOL     OW54348   5.814   5.521  11.209  0.1857  0.4408  0.1131
17636SOL    HW154349   5.795   5.507  11.302  1.9116 -1.2257  0.2916
17636SOL    HW254350   5.872   5.448  11.186 -1.0954  0.1733 -2.5826
17637SOL     OW54351   1.696   7.684   6.244  0.4108 -0.1111 -0.3800
17637SOL    HW154352   1.629   7.712   6.306  0.6704 -0.2159 -0.0459
17637SOL    HW254353   1.673   7.728   6.162 -0.9653 -1.3521 -0.7097
17638SOL     OW54354   7.709   6.865  12.359 -0.5516  0.5174  0.2689
17638SOL    HW154355   7.695   6.917  12.438 -0.4531 -0.7704  1.1778
17638SOL    HW254356   7.773   6.799  12.385  0.0324  0.5033 -1.1119
17639SOL     OW54357   6.657   6.550   0.779 -0.1101 -0.2475  0.0368
17639SOL    HW154358   6.672   6.508   0.695 -3.3794 -1.3213 -0.1162
17639SOL    HW254359   6.650   6.478   0.842 -0.0001  0.4237  0.8412
17640SOL     OW54360   3.002   0.655   4.274 -0.3385 -0.4507  0.1876
17640SOL    HW154361   3.014   0.560   4.278  2.3073 -0.1935  0.1533
17640SOL    HW254362   3.065   0.685   4.210 -1.3425  1.3409 -0.0380
17641SOL     OW54363   0.003   5.336   7.711  0.0078  0.1770  0.0532
17641SOL    HW154364  -0.057   5.289   7.654  0.7587 -1.1386  0.3206
17641SOL    HW254365   0.059   5.268   7.749  0.0833  1.0999  1.6893
17642SOL     OW54366   1.362   3.504   1.587  0.0667  0.0169 -0.0548
17642SOL    HW154367   1.402   3.541   1.666 -0.3822 -0.4203  0.3830
17642SOL    HW254368   1.397   3.415   1.583 -0.2682 -0.1111 -0.0992
17643SOL     OW54369   6.699   7.185  10.268 -0.4071 -0.3012  0.1825
17643SOL    HW154370   6.692   7.245  10.342 -0.1166 -1.3695  1.1020
17643SOL    HW254371   6.784   7.205  10.229 -0.4979  0.1706  0.2240
17644SOL     OW54372   0.344   4.727   1.579  0.0260  0.1638  0.1097
17644SOL    HW154373   0.315   4.730   1.488 -1.5393  0.6880  0.6102
17644SOL    HW254374   0.361   4.819   1.602  0.3618  0.0382  0.3824
17645SOL     OW54375   5.760   6.044   6.871 -0.2203  0.0544  0.2488
17645SOL    HW154376   5.688   6.002   6.917  1.5145 -1.7394  1.5115
17645SOL    HW254377   5.786   5.979   6.805 -0.0707  0.8969 -0.5381
17646SOL     OW54378   1.436   7.539  10.858 -0.2127  0.2999  0.3401
17646SOL    HW154379   1.496   7.538  10.783 -0.3145 -0.6084  0.2633
17646SOL    HW254380   1.351   7.515  10.821 -0.7607  2.0936  0.3591
17647SOL     OW54381   3.925   5.693   1.354  0.6984  0.3029 -0.1281
17647SOL    HW154382   3.973   5.629   1.407  0.5950  0.3161 -0.0163
17647SOL    HW254383   3.905   5.764   1.415  0.1884  0.1141 -0.0732
17648SOL     OW54384   3.463   2.221   2.025  0.4356 -0.2186 -0.4385
17648SOL    HW154385   3.508   2.140   2.048  0.5217  0.2430  1.1392
17648SOL    HW254386   3.436   2.209   1.934 -0.0673 -2.2570 -0.0600
17649SOL     OW54387   1.817   0.711   8.016  0.2830 -0.5152 -0.2364
17649SOL    HW154388   1.904   0.685   7.985 -0.5307 -3.0560 -0.6485
17649SOL    HW254389   1.759   0.643   7.983 -1.7244  0.5781  0.8731
17650SOL     OW54390   2.105   7.342   4.009  0.0160 -0.1538  0.1394
17650SOL    HW154391   2.018   7.334   3.968 -0.3403  1.2886  0.5595
17650SOL    HW254392   2.095   7.300   4.094 -0.0603 -0.6154 -0.0913
17651SOL     OW54393   7.714   2.617  11.930  0.2792  0.5545 -0.2092
17651SOL    HW154394   7.654   2.610  11.856  0.8154  1.1602 -0.7119
17651SOL    HW254395   7.679   2.690  11.982 -0.2666 -0.0619  0.3016
17652SOL     OW54396   1.900   3.360  10.582 -0.0310 -0.1882 -0.3430
17652SOL    HW154397   1.846   3.357  10.661 -0.5027 -1.4657 -0.6853
17652SOL    HW254398   1.839   3.377  10.511  0.0920 -0.9969 -0.6564
17653SOL     OW54399   4.591   2.657   4.777  0.2566 -0.1079 -0.5744
17653SOL    HW154400   4.641   2.665   4.859  1.0639 -0.3374 -1.0317
17653SOL    HW254401   4.520   2.720   4.786 -0.9940 -1.6656  1.2417
17654SOL     OW54402   5.891   1.879   9.085 -0.0474 -0.2729 -0.3324
17654SOL    HW154403   5.885   1.968   9.049 -1.0619 -0.5328 -0.8401
17654SOL    HW254404   5.848   1.885   9.170 -0.8732 -0.4619 -0.7326
17655SOL     OW54405   3.031   6.597   2.534  0.5223  0.0869 -0.1541
17655SOL    HW154406   3.076   6.616   2.616 -1.3820  1.2111  0.6922
17655SOL    HW254407   2.999   6.682   2.503 -0.8018 -0.6158 -0.8296
17656SOL     OW54408   5.821   0.201   7.465  0.3438 -0.3499  0.0457
17656SOL    HW154409   5.862   0.264   7.523  1.6370 -1.1104 -0.0149
17656SOL    HW254410   5.893   0.145   7.434 -0.5653 -1.0373 -0.9221
17657SOL     OW54411   6.894   4.401  10.984 -0.2298  0.4021 -0.1637
17657SOL    HW154412   6.943   4.452  11.048 -0.1920 -0.6729  0.6826
17657SOL    HW254413   6.802   4.408  11.012  0.0037 -1.9433  1.4172
17658SOL     OW54414   3.922   1.297   6.231 -0.3679 -0.4542 -0.3166
17658SOL    HW154415   3.933   1.265   6.321  1.5786  0.5077 -0.1731
17658SOL    HW254416   3.899   1.219   6.181 -1.1303 -1.0736  0.9309
17659SOL     OW54417   5.302   3.984  11.543 -0.2622  0.0623 -0.2394
17659SOL    HW154418   5.388   4.022  11.525 -0.8290  0.9163 -1.1602
17659SOL    HW254419   5.272   3.950  11.459 -0.8538 -0.1984  0.0711
17660SOL     OW54420   7.961   5.704   0.411  0.0660 -0.5242 -0.1051
17660SOL    HW154421   8.007   5.754   0.344 -2.0049  0.9787 -0.5036
17660SOL    HW254422   7.884   5.670   0.367 -0.5068 -0.8843  1.1356
17661SOL     OW54423   1.667   4.829   2.566 -0.2579 -0.1891  0.8017
17661SOL    HW154424   1.575   4.811   2.549  0.2219 -0.9893 -1.2367
17661SOL    HW254425   1.705   4.846   2.480  1.5658 -0.2211  1.5481
17662SOL     OW54426   6.767   4.836  10.064  0.0709  0.0093  0.2325
17662SOL    HW154427   6.696   4.795  10.014 -1.0371  1.1891  0.7565
17662SOL    HW254428   6.723   4.905  10.114  1.2290 -0.7276  2.3779
17663SOL     OW54429   1.133   6.647   2.157  0.3396  0.3394 -0.1827
17663SOL    HW154430   1.175   6.561   2.159  1.0272  0.6426 -1.1297
17663SOL    HW254431   1.158   6.688   2.241  1.2200  0.1742 -0.3563
17664SOL     OW54432   5.381   1.206   0.795  0.4055  0.1369 -0.5355
17664SOL    HW154433   5.426   1.273   0.847  0.9036  0.2342 -1.0760
17664SOL    HW254434   5.359   1.138   0.858 -0.9966  1.2398  0.2126
17665SOL     OW54435   3.600   7.130   5.020  0.2706  0.0867  0.1566
17665SOL    HW154436   3.561   7.119   5.106 -1.6676 -0.7267 -0.7632
17665SOL    HW254437   3.574   7.218   4.993 -1.5103 -0.6381 -0.6674
17666SOL     OW54438   4.929   4.812   4.602  0.0951 -0.1063 -0.0351
17666SOL    HW154439   4.846   4.791   4.645 -0.0436 -0.9594 -0.6766
17666SOL    HW254440   4.969   4.879   4.657 -0.1021 -1.1013  1.3867
17667SOL     OW54441   2.529   1.359   2.308 -0.2939  0.0796  0.0571
17667SOL    HW154442   2.475   1.361   2.387  0.7842 -1.3345  0.8878
17667SOL    HW254443   2.577   1.442   2.309  0.5599 -0.3940  1.5592
17668SOL     OW54444   6.285   0.558  10.302  0.3193  0.1674  0.6573
17668SOL    HW154445   6.381   0.553  10.297  0.2405 -4.3180 -0.7736
17668SOL    HW254446   6.264   0.533  10.392  0.5315 -2.3264  0.0678
17669SOL     OW54447   4.948   1.117  11.216 -0.2315  0.2950  0.4184
17669SOL    HW154448   4.879   1.072  11.167  0.4821  0.2804 -0.5916
17669SOL    HW254449   4.922   1.107  11.308 -1.5153  0.2047  0.0643
17670SOL     OW54450   1.704   5.591  10.126 -0.4472  0.1654  0.2204
17670SOL    HW154451   1.749   5.529  10.183 -0.7291 -0.2012  0.0548
17670SOL    HW254452   1.672   5.537  10.053 -2.0737  0.2091  0.8658
17671SOL     OW54453   4.804   3.703   0.834 -0.3406 -0.1156 -0.2823
17671SOL    HW154454   4.897   3.687   0.850 -0.7228 -0.7761  1.4305
17671SOL    HW254455   4.761   3.620   0.852 -1.3055  0.2408 -0.8479
17672SOL     OW54456   3.260   4.830   2.745 -0.5772  0.2667  0.4029
17672SOL    HW154457   3.187   4.802   2.800  0.2570 -0.0894  1.3628
17672SOL    HW254458   3.292   4.749   2.705 -3.0433  0.7730 -3.1463
17673SOL     OW54459   0.714   7.693   1.800  0.1516 -0.2903  0.3407
17673SOL    HW154460   0.625   7.656   1.801  0.3248 -0.7052  1.4788
17673SOL    HW254461   0.769   7.624   1.837  0.6371  0.7034  1.5437
17674SOL     OW54462   4.246   4.139  11.066 -0.0231  0.5241  0.4549
17674SOL    HW154463   4.319   4.081  11.087 -0.2226  0.4027  0.8115
17674SOL    HW254464   4.259   4.160  10.973  0.5686  0.6548  0.5638
17675SOL     OW54465   6.000   7.727  11.614 -0.6123  0.4384  0.0612
17675SOL    HW154466   5.938   7.656  11.595  0.5505 -0.5671 -0.0453
17675SOL    HW254467   5.963   7.803  11.570 -2.4929  0.1993  1.1180
17676SOL     OW54468   0.983   1.247   4.300  0.4754  0.2332 -0.7988
17676SOL    HW154469   1.063   1.202   4.329 -0.3656 -0.8672 -0.1302
17676SOL    HW254470   0.914   1.213   4.357 -0.2617  2.1985 -0.4224
17677SOL     OW54471   3.950   0.768   3.049 -0.5787 -0.5676 -0.4045
17677SOL    HW154472   3.889   0.782   3.122 -1.5979  0.0768 -1.3412
17677SOL    HW254473   3.959   0.673   3.044 -2.1132 -0.7352 -0.6792
17678SOL     OW54474   3.777   1.096   3.721  0.1986  0.0398  0.4236
17678SOL    HW154475   3.735   1.182   3.716  1.1245  0.6046  1.7087
17678SOL    HW254476   3.791   1.082   3.815  1.2595 -0.9195  0.1486
17679SOL     OW54477   2.348   1.746   3.790  0.5384  0.0818  0.7296
17679SOL    HW154478   2.362   1.757   3.696 -0.2059 -0.7584  0.5075
17679SOL    HW254479   2.355   1.835   3.826 -2.9292  1.0759 -0.6370
17680SOL     OW54480   4.189   4.559   9.918 -0.3413  0.3232 -0.0958
17680SOL    HW154481   4.195   4.509   9.836  0.1730  1.7803 -0.9751
17680SOL    HW254482   4.277   4.594   9.932 -0.5565  0.5352  0.8007
17681SOL     OW54483   2.893   4.350   8.814  0.1901  0.4758 -0.2829
17681SOL    HW154484   2.875   4.428   8.867 -0.3895  0.4403 -0.4208
17681SOL    HW254485   2.909   4.281   8.878  1.3461  0.8446 -0.1580
17682SOL     OW54486   6.643   5.687  11.045 -0.0400  0.2722 -0.5736
17682SOL    HW154487   6.609   5.762  10.996  0.5690 -0.0560 -1.5263
17682SOL    HW254488   6.636   5.613  10.984 -0.0153 -0.3132  0.1193
17683SOL     OW54489   6.185   5.886   9.930  0.5868 -0.0449 -0.1902
17683SOL    HW154490   6.261   5.827   9.930  1.2408  0.7669 -1.3742
17683SOL    HW254491   6.223   5.974   9.926 -0.4203  0.3627 -1.0486
17684SOL     OW54492   2.239   4.802   0.588 -0.1465 -0.6808 -0.3292
17684SOL    HW154493   2.199   4.885   0.615 -1.1171 -1.5061  0.8622
17684SOL    HW254494   2.175   4.764   0.527  0.1787 -0.6650 -0.6791
17685SOL     OW54495   3.015   2.827   0.136 -0.1339  0.2647  0.1921
17685SOL    HW154496   3.055   2.890   0.196 -1.4833  0.0027  1.4203
17685SOL    HW254497   2.944   2.874   0.093 -1.2988 -0.4153  1.2837
17686SOL     OW54498   3.500   0.948  10.408  0.7785 -0.1644  0.1382
17686SOL    HW154499   3.432   0.988  10.354  0.0478 -0.1368  1.0470
17686SOL    HW254500   3.503   0.857  10.381 -0.2315 -0.3674  0.6666
17687SOL     OW54501   7.792   0.702   0.698  0.1069  0.0909 -0.6805
17687SOL    HW154502   7.851   0.695   0.623  0.3635  0.0974 -0.4822
17687SOL    HW254503   7.778   0.796   0.710  1.2691  0.1792  0.1967
17688SOL     OW54504   7.363   7.903   3.301 -0.1664  0.1925  0.1054
17688SOL    HW154505   7.293   7.964   3.278 -0.1848 -0.2069 -0.9538
17688SOL    HW254506   7.328   7.852   3.375 -1.6226 -1.0481 -1.3748
17689SOL     OW54507   6.625   2.205  10.559 -0.0808 -0.0363  0.2984
17689SOL    HW154508   6.705   2.211  10.612 -0.1049  0.6769  0.2598
17689SOL    HW254509   6.644   2.137  10.494  0.5543  0.2444  0.1854
17690SOL     OW54510   5.577   0.091   8.061 -0.0700  0.1485  0.6525
17690SOL    HW154511   5.592  -0.003   8.067  3.5700  0.4362 -1.3691
17690SOL    HW254512   5.521   0.102   7.984 -0.0103 -0.2877  0.5487
17691SOL     OW54513   0.579   7.352  10.992  0.5804 -0.1968 -0.1056
17691SOL    HW154514   0.603   7.429  10.940  0.4941  1.4551  2.1617
17691SOL    HW254515   0.663   7.316  11.021  0.6921 -1.8399 -2.2400
17692SOL     OW54516   2.934   2.207   9.107 -0.1898 -0.1316  0.4645
17692SOL    HW154517   2.858   2.149   9.105 -0.0854 -0.3152  1.3860
17692SOL    HW254518   2.955   2.222   9.015 -1.7385  0.4456  0.1595
17693SOL     OW54519   7.926   1.108  10.000  0.1877  0.1820  0.4910
17693SOL    HW154520   7.847   1.126   9.950  0.5982 -1.0437 -0.6722
17693SOL    HW254521   7.997   1.134   9.941  0.6705 -0.5099  0.7565
17694SOL     OW54522   2.898   1.715   7.508  0.4918 -0.1746  0.0376
17694SOL    HW154523   2.916   1.724   7.602 -0.0555 -1.3282  0.2779
17694SOL    HW254524   2.955   1.779   7.466 -0.4723  1.5873  1.2707
17695SOL     OW54525   6.367   5.504   8.651  0.1059  0.0470 -0.1512
17695SOL    HW154526   6.273   5.488   8.665 -0.2264  2.1802  0.4539
17695SOL    HW254527   6.408   5.481   8.734 -0.0053  0.0112 -0.1058
17696SOL     OW54528   0.134   6.476  11.245 -0.2710  0.5124  0.5693
17696SOL    HW154529   0.100   6.483  11.334 -1.1960  1.5350  0.1551
17696SOL    HW254530   0.066   6.514  11.190  0.5771  0.5058 -0.5204
17697SOL     OW54531   2.623   2.839   6.297  0.2333 -0.2374  0.5658
17697SOL    HW154532   2.576   2.793   6.367  0.6360 -1.4302  0.0748
17697SOL    HW254533   2.612   2.932   6.318  0.4651 -0.5677  2.2905
17698SOL     OW54534   3.251   5.902  10.180  0.4709  0.4289 -0.3818
17698SOL    HW154535   3.189   5.829  10.180 -0.1606  0.9340  1.5179
17698SOL    HW254536   3.204   5.974  10.138  0.8580 -0.0242 -1.6405
17699SOL     OW54537   5.982   3.093   7.587 -0.6323 -0.1057 -0.1730
17699SOL    HW154538   6.022   3.101   7.501  1.7348  1.0386  0.9347
17699SOL    HW254539   6.056   3.079   7.647 -1.9569  1.2356  1.9350
17700SOL     OW54540   7.358   4.487  10.648  0.1767  0.2583  0.3543
17700SOL    HW154541   7.306   4.412  10.617  0.2146  0.4222 -0.1117
17700SOL    HW254542   7.447   4.453  10.653  0.4226  0.6151 -1.1112
17701SOL     OW54543   4.245   5.543  10.486 -0.1244 -0.3155  0.2752
17701SOL    HW154544   4.203   5.513  10.406  0.8646 -2.2952  0.4291
17701SOL    HW254545   4.329   5.496  10.488  0.3013  0.4335  1.9637
17702SOL     OW54546   3.263   3.188   1.080  0.1550  0.2144  0.0273
17702SOL    HW154547   3.305   3.152   1.158  0.3621  1.1775  0.3824
17702SOL    HW254548   3.331   3.185   1.013 -0.8711 -3.4341 -1.0745
17703SOL     OW54549   0.573   0.660   2.289  0.4785  0.1599 -0.2257
17703SOL    HW154550   0.511   0.634   2.357 -0.6406 -2.2897 -1.9986
17703SOL    HW254551   0.636   0.587   2.285  1.9069  1.3451 -0.2860
17704SOL     OW54552   1.588   7.088   0.944  0.3481  0.2318  0.1586
17704SOL    HW154553   1.592   7.120   0.854  1.2463  2.5261  0.9377
17704SOL    HW254554   1.504   7.042   0.949 -0.3360  1.1827 -1.5169
17705SOL     OW54555   5.244   5.228   2.679  0.1069 -0.5650  0.1156
17705SOL    HW154556   5.258   5.295   2.612 -0.2703 -1.0129 -0.4212
17705SOL    HW254557   5.324   5.229   2.731 -0.0108  0.5117  0.3101
17706SOL     OW54558   4.480   5.474   1.491  0.0599 -0.3347  0.4898
17706SOL    HW154559   4.419   5.525   1.544 -0.5361  1.5001 -1.7617
17706SOL    HW254560   4.563   5.477   1.539 -0.6666  0.4666  1.7354
17707SOL     OW54561   0.200   0.361   7.314  0.5085 -0.3560 -0.0269
17707SOL    HW154562   0.163   0.432   7.366 -0.0442  0.3712 -1.3687
17707SOL    HW254563   0.128   0.331   7.259  1.1301 -0.9509 -0.5393
17708SOL     OW54564   1.717   5.431  11.775  0.2279  0.2585  0.3099
17708SOL    HW154565   1.694   5.491  11.704 -0.9013 -0.9352 -0.3677
17708SOL    HW254566   1.638   5.380  11.790  0.9758 -0.6579  1.2956
17709SOL     OW54567   5.008   0.913   1.464 -0.2390  0.4602  0.8552
17709SOL    HW154568   5.042   1.001   1.447  0.4719 -0.1865 -1.3554
17709SOL    HW254569   5.080   0.868   1.508  0.9351 -0.1379 -1.5347
17710SOL     OW54570   7.338   6.305   3.658 -0.5363 -0.7158  0.3212
17710SOL    HW154571   7.303   6.270   3.740  0.1880 -0.2146  0.8643
17710SOL    HW254572   7.398   6.238   3.626 -0.6702 -0.8295  0.3112
17711SOL     OW54573   0.331   6.760   7.660  0.4535 -0.3892 -0.1825
17711SOL    HW154574   0.376   6.780   7.741  0.8688 -1.7516 -0.0561
17711SOL    HW254575   0.377   6.685   7.624 -0.9838 -1.0929 -0.6446
17712SOL     OW54576   0.714   5.882  11.414 -0.5875 -0.3781  0.4212
17712SOL    HW154577   0.623   5.911  11.422 -0.8542 -1.2808  0.7485
17712SOL    HW254578   0.721   5.806  11.472  0.6833  0.3526  1.2975
17713SOL     OW54579   0.394   3.242   9.973  0.6070 -0.7061  0.4918
17713SOL    HW154580   0.402   3.337   9.964 -0.3445 -0.7756 -2.2840
17713SOL    HW254581   0.484   3.212   9.988  1.1026  0.5441  0.1728
17714SOL     OW54582   2.760   0.225  10.869  0.5096 -0.3740 -0.3924
17714SOL    HW154583   2.681   0.226  10.922  0.4530 -0.8886 -0.4619
17714SOL    HW254584   2.765   0.314  10.832 -0.9157 -0.7764 -1.6724
17715SOL     OW54585   0.310   5.076  10.756  0.2631  0.2234 -0.2374
17715SOL    HW154586   0.305   5.087  10.661  2.8766 -0.3232 -0.4949
17715SOL    HW254587   0.330   4.983  10.769  0.6903  0.4462  0.8060
17716SOL     OW54588   1.019   0.091   5.136  0.1499  0.1132 -0.2813
17716SOL    HW154589   1.078   0.018   5.158  0.9583  0.9684  0.4621
17716SOL    HW254590   1.001   0.080   5.042 -0.4954 -1.5635  0.0101
17717SOL     OW54591   0.646   5.675   6.116 -0.1120  0.3195 -0.0332
17717SOL    HW154592   0.633   5.760   6.074 -0.9101 -0.3689 -1.2593
17717SOL    HW254593   0.620   5.688   6.207  2.0045  1.9500  0.3992
17718SOL     OW54594   0.785   3.612   8.355  0.1676  0.2121  0.4366
17718SOL    HW154595   0.703   3.591   8.312  0.6048 -2.0289  0.5695
17718SOL    HW254596   0.850   3.613   8.284  0.3146  0.1219  0.5692
17719SOL     OW54597   2.625   6.740   1.439 -0.4972 -0.0550  0.0853
17719SOL    HW154598   2.596   6.800   1.371 -1.0624 -0.3789  0.0328
17719SOL    HW254599   2.653   6.661   1.392 -0.2572 -0.0315  0.1863
17720SOL     OW54600   3.909   1.195   7.376 -0.0998 -0.1947 -0.6145
17720SOL    HW154601   3.849   1.120   7.369 -1.2822  0.7424 -0.7379
17720SOL    HW254602   3.921   1.225   7.286  0.7013 -0.4658 -0.6091
17721SOL     OW54603   7.338   7.795   1.254  0.4295 -0.4235 -0.1890
17721SOL    HW154604   7.423   7.811   1.213 -0.1405  3.0247 -0.3345
17721SOL    HW254605   7.353   7.808   1.347  0.6635 -3.2133  0.2490
17722SOL     OW54606   0.525   1.293   2.802  0.2233  0.8684  0.4799
17722SOL    HW154607   0.609   1.334   2.821  0.2528  1.1644 -0.2761
17722SOL    HW254608   0.463   1.337   2.861  0.7323  0.0242  1.6947
17723SOL     OW54609   7.722   0.356   6.622  0.6941 -0.1974  0.8253
17723SOL    HW154610   7.786   0.377   6.554  0.1880 -1.3040 -0.0180
17723SOL    HW254611   7.772   0.311   6.690  1.2272  1.0304  1.2705
17724SOL     OW54612   3.735   1.061   2.490 -0.1071 -0.0839  0.4655
17724SOL    HW154613   3.730   0.984   2.433  2.2020 -0.4888  0.7134
17724SOL    HW254614   3.662   1.050   2.551 -1.7279 -0.4106 -1.4209
17725SOL     OW54615   1.396   5.127   1.329 -0.5162 -0.0209 -0.3513
17725SOL    HW154616   1.485   5.096   1.318 -0.7615  0.0390 -3.3563
17725SOL    HW254617   1.390   5.153   1.421  2.5402  0.0042 -0.0737
17726SOL     OW54618   3.614   0.796   1.318  0.0205  0.3852 -0.4879
17726SOL    HW154619   3.683   0.730   1.306  0.0421  0.5123 -1.0641
17726SOL    HW254620   3.555   0.757   1.382 -1.3869 -1.3459 -2.6940
17727SOL     OW54621   6.267   2.541   7.980  0.2037  0.5449  0.0366
17727SOL    HW154622   6.281   2.599   8.055 -3.4326  0.7962  0.7345
17727SOL    HW254623   6.282   2.453   8.015 -1.7125  0.6389  1.2455
17728SOL     OW54624   3.795   7.546   5.044 -0.1434 -0.0892  0.4003
17728SOL    HW154625   3.789   7.626   4.992 -0.0664 -0.2514  0.1377
17728SOL    HW254626   3.757   7.478   4.988  0.8096 -0.4508  0.1640
17729SOL     OW54627   7.332   2.115   4.757 -1.1248  0.4142  0.0179
17729SOL    HW154628   7.335   2.029   4.714 -1.8228 -0.5863  1.8356
17729SOL    HW254629   7.423   2.132   4.782 -0.9490  0.3081 -0.5319
17730SOL     OW54630   2.468   5.713   7.863 -0.1508  0.0556  0.4433
17730SOL    HW154631   2.399   5.649   7.849  0.6730 -0.7008 -0.3061
17730SOL    HW254632   2.500   5.694   7.951  0.6298 -1.1417 -0.0660
17731SOL     OW54633   3.944   6.501   9.722 -0.0309 -0.5549  0.2061
17731SOL    HW154634   3.897   6.447   9.659 -1.3153 -0.7639  1.2857
17731SOL    HW254635   3.885   6.574   9.741  0.0124 -0.8523  1.6479
17732SOL     OW54636   2.101   3.244   0.466 -0.6234  0.5608  0.4283
17732SOL    HW154637   2.085   3.265   0.374 -0.3086  0.2748  0.3085
17732SOL    HW254638   2.015   3.253   0.507 -1.0771 -0.7906 -0.1713
17733SOL     OW54639   5.515   7.554   0.312 -0.1402 -0.3075 -0.3511
17733SOL    HW154640   5.460   7.625   0.345 -0.0856  0.1339 -1.1831
17733SOL    HW254641   5.580   7.597   0.258 -0.1652 -0.9993 -0.9463
17734SOL     OW54642   4.082   6.153   0.800 -0.0644 -0.0570  0.1492
17734SOL    HW154643   4.176   6.160   0.815  0.0117  0.7681 -0.6274
17734SOL    HW254644   4.046   6.236   0.832 -0.7236 -0.8975  1.6917
17735SOL     OW54645   3.068   0.535   5.140  0.0141 -0.2538 -0.3263
17735SOL    HW154646   3.052   0.570   5.052 -0.2805  0.6209  0.0590
17735SOL    HW254647   2.984   0.546   5.186  0.2705 -0.3568  0.1764
17736SOL     OW54648   0.427   2.863   8.904  0.2233 -0.1296 -0.2834
17736SOL    HW154649   0.339   2.849   8.868  0.3586  0.9236 -1.0679
17736SOL    HW254650   0.435   2.797   8.973 -1.3962  0.1218  0.1957
17737SOL     OW54651   4.833   7.383   1.113  0.3150  0.1661  0.4539
17737SOL    HW154652   4.852   7.395   1.020  0.4859  0.9359  0.5789
17737SOL    HW254653   4.781   7.303   1.116 -0.6753  0.7410 -0.4379
17738SOL     OW54654   0.917   1.324   6.444 -0.2346  0.4175  0.1606
17738SOL    HW154655   0.909   1.284   6.530  1.2629  0.7460  0.4795
17738SOL    HW254656   0.826   1.336   6.414 -0.8053  0.9274  1.9778
17739SOL     OW54657   0.423   2.230   0.668 -0.3603  0.2895 -0.1784
17739SOL    HW154658   0.474   2.155   0.700  1.9053  2.0402  0.5975
17739SOL    HW254659   0.456   2.246   0.580  0.2922  1.2720  0.2262
17740SOL     OW54660   4.861   4.892   9.028 -0.3392  0.0807 -0.1720
17740SOL    HW154661   4.911   4.846   9.095 -0.1360  1.5669  0.7460
17740SOL    HW254662   4.821   4.966   9.074 -1.0446  0.5444 -1.4789
17741SOL     OW54663   0.902   4.889   3.640 -0.2001  0.1095  0.2005
17741SOL    HW154664   0.944   4.831   3.576  1.8936 -1.4814  2.8356
17741SOL    HW254665   0.897   4.974   3.595  1.3000 -0.8672 -1.9973
17742SOL     OW54666   7.781   6.904   2.993  0.6717  0.3535 -0.1332
17742SOL    HW154667   7.811   6.966   2.927  0.0178  1.7336  0.8130
17742SOL    HW254668   7.726   6.842   2.945  3.6043 -1.3248 -1.6261
17743SOL     OW54669   4.497   2.960  10.311  0.3057 -0.1145 -0.0722
17743SOL    HW154670   4.537   2.943  10.225  0.8416  1.6435 -0.2016
17743SOL    HW254671   4.413   2.914  10.308  0.5228 -0.4653 -1.3535
17744SOL     OW54672   0.865   5.906  12.272  0.1431 -0.0900  0.5986
17744SOL    HW154673   0.928   5.874  12.337 -2.0772 -1.2533  2.3330
17744SOL    HW254674   0.854   5.832  12.212 -0.3731 -0.3197  0.9665
17745SOL     OW54675   7.823   4.001   6.907 -0.1859 -0.0186  0.3719
17745SOL    HW154676   7.739   4.012   6.862 -1.0883  1.2428  2.2621
17745SOL    HW254677   7.815   4.052   6.987  1.8907 -1.0069  1.2956
17746SOL     OW54678   4.018   4.220   3.732 -0.5431 -0.4850 -0.2186
17746SOL    HW154679   3.934   4.200   3.690 -0.2988  0.7983 -1.3800
17746SOL    HW254680   4.076   4.150   3.704 -0.9536 -0.8317 -0.2187
17747SOL     OW54681   6.265   3.864   9.942 -0.3732 -0.1198  0.3994
17747SOL    HW154682   6.316   3.911   9.875  0.7033  0.2499  1.4312
17747SOL    HW254683   6.188   3.832   9.895  0.6470 -0.4192 -1.1671
17748SOL     OW54684   6.720   3.098   9.634 -0.3303 -1.0460 -0.1749
17748SOL    HW154685   6.740   3.100   9.728 -1.2105  0.8721  0.0161
17748SOL    HW254686   6.806   3.100   9.592  0.1031  1.4973  0.6415
17749SOL     OW54687   2.601   2.743   9.613 -0.0515  0.2514  0.3106
17749SOL    HW154688   2.580   2.673   9.551 -1.1515  0.3557  0.5438
17749SOL    HW254689   2.540   2.813   9.591  2.5302  2.1189 -1.4624
17750SOL     OW54690   3.664   1.734   8.268 -0.4782  0.3582  0.2450
17750SOL    HW154691   3.732   1.790   8.231 -0.7745  2.2773  2.3679
17750SOL    HW254692   3.711   1.659   8.304  0.0532 -0.2672 -1.6568
17751SOL     OW54693   6.247   5.919   6.841 -0.2032 -0.7183  0.5675
17751SOL    HW154694   6.308   5.847   6.822  0.3604 -0.5510  1.6469
17751SOL    HW254695   6.285   5.962   6.918 -0.7159  0.5265  0.1408
17752SOL     OW54696   5.127   1.962   6.556 -0.5179  0.4308  0.1813
17752SOL    HW154697   5.191   1.940   6.489 -1.1713 -1.1293  0.0086
17752SOL    HW254698   5.089   2.045   6.527  2.3513  2.1664  1.0353
17753SOL     OW54699   2.915   5.306   4.234  0.4261  0.0391 -0.0815
17753SOL    HW154700   2.955   5.331   4.151  0.8320  1.5660  0.5395
17753SOL    HW254701   2.967   5.231   4.264  0.3158 -0.4827 -1.1550
17754SOL     OW54702   3.281   6.494   3.777 -0.1600 -0.5462  0.9212
17754SOL    HW154703   3.238   6.567   3.732  2.7859  1.4750  1.1053
17754SOL    HW254704   3.245   6.496   3.866 -0.6668  0.1664  0.7124
17755SOL     OW54705   7.175   6.903   8.215 -0.5716  0.0867 -0.5931
17755SOL    HW154706   7.103   6.946   8.170  1.2885 -0.1580 -4.1484
17755SOL    HW254707   7.151   6.811   8.219 -0.6005  0.0486 -1.5174
17756SOL     OW54708   5.280   1.328   7.154  0.6175  0.4491  0.3437
17756SOL    HW154709   5.242   1.410   7.121  1.4459  0.1227 -1.5695
17756SOL    HW254710   5.349   1.356   7.214  0.9759  1.1742 -0.3816
17757SOL     OW54711   4.315   1.404   6.959 -0.3736  0.2550 -0.0308
17757SOL    HW154712   4.368   1.427   6.883 -0.9236 -2.2446 -1.2608
17757SOL    HW254713   4.338   1.313   6.978  0.3747  1.0250  3.3846
17758SOL     OW54714   3.816   6.840   8.364 -0.0151  0.1818 -0.2238
17758SOL    HW154715   3.840   6.931   8.351 -0.1883 -0.0229 -2.2911
17758SOL    HW254716   3.899   6.795   8.383  0.1749  0.6476  0.0508
17759SOL     OW54717   7.846   4.006   9.343  0.3519 -0.0675 -0.3052
17759SOL    HW154718   7.905   4.066   9.297  0.8001 -0.5193 -0.3176
17759SOL    HW254719   7.787   3.974   9.275 -0.8453  1.4630 -0.0579
17760SOL     OW54720   4.638   6.144   2.006 -0.3169 -0.8366  0.1074
17760SOL    HW154721   4.646   6.099   2.090  2.2797 -2.7752 -1.0574
17760SOL    HW254722   4.600   6.078   1.948 -1.3485  0.2323 -0.4756
17761SOL     OW54723   1.758   7.813  11.002 -0.0275 -0.1430  0.4299
17761SOL    HW154724   1.704   7.859  10.939  0.1821  0.8168  0.9372
17761SOL    HW254725   1.713   7.826  11.086  1.0759  0.8419  0.8893
17762SOL     OW54726   6.501   4.288  11.334 -0.1672  0.1085 -0.0142
17762SOL    HW154727   6.471   4.219  11.393  1.1721 -0.4169  0.1036
17762SOL    HW254728   6.453   4.366  11.361 -3.4016 -1.1649 -1.5763
17763SOL     OW54729   4.370   4.247   0.783  0.1684 -0.0348  0.1748
17763SOL    HW154730   4.403   4.306   0.715 -1.1093 -0.9662 -1.3057
17763SOL    HW254731   4.280   4.228   0.757 -0.0006 -1.2879  1.5546
17764SOL     OW54732   2.932   4.523   7.149 -0.4430  0.5884 -0.1791
17764SOL    HW154733   2.846   4.537   7.111 -0.1574 -0.4785 -1.3068
17764SOL    HW254734   2.915   4.493   7.238 -1.2818 -0.3937 -0.6516
17765SOL     OW54735   2.658   1.968   8.775  0.3416  0.1645 -0.7144
17765SOL    HW154736   2.586   1.908   8.753 -0.0255  0.6696 -0.9136
17765SOL    HW254737   2.724   1.952   8.707  0.1030  0.2201 -0.9618
17766SOL     OW54738   6.308   7.665   3.920  0.4249  0.4140 -0.4068
17766SOL    HW154739   6.344   7.641   3.835  1.0436 -0.4732  0.0917
17766SOL    HW254740   6.242   7.731   3.900  0.7853  0.4509 -1.5422
17767SOL     OW54741   1.509   2.910   4.979 -0.7993 -0.4667  0.2580
17767SOL    HW154742   1.543   2.821   4.973 -0.9023 -0.5114  0.3208
17767SOL    HW254743   1.582   2.966   4.956 -1.1163 -0.6205 -1.2184
17768SOL     OW54744   7.698   4.234   7.406  0.5746  0.3329  0.1429
17768SOL    HW154745   7.719   4.325   7.386  0.5014  0.5802  1.1529
17768SOL    HW254746   7.605   4.236   7.431 -0.3721 -0.5196 -2.8376
17769SOL     OW54747   3.797   2.758   4.972 -0.1096 -0.1556  0.8614
17769SOL    HW154748   3.702   2.751   4.975 -0.1074 -0.5513  0.1959
17769SOL    HW254749   3.824   2.759   5.064 -0.6077 -2.1363  1.0565
17770SOL     OW54750   5.669   0.061   0.532 -0.0312  0.0605  0.3799
17770SOL    HW154751   5.720  -0.020   0.526 -0.6666 -0.3999  1.0566
17770SOL    HW254752   5.621   0.053   0.614 -3.3375 -0.8161 -1.4343
17771SOL     OW54753   0.097   3.955   9.102  0.0777  0.0554 -0.0250
17771SOL    HW154754   0.062   3.875   9.141 -0.1030  0.1103 -0.0731
17771SOL    HW254755   0.122   4.009   9.177 -0.0551  0.0668  0.0117
17772SOL     OW54756   0.551   4.742   3.453 -0.1409  0.1820 -0.2602
17772SOL    HW154757   0.640   4.722   3.424  0.0259 -0.3564  0.5896
17772SOL    HW254758   0.497   4.674   3.411 -0.2283  0.7924 -1.1588
17773SOL     OW54759   5.931   4.949  12.015 -0.2774 -0.2357  0.2092
17773SOL    HW154760   5.979   4.872  12.044 -1.9090 -1.3310  0.1155
17773SOL    HW254761   5.980   4.981  11.939  1.3287 -0.1776  1.2283
17774SOL     OW54762   6.801   7.857   8.548  0.4699  1.0631  0.2317
17774SOL    HW154763   6.772   7.768   8.530  0.3604  1.1421  0.0104
17774SOL    HW254764   6.886   7.846   8.590 -0.0951  0.8177  1.3374
17775SOL     OW54765   7.691   0.973   7.927 -0.1043 -0.0406 -0.1184
17775SOL    HW154766   7.724   1.062   7.925 -3.0325  1.1932  0.3658
17775SOL    HW254767   7.741   0.927   7.860  2.5343  1.4980  0.6458
17776SOL     OW54768   4.997   4.737  10.815 -0.3969  0.1828 -0.0205
17776SOL    HW154769   4.969   4.802  10.750 -0.8223 -0.1825 -0.2096
17776SOL    HW254770   4.920   4.725  10.871 -0.7239 -1.0257 -0.7028
17777SOL     OW54771   5.426   7.239   9.000 -0.0713 -0.0450 -0.1785
17777SOL    HW154772   5.413   7.310   8.937 -1.9195 -1.5447 -1.5728
17777SOL    HW254773   5.339   7.204   9.015  0.9140 -2.7908 -0.4339
17778SOL     OW54774   0.404   4.282   6.420  0.3429 -0.1342 -0.3506
17778SOL    HW154775   0.422   4.310   6.510  1.7411 -1.2619 -0.2397
17778SOL    HW254776   0.381   4.190   6.427 -1.1224  0.1498 -1.0191
17779SOL     OW54777   6.763   0.576   8.182  0.2714  0.5681  0.1390
17779SOL    HW154778   6.849   0.556   8.220  0.7767  1.6033 -0.4136
17779SOL    HW254779   6.714   0.616   8.254  0.9938  1.9121 -0.0820
17780SOL     OW54780   0.769   6.864   9.543 -0.5990  0.4162  0.2467
17780SOL    HW154781   0.730   6.880   9.629 -0.9762 -0.4687  0.2529
17780SOL    HW254782   0.822   6.786   9.555  0.7447  1.2745  0.0915
17781SOL     OW54783   5.994   0.002  11.842  0.3398 -0.1102 -0.0615
17781SOL    HW154784   6.070  -0.021  11.789  1.5604  2.8733  0.2129
17781SOL    HW254785   5.931   0.038  11.780  0.0461 -0.5341 -0.0109
17782SOL     OW54786   2.711   1.777   2.284  0.3916  0.5467  0.1843
17782SOL    HW154787   2.616   1.768   2.283  0.0760  3.1179  1.2005
17782SOL    HW254788   2.737   1.750   2.372  0.7674 -0.9580 -0.3447
17783SOL     OW54789   2.740   1.791   6.715  0.1205  0.2796 -0.0318
17783SOL    HW154790   2.809   1.725   6.707 -0.8826 -0.7962  0.0316
17783SOL    HW254791   2.757   1.834   6.799  1.8747  1.4240 -0.9002
17784SOL     OW54792   2.894   2.428   5.649 -0.1651 -0.2146 -0.0169
17784SOL    HW154793   2.983   2.439   5.616  0.3085  0.2740  1.3687
17784SOL    HW254794   2.902   2.440   5.743 -1.7161 -0.1013  0.1186
17785SOL     OW54795   4.635   1.690  10.076  0.1809 -0.8319 -0.2656
17785SOL    HW154796   4.625   1.674   9.983  0.0094 -0.5857 -0.2923
17785SOL    HW254797   4.714   1.744  10.083 -0.8101  0.7061 -0.4526
17786SOL     OW54798   0.354   7.487   7.076  0.7463  0.4317 -0.4919
17786SOL    HW154799   0.395   7.459   7.158  0.5277 -1.7710 -1.0730
17786SOL    HW254800   0.408   7.449   7.007 -0.5437  0.0002 -1.3099
17787SOL     OW54801   0.548   1.279   8.312 -0.7160  0.0159  0.0196
17787SOL    HW154802   0.607   1.205   8.323  1.0840  1.6117  1.6148
17787SOL    HW254803   0.466   1.251   8.354  0.2225 -0.7436  1.4085
17788SOL     OW54804   7.851   7.873   6.167  0.5332 -0.1864  0.8398
17788SOL    HW154805   7.838   7.786   6.129  1.0149 -0.1759  0.6338
17788SOL    HW254806   7.933   7.904   6.127  0.5198  0.2383  1.1355
17789SOL     OW54807   7.341   1.076  10.819  0.4724  0.2324 -0.1833
17789SOL    HW154808   7.419   1.042  10.863 -0.2051 -0.1551  0.7528
17789SOL    HW254809   7.270   1.062  10.882 -0.2644  1.0604 -0.8098
17790SOL     OW54810   1.497   3.139  10.703  0.2734  0.1958  0.3219
17790SOL    HW154811   1.479   3.224  10.662  0.5192 -1.5847 -4.0366
17790SOL    HW254812   1.410   3.103  10.723 -0.0337  0.0816 -1.1337
17791SOL     OW54813   2.372   6.130   0.038 -0.4658  0.5217  0.0288
17791SOL    HW154814   2.416   6.195  -0.017  2.7033  0.3682  2.1645
17791SOL    HW254815   2.359   6.055  -0.021  0.0100  1.4268 -1.2883
17792SOL     OW54816   0.770   2.146   1.765  0.0268 -0.9160 -0.1175
17792SOL    HW154817   0.708   2.088   1.810 -1.1647 -0.9788 -1.7416
17792SOL    HW254818   0.725   2.170   1.684  1.9244 -0.4659 -1.0769
17793SOL     OW54819   7.548   5.443   9.598 -0.2387  0.7407  0.1987
17793SOL    HW154820   7.641   5.424   9.610 -0.1177 -0.3964 -2.0843
17793SOL    HW254821   7.512   5.364   9.558 -2.5222  0.6182  2.2241
17794SOL     OW54822   4.036   5.744   9.371  0.1417 -0.3822  0.5129
17794SOL    HW154823   3.946   5.712   9.368  0.5200 -1.5919  1.3150
17794SOL    HW254824   4.090   5.665   9.368  1.1686  0.2943  0.5604
17795SOL     OW54825   6.874   5.097   6.918  0.3305 -0.3700  0.1157
17795SOL    HW154826   6.931   5.169   6.945 -0.5684  1.1439 -1.8336
17795SOL    HW254827   6.922   5.053   6.848 -0.6072  0.5777 -1.1602
17796SOL     OW54828   3.230   2.815   4.427 -0.4813  0.1294  0.2052
17796SOL    HW154829   3.158   2.868   4.393  1.1334  1.6067 -1.1092
17796SOL    HW254830   3.307   2.871   4.419  0.6745 -0.9940  2.5825
17797SOL     OW54831   6.293   7.509  11.752 -0.2581  0.1896 -0.1026
17797SOL    HW154832   6.224   7.535  11.691 -0.4747  0.9812  0.4651
17797SOL    HW254833   6.304   7.415  11.736 -0.2024  0.3991 -1.4559
17798SOL     OW54834   7.034   7.249  10.453  0.0965  0.2143  0.1727
17798SOL    HW154835   7.106   7.301  10.488  0.1159  0.3798 -0.1098
17798SOL    HW254836   7.042   7.258  10.358  0.7879 -1.2176  0.0605
17799SOL     OW54837   7.650   2.675   6.674 -0.2035 -0.0877  0.2791
17799SOL    HW154838   7.569   2.676   6.623  1.1879 -0.5882 -2.0846
17799SOL    HW254839   7.626   2.718   6.756 -3.0833 -1.0802  0.0909
17800SOL     OW54840   7.733   5.220   7.115  0.6905 -0.1581 -0.3321
17800SOL    HW154841   7.787   5.298   7.125  0.0941  0.2939 -0.6043
17800SOL    HW254842   7.795   5.147   7.122  1.2474  0.3340 -0.0553
17801SOL     OW54843   0.219   0.867  12.367 -0.1815  0.0634  0.2651
17801SOL    HW154844   0.186   0.791  12.320 -0.8185 -0.0902  0.9347
17801SOL    HW254845   0.240   0.835  12.454 -0.3757  0.6269  0.5295
17802SOL     OW54846   7.372   1.724   5.285  0.3290 -0.0582 -0.3692
17802SOL    HW154847   7.341   1.639   5.318 -0.5946  0.6728  0.7317
17802SOL    HW254848   7.308   1.748   5.218  0.9726 -0.5311 -1.1651
17803SOL     OW54849   7.091   5.119   0.283 -0.3440  0.4609  0.9917
17803SOL    HW154850   7.146   5.082   0.214 -0.3914 -1.7555  2.0622
17803SOL    HW254851   7.004   5.128   0.243 -0.2917 -0.4880  0.6435
17804SOL     OW54852   4.928   3.105   3.511 -0.8266 -0.0039  0.1545
17804SOL    HW154853   5.003   3.151   3.548 -1.3347  0.5267  0.5469
17804SOL    HW254854   4.884   3.066   3.587 -3.5785  3.5390  0.7044
17805SOL     OW54855   7.630   1.157   8.487  0.9763 -0.2316 -0.1280
17805SOL    HW154856   7.651   1.250   8.495 -1.2424  0.5160 -2.0145
17805SOL    HW254857   7.618   1.127   8.577  1.3238  1.4027  0.4856
17806SOL     OW54858   4.783   1.240   9.424 -0.3530 -0.2884  0.0508
17806SOL    HW154859   4.714   1.306   9.420 -0.9277 -0.8773  0.0399
17806SOL    HW254860   4.851   1.279   9.478 -0.1864  0.7563 -0.8719
17807SOL     OW54861   4.053   5.558   2.456 -0.1945 -0.0409 -0.3046
17807SOL    HW154862   4.079   5.488   2.516 -1.3448  0.4348  0.8043
17807SOL    HW254863   3.957   5.551   2.453 -0.1971  0.4283 -1.5098
17808SOL     OW54864   5.603   0.410  12.328  0.1414 -0.1233  0.4425
17808SOL    HW154865   5.609   0.467  12.405  1.7652  0.3347  0.0004
17808SOL    HW254866   5.515   0.371  12.334 -0.6382  1.6727  1.2707
17809SOL     OW54867   0.844   0.957   6.612  0.8378  0.3597 -0.0649
17809SOL    HW154868   0.848   0.957   6.516 -0.1361  1.5653 -0.1345
17809SOL    HW254869   0.842   1.049   6.636  0.4026  0.0749  1.0833
17810SOL     OW54870   5.884   3.354   7.855 -0.2877 -0.3087  0.5393
17810SOL    HW154871   5.791   3.375   7.861 -0.2284  0.4086 -0.6666
17810SOL    HW254872   5.887   3.258   7.855 -1.0364 -0.3405  0.4419
17811SOL     OW54873   7.366   0.387   0.218 -0.3700  0.7416 -0.5311
17811SOL    HW154874   7.441   0.393   0.278 -1.3237 -0.9025  0.9260
17811SOL    HW254875   7.398   0.422   0.135  2.5042 -1.3038 -0.4059
17812SOL     OW54876   4.750   5.273   3.846  0.7775  0.1422  0.0006
17812SOL    HW154877   4.695   5.252   3.770  0.1894  0.3145  0.3690
17812SOL    HW254878   4.762   5.367   3.842  1.0954  0.0973 -0.1097
17813SOL     OW54879   4.537   0.376   0.849 -0.1137 -0.3449  0.4211
17813SOL    HW154880   4.603   0.307   0.850  1.1419  0.8113  1.2725
17813SOL    HW254881   4.570   0.440   0.787 -0.7000  0.0073  0.4651
17814SOL     OW54882   1.061   1.668   2.745 -0.3481  0.2589 -0.1574
17814SOL    HW154883   1.132   1.655   2.807 -0.3809  1.9516  0.2677
17814SOL    HW254884   0.981   1.663   2.797 -0.3730  1.7552  0.0049
17815SOL     OW54885   0.128   4.303  10.066  0.4418 -0.1810 -0.2772
17815SOL    HW154886   0.168   4.238  10.007 -2.6109 -1.6467 -0.9127
17815SOL    HW254887   0.155   4.276  10.154 -0.6883 -2.3685 -0.5353
17816SOL     OW54888   0.438   2.768  12.231  0.0126 -0.3576  0.3703
17816SOL    HW154889   0.420   2.835  12.297 -0.8050 -1.0211  0.8285
17816SOL    HW254890   0.499   2.811  12.171  0.5231  0.3762  1.3606
17817SOL     OW54891   3.788   3.754   1.018  0.4277 -0.3089 -0.2571
17817SOL    HW154892   3.729   3.690   0.978  0.9925 -0.2577 -1.1967
17817SOL    HW254893   3.786   3.829   0.958 -0.2524  0.5839  0.8444
17818SOL     OW54894   4.856   2.554   5.712  0.2540 -0.0265  0.4062
17818SOL    HW154895   4.761   2.569   5.714  0.3591  0.5332  1.8986
17818SOL    HW254896   4.865   2.458   5.716 -0.2346 -0.1232 -0.3901
17819SOL     OW54897   6.938   5.600   2.644  0.0693 -0.9245 -0.4195
17819SOL    HW154898   6.875   5.630   2.579  2.6963  1.0167 -2.3054
17819SOL    HW254899   6.991   5.535   2.596 -0.4978 -2.6584  1.1711
17820SOL     OW54900   2.496   7.637   5.592  0.8876  0.0697  0.0054
17820SOL    HW154901   2.402   7.653   5.581  1.1851  1.4513 -0.8393
17820SOL    HW254902   2.527   7.616   5.505  1.6189  1.2594 -0.0509
17821SOL     OW54903   3.811   7.298   6.398 -0.2784  0.5003 -0.2425
17821SOL    HW154904   3.728   7.282   6.443  0.7822  1.1594  2.0717
17821SOL    HW254905   3.785   7.336   6.314 -2.3500 -0.8798 -0.2960
17822SOL     OW54906   2.115   6.205   0.456  0.6722 -0.8496  0.1264
17822SOL    HW154907   2.064   6.185   0.378  0.4694  1.0661 -0.2679
17822SOL    HW254908   2.206   6.188   0.430  0.4774 -1.7938  0.0211
17823SOL     OW54909   7.608   1.866  10.912  0.2932  0.0326 -0.2591
17823SOL    HW154910   7.611   1.774  10.938  0.9100  0.6094  1.9319
17823SOL    HW254911   7.670   1.909  10.971 -2.0829  2.2907  0.7465
17824SOL     OW54912   7.011   7.051   2.442 -0.6900  0.2485  0.1586
17824SOL    HW154913   7.096   7.082   2.473 -1.4090  3.3565 -0.5783
17824SOL    HW254914   7.009   7.077   2.349 -2.2361 -0.2182  0.0400
17825SOL     OW54915   4.358   6.486  10.703  0.3695 -0.1535  0.2036
17825SOL    HW154916   4.392   6.457  10.788 -0.3842 -0.4608  0.4101
17825SOL    HW254917   4.325   6.405  10.662 -0.7146  0.2273  0.2988
17826SOL     OW54918   5.192   2.222   1.222 -0.3129 -0.4570  0.3832
17826SOL    HW154919   5.149   2.143   1.189 -0.3271 -0.0119 -0.6799
17826SOL    HW254920   5.247   2.252   1.150 -0.4140  0.5953  0.7281
17827SOL     OW54921   5.979   1.645   0.370 -0.5694  0.0913  0.2300
17827SOL    HW154922   5.981   1.722   0.313  0.5824  0.2435  0.4588
17827SOL    HW254923   5.975   1.680   0.458  0.2704 -0.0994  0.3496
17828SOL     OW54924   0.638   5.359   9.316 -0.1042 -0.2651  0.6871
17828SOL    HW154925   0.633   5.279   9.367  3.5837  0.8914  3.3767
17828SOL    HW254926   0.581   5.421   9.362 -0.8959 -0.6110  0.1852
17829SOL     OW54927   6.423   2.392   0.458 -0.4174  0.1162 -0.4660
17829SOL    HW154928   6.372   2.346   0.525  0.7251 -0.5852 -0.0526
17829SOL    HW254929   6.412   2.485   0.480 -1.7380  0.0026 -0.5627
17830SOL     OW54930   4.660   0.823  10.294 -0.1667 -0.0033  0.1453
17830SOL    HW154931   4.635   0.915  10.289  0.8082  0.2523 -0.2939
17830SOL    HW254932   4.614   0.790  10.371 -0.0406  1.0070  0.6705
17831SOL     OW54933   7.038   6.073   6.433 -0.3207 -0.4767  0.5632
17831SOL    HW154934   7.019   6.078   6.339 -0.8441 -1.2944  0.6161
17831SOL    HW254935   7.122   6.118   6.443 -0.8491  0.7105 -0.1115
17832SOL     OW54936   6.146   6.464   4.191  0.0245 -0.4342  0.0974
17832SOL    HW154937   6.100   6.435   4.112  0.8195 -0.0477 -0.5131
17832SOL    HW254938   6.126   6.397   4.256 -0.7941 -0.6558 -0.3714
17833SOL     OW54939   5.969   2.069   2.182  0.4029  0.1561  0.0653
17833SOL    HW154940   5.979   2.052   2.088  0.5977  0.7932 -0.0414
17833SOL    HW254941   5.905   2.140   2.187  1.2722  0.9597  0.3248
17834SOL     OW54942   2.229   0.510   7.287 -0.1489  0.0711 -0.1360
17834SOL    HW154943   2.141   0.474   7.296 -0.3013  0.3261 -0.5638
17834SOL    HW254944   2.251   0.541   7.375 -1.1831  1.5717 -0.3517
17835SOL     OW54945   2.012   1.904   7.896 -0.0091 -0.2384  0.3119
17835SOL    HW154946   1.974   1.818   7.880  0.7072 -0.3148 -1.1614
17835SOL    HW254947   1.983   1.927   7.984 -3.2775 -0.3504 -0.5964
17836SOL     OW54948   5.010   3.511  12.249 -0.5405 -0.5184  0.3253
17836SOL    HW154949   4.991   3.543  12.337 -0.4050  1.1429 -0.2223
17836SOL    HW254950   5.094   3.551  12.226 -1.0099 -0.1997 -0.8997
17837SOL     OW54951   6.303   5.435   3.611  0.5971 -0.4326 -0.1861
17837SOL    HW154952   6.210   5.412   3.608  0.7480 -1.1536  0.3887
17837SOL    HW254953   6.344   5.381   3.543  0.5363  0.2291 -0.7627
17838SOL     OW54954   5.580   1.166   6.075 -0.0463 -0.2139  0.1452
17838SOL    HW154955   5.519   1.097   6.049 -0.0274 -0.6164  1.1235
17838SOL    HW254956   5.653   1.119   6.115  1.3568  0.1959 -1.7815
17839SOL     OW54957   4.606   2.851  10.097  0.0572  0.0171 -0.4257
17839SOL    HW154958   4.674   2.918  10.104 -1.5242  1.7955 -1.2833
17839SOL    HW254959   4.571   2.862  10.009  0.5200 -2.7639 -1.0286
17840SOL     OW54960   4.347   1.096   2.773 -0.0082 -0.1496 -0.5038
17840SOL    HW154961   4.362   1.065   2.863 -1.9612 -1.6668 -0.6417
17840SOL    HW254962   4.361   1.019   2.719 -0.4924  0.3462 -1.3488
17841SOL     OW54963   2.774   0.340   2.132 -0.1208  0.5705  0.3240
17841SOL    HW154964   2.836   0.404   2.096 -1.0319 -0.0190 -2.5855
17841SOL    HW254965   2.689   0.370   2.102 -0.6483 -1.5533 -0.4424
17842SOL     OW54966   6.134   2.770   9.581 -0.4305 -0.0931 -0.0619
17842SOL    HW154967   6.087   2.740   9.503 -2.3589  0.5831  0.7752
17842SOL    HW254968   6.065   2.793   9.643  0.9747 -3.3395  3.0049
17843SOL     OW54969   7.661   2.333  10.336 -0.0834  0.1931  0.3383
17843SOL    HW154970   7.714   2.268  10.289  0.2208  0.8541 -0.2439
17843SOL    HW254971   7.720   2.371  10.401 -0.6250 -1.0417  1.6118
17844SOL     OW54972   5.806   1.999   0.556  0.8085 -0.3875 -0.0689
17844SOL    HW154973   5.769   1.917   0.590  2.6200 -1.3670 -0.3503
17844SOL    HW254974   5.797   1.992   0.461 -2.4043  1.4558 -0.0284
17845SOL     OW54975   7.097   6.979   0.688 -0.0237  0.1227  0.0620
17845SOL    HW154976   7.093   6.949   0.778  2.9240  0.1891  0.3051
17845SOL    HW254977   7.127   6.902   0.638 -1.9169 -0.0098 -0.9666
17846SOL     OW54978   7.740   4.289   0.097  0.4588 -0.0123 -0.1473
17846SOL    HW154979   7.698   4.309   0.013  0.2487 -1.2990 -0.3610
17846SOL    HW254980   7.667   4.271   0.156  0.6571 -0.8166 -0.1410
17847SOL     OW54981   3.553   4.146  12.045 -0.2555 -0.1934 -0.1159
17847SOL    HW154982   3.461   4.172  12.053 -0.2071 -0.1845  0.4943
17847SOL    HW254983   3.570   4.094  12.124  0.9335  1.8882  1.0911
17848SOL     OW54984   1.514   7.306  11.342  0.1138  0.0404  0.2715
17848SOL    HW154985   1.420   7.293  11.347  0.1131 -0.4024 -0.5866
17848SOL    HW254986   1.525   7.385  11.289  0.2293 -0.6919 -0.8334
17849SOL     OW54987   5.727   1.398   4.899 -0.0900 -0.4218 -0.6935
17849SOL    HW154988   5.714   1.405   4.994 -1.1298  0.8067 -0.8966
17849SOL    HW254989   5.802   1.455   4.881 -0.6679  0.3471 -0.7421
17850SOL     OW54990   6.397   2.752  11.323 -0.1766  0.8706  0.2551
17850SOL    HW154991   6.384   2.677  11.265 -1.3619  1.0676  0.2312
17850SOL    HW254992   6.351   2.727  11.404 -0.6929  1.6148  0.2013
17851SOL     OW54993   6.730   7.339  10.476  0.1265 -0.2117  0.2209
17851SOL    HW154994   6.824   7.353  10.484  0.0460  0.2523  0.3962
17851SOL    HW254995   6.696   7.349  10.565 -0.1352 -0.0324  0.1032
17852SOL     OW54996   4.438   4.204   0.026  0.2133  0.2430 -0.9323
17852SOL    HW154997   4.406   4.289  -0.005 -0.4866 -0.1709 -1.3691
17852SOL    HW254998   4.520   4.190  -0.022  0.4232  0.7451 -0.7283
17853SOL     OW54999   0.726   7.004   7.353  0.2839 -0.3420 -0.0945
17853SOL    HW155000   0.787   7.045   7.414 -0.3422 -0.6585  0.7638
17853SOL    HW255001   0.746   7.044   7.268  1.1854  0.0845  0.3082
17854SOL     OW55002   0.601   6.271   9.000 -0.2180 -0.2094  0.0045
17854SOL    HW155003   0.547   6.192   9.003 -1.2421  0.4451 -0.3923
17854SOL    HW255004   0.537   6.343   8.994  0.7137  0.5297 -1.9125
17855SOL     OW55005   2.550   1.668   9.799  0.4593 -0.1542 -0.2580
17855SOL    HW155006   2.497   1.734   9.843 -1.1566 -1.3979 -0.2435
17855SOL    HW255007   2.543   1.689   9.706  0.7169  0.2201 -0.1952
17856SOL     OW55008   3.369   0.406   3.333 -0.4271  0.7059  0.1449
17856SOL    HW155009   3.290   0.441   3.293 -1.6162 -0.0727  1.6786
17856SOL    HW255010   3.403   0.478   3.386 -1.1865  0.5006  0.9416
17857SOL     OW55011   2.223   2.384  11.637 -0.2578  0.1443  0.3112
17857SOL    HW155012   2.274   2.305  11.658 -1.7964 -1.0805 -0.3446
17857SOL    HW255013   2.206   2.424  11.723  0.2485 -0.4112  0.6838
17858SOL     OW55014   7.109   4.025   1.754  0.5113  0.1424 -0.7566
17858SOL    HW155015   7.172   3.954   1.742  1.8288  1.3654 -1.3941
17858SOL    HW255016   7.159   4.095   1.798 -0.2803  1.2738 -1.5894
17859SOL     OW55017   2.667   1.053   3.139  0.1713  0.2070 -0.2063
17859SOL    HW155018   2.605   1.107   3.089 -0.5350  0.0420  0.4642
17859SOL    HW255019   2.654   0.965   3.105 -0.6313  0.0187  0.5500
17860SOL     OW55020   1.382   1.931   0.572  0.4800 -0.4400 -0.7912
17860SOL    HW155021   1.383   1.935   0.477  1.2493 -0.5648 -0.7940
17860SOL    HW255022   1.468   1.962   0.599 -0.5695  2.1344 -0.0158
17861SOL     OW55023   3.804   2.409  10.352  0.2434  0.5816 -0.1153
17861SOL    HW155024   3.799   2.492  10.304 -1.3233 -0.3268 -1.6047
17861SOL    HW255025   3.898   2.388  10.353  0.5830  1.9650 -0.3872
17862SOL     OW55026   7.539   0.463   1.622 -0.2029  0.1164  0.1101
17862SOL    HW155027   7.462   0.512   1.650 -0.4734  1.0726 -2.1612
17862SOL    HW255028   7.506   0.401   1.557  0.7568 -0.4343  0.1220
17863SOL     OW55029   0.528   3.659   5.626 -0.0373 -0.2054 -0.3614
17863SOL    HW155030   0.512   3.688   5.716  0.8990 -0.3438 -0.1402
17863SOL    HW255031   0.506   3.735   5.572  0.8672  0.4065  0.1053
17864SOL     OW55032   5.744   2.705   9.122  0.4871 -0.6658 -0.3393
17864SOL    HW155033   5.684   2.641   9.086 -0.9243 -0.4843  1.5137
17864SOL    HW255034   5.831   2.671   9.103 -0.2263 -2.2114 -0.9358
17865SOL     OW55035   7.296   2.416  10.650  0.5287  0.3504 -0.2739
17865SOL    HW155036   7.279   2.372  10.566  2.3833 -0.6272 -0.2037
17865SOL    HW255037   7.245   2.497  10.645 -1.2041 -0.7367 -1.3671
17866SOL     OW55038   7.153   2.435   5.364  0.5244 -0.2971  0.0296
17866SOL    HW155039   7.077   2.492   5.372  1.6515  1.1104  1.5007
17866SOL    HW255040   7.227   2.496   5.356  1.8067 -1.5068  1.9098
17867SOL     OW55041   2.114   3.805   3.314  0.7773  0.5588 -0.6342
17867SOL    HW155042   2.033   3.844   3.282  0.6327  0.7825  0.0005
17867SOL    HW255043   2.151   3.870   3.374  0.0116 -0.6502  1.2461
17868SOL     OW55044   4.367   3.333   3.605  0.2439  0.5645  0.3457
17868SOL    HW155045   4.332   3.351   3.692 -1.6501  0.3751 -0.3420
17868SOL    HW255046   4.376   3.420   3.564  1.8723  0.7230  0.9498
17869SOL     OW55047   1.897   6.747   3.383 -0.2560  0.7036 -0.5276
17869SOL    HW155048   1.937   6.802   3.450 -0.7409  0.8189 -0.3254
17869SOL    HW255049   1.815   6.717   3.422  0.4743 -1.0231 -0.2407
17870SOL     OW55050   3.647   3.942   3.660  0.4515 -0.6000  0.0540
17870SOL    HW155051   3.667   3.927   3.752  1.3213  0.2673  0.0143
17870SOL    HW255052   3.622   3.856   3.627  0.1335 -0.9235  1.0859
17871SOL     OW55053   7.435   4.047   0.735  0.0247  0.4449  0.2468
17871SOL    HW155054   7.376   4.117   0.766 -0.2346  0.1431  0.4408
17871SOL    HW255055   7.492   4.030   0.810 -0.5930 -0.2746  0.5695
17872SOL     OW55056   7.954   3.347   4.123  0.6453  0.3884 -0.0323
17872SOL    HW155057   7.888   3.319   4.059  0.8294 -0.1525  0.0120
17872SOL    HW255058   7.985   3.266   4.162  2.4513  0.4907 -1.1471
17873SOL     OW55059   1.220   3.844   8.217  0.2552 -0.3159  0.5309
17873SOL    HW155060   1.231   3.930   8.256  2.9661  0.1186 -0.9204
17873SOL    HW255061   1.185   3.861   8.130  0.8562 -0.6650  0.2178
17874SOL     OW55062   2.982   6.509   9.583  0.4434 -0.5305 -0.0782
17874SOL    HW155063   3.010   6.510   9.492  0.6240  0.0233 -0.0241
17874SOL    HW255064   2.944   6.423   9.596 -1.8078  0.1895 -1.3527
17875SOL     OW55065   2.687   4.817   7.308 -0.3203 -0.2226  0.5510
17875SOL    HW155066   2.618   4.766   7.266 -0.0649 -0.2857  0.2101
17875SOL    HW255067   2.755   4.827   7.241 -0.5342  0.8913  0.4755
17876SOL     OW55068   5.508   7.017   2.245  0.1075  0.4339 -0.5698
17876SOL    HW155069   5.448   7.078   2.288  0.0232 -0.2465  0.3251
17876SOL    HW255070   5.506   7.041   2.152 -0.2021  1.5330 -0.2843
17877SOL     OW55071   5.385   3.012  10.320  0.7781 -0.2846 -0.0932
17877SOL    HW155072   5.423   3.099  10.306  1.6248  0.2357  4.0843
17877SOL    HW255073   5.461   2.953  10.321  0.4885 -0.6647 -0.5014
17878SOL     OW55074   4.965   3.888   3.898  0.0540 -0.1351 -0.5168
17878SOL    HW155075   4.925   3.867   3.983  1.0126 -1.1146 -0.2875
17878SOL    HW255076   4.974   3.984   3.900 -1.9986  0.1019 -0.4864
17879SOL     OW55077   0.769   1.475   7.800 -1.1502 -0.1103  0.1992
17879SOL    HW155078   0.697   1.492   7.861 -0.7810  0.1163  0.5752
17879SOL    HW255079   0.840   1.442   7.856 -0.4547  1.0677  0.0417
17880SOL     OW55080   3.737   0.518   7.633 -0.0223  0.1997 -0.0297
17880SOL    HW155081   3.722   0.489   7.543 -1.6018 -1.0553  0.5835
17880SOL    HW255082   3.784   0.601   7.624 -0.2624  0.1743 -2.0021
17881SOL     OW55083   2.883   5.353   2.479  0.2298 -0.8152  0.2341
17881SOL    HW155084   2.924   5.436   2.502 -0.7330 -0.2455 -0.0727
17881SOL    HW255085   2.791   5.363   2.507  0.2496 -2.0145  0.8059
17882SOL     OW55086   3.692   3.851   7.675  0.0474 -0.0119 -0.0521
17882SOL    HW155087   3.740   3.891   7.747 -2.0637  3.9756 -0.6159
17882SOL    HW255088   3.615   3.812   7.716 -0.1140  0.4487  0.0875
17883SOL     OW55089   5.014   3.288  11.646  0.1283  0.0695  0.6095
17883SOL    HW155090   4.971   3.360  11.600 -0.8297 -0.8198  0.0505
17883SOL    HW255091   4.988   3.210  11.597  0.4116 -0.7441  1.7136
17884SOL     OW55092   4.064   5.376   1.006 -0.2809  0.4264 -0.1682
17884SOL    HW155093   4.043   5.289   1.042  2.1059  0.0617  0.5483
17884SOL    HW255094   4.114   5.357   0.927  1.1617  1.0792  0.5489
17885SOL     OW55095   1.263   4.353   6.731 -0.1431 -0.1904 -0.6455
17885SOL    HW155096   1.300   4.384   6.813 -2.1701 -1.7268  0.9586
17885SOL    HW255097   1.340   4.329   6.678  1.2260  1.2436  0.5773
17886SOL     OW55098   0.849   6.796   7.471  0.0603  0.1599  0.1874
17886SOL    HW155099   0.870   6.716   7.423  2.8260  0.5012  0.6688
17886SOL    HW255100   0.815   6.856   7.404 -0.4534 -0.8466 -0.4782
17887SOL     OW55101   4.419   4.904  12.388 -0.4476  0.5795  0.3235
17887SOL    HW155102   4.331   4.891  12.353  0.6118 -0.6866 -2.1033
17887SOL    HW255103   4.462   4.961  12.325  1.3318 -1.2198 -0.1883
17888SOL     OW55104   1.898   5.780  10.224 -0.3214 -0.1220  0.9048
17888SOL    HW155105   1.879   5.856  10.169  0.6382 -0.8709 -0.5032
17888SOL    HW255106   1.815   5.732  10.229 -0.7517  0.6285  1.2413
17889SOL     OW55107   5.027   5.477   3.461 -0.1966 -0.2569 -0.2402
17889SOL    HW155108   4.962   5.407   3.462  0.4475 -0.8748  0.9911
17889SOL    HW255109   4.979   5.554   3.430 -1.4232 -0.7779  0.3107
17890SOL     OW55110   4.159   5.999   5.176 -0.2914  0.3218 -0.1278
17890SOL    HW155111   4.097   6.039   5.236 -0.7521  0.9984 -1.0211
17890SOL    HW255112   4.204   5.932   5.228 -1.7940 -0.2189  0.5287
17891SOL     OW55113   2.375   0.069   0.166 -0.3209  0.0819  0.0011
17891SOL    HW155114   2.460   0.070   0.122 -0.2261  2.4820  0.1171
17891SOL    HW255115   2.318   0.122   0.111 -1.3251 -0.2107  0.7193
17892SOL     OW55116   6.227   0.827  11.091 -0.2163  0.2825 -0.1351
17892SOL    HW155117   6.240   0.907  11.143  2.3154  0.2969 -0.6831
17892SOL    HW255118   6.315   0.800  11.065 -1.0280 -2.4834 -0.3323
17893SOL     OW55119   5.983   3.304   3.109  0.9567  0.2134  0.4514
17893SOL    HW155120   6.028   3.237   3.161  2.3834 -0.6264 -1.7051
17893SOL    HW255121   5.937   3.255   3.040 -0.8014  1.2796  0.8049
17894SOL     OW55122   2.248   0.661   7.517  0.3442  0.6714  0.2515
17894SOL    HW155123   2.296   0.632   7.595  1.1157  1.7368  0.1901
17894SOL    HW255124   2.311   0.713   7.467  0.3307 -1.2060 -1.8641
17895SOL     OW55125   5.598   4.033   7.109 -0.4812 -0.0069  0.2522
17895SOL    HW155126   5.655   4.098   7.070  0.5354 -0.5870  0.7408
17895SOL    HW255127   5.657   3.974   7.156 -1.5707  0.0377  1.7492
17896SOL     OW55128   6.774   4.197   4.935 -0.0545 -0.1904  0.7199
17896SOL    HW155129   6.751   4.120   4.987 -0.0809 -1.2911 -0.8634
17896SOL    HW255130   6.870   4.197   4.934 -0.0523  0.0120  1.0394
17897SOL     OW55131   5.768   5.373   8.360  0.1526 -0.0134 -0.8472
17897SOL    HW155132   5.736   5.283   8.361 -0.8548  0.2872  2.0269
17897SOL    HW255133   5.696   5.424   8.398  2.0163  1.4468  0.9327
17898SOL     OW55134   3.368   6.367   2.839 -0.4643 -0.3022 -0.9578
17898SOL    HW155135   3.334   6.324   2.918 -1.3079 -0.0825 -1.1980
17898SOL    HW255136   3.308   6.340   2.770 -0.4214  0.4793 -1.2998
17899SOL     OW55137   3.783   1.981  10.148 -0.4822 -0.3028  0.1542
17899SOL    HW155138   3.844   2.042  10.105 -0.7980  0.9382  1.4069
17899SOL    HW255139   3.785   1.903  10.093  0.3577  0.6300 -1.2064
17900SOL     OW55140   7.540   4.926   0.280  0.1457  0.3125  0.2224
17900SOL    HW155141   7.615   4.867   0.274  0.4727  0.7717 -0.2819
17900SOL    HW255142   7.464   4.868   0.268  0.5037  0.1123 -1.4055
17901SOL     OW55143   1.255   1.548   9.031  0.4861  0.1563 -0.1333
17901SOL    HW155144   1.294   1.629   9.000  1.7416 -0.2803  0.2292
17901SOL    HW255145   1.234   1.499   8.952  0.0592  0.6685 -0.3450
17902SOL     OW55146   4.371   6.427   7.457 -0.0460  0.0581 -0.9221
17902SOL    HW155147   4.414   6.454   7.376 -0.5806  2.5705 -0.4541
17902SOL    HW255148   4.441   6.388   7.510  0.6279 -0.1944 -1.9769
17903SOL     OW55149   6.596   5.564   6.949 -0.2407  0.1363  0.4778
17903SOL    HW155150   6.538   5.516   7.006  0.3272  0.5363  1.4147
17903SOL    HW255151   6.542   5.635   6.913 -1.3289 -1.6287 -1.6122
17904SOL     OW55152   5.587   5.482   1.231  0.0288 -0.5596  0.0788
17904SOL    HW155153   5.549   5.452   1.149 -0.6065 -1.3576  0.6536
17904SOL    HW255154   5.596   5.577   1.220 -0.2969 -0.6260 -0.8056
17905SOL     OW55155   4.808   0.595   9.694  0.2006 -0.2036  0.5265
17905SOL    HW155156   4.721   0.571   9.726  0.6582 -1.6755  0.7728
17905SOL    HW255157   4.799   0.592   9.598 -0.2591  0.6213  0.5402
17906SOL     OW55158   6.296   6.779  10.055 -0.5161  0.0413  0.9503
17906SOL    HW155159   6.302   6.833   9.976  1.3504  0.3627  1.2674
17906SOL    HW255160   6.234   6.826  10.111  2.0216  2.7022  1.7628
17907SOL     OW55161   6.198   3.695   8.219 -0.0942 -0.0742 -0.6358
17907SOL    HW155162   6.108   3.696   8.187 -0.9022 -1.2526  1.3790
17907SOL    HW255163   6.189   3.683   8.314  2.1966 -1.2883 -0.5119
17908SOL     OW55164   4.660   1.929   8.991 -0.0198 -0.1144  0.1655
17908SOL    HW155165   4.629   1.883   9.069  1.0069 -1.2628 -0.0789
17908SOL    HW255166   4.593   1.996   8.975 -0.2776  0.1091  1.9790
17909SOL     OW55167   2.055   3.436  12.121  0.4007 -0.1160 -1.1004
17909SOL    HW155168   2.008   3.388  12.053 -1.3198  0.1086 -0.1105
17909SOL    HW255169   2.102   3.369  12.170 -1.2489 -0.7138 -0.2915
17910SOL     OW55170   1.627   3.113  11.072  0.5225  0.8301  0.6640
17910SOL    HW155171   1.630   3.055  11.147  0.4326 -2.2103 -1.4993
17910SOL    HW255172   1.598   3.197  11.107  0.3873 -0.4679  3.9451
17911SOL     OW55173   4.575   2.554  12.305  0.0447  0.3686  0.4773
17911SOL    HW155174   4.543   2.555  12.215 -0.2573  0.5653  0.5837
17911SOL    HW255175   4.666   2.525  12.298  0.0282  0.3993  0.1097
17912SOL     OW55176   2.857   6.344   5.120  0.0326 -0.1744 -0.3209
17912SOL    HW155177   2.923   6.399   5.161  0.6468 -1.9559  1.2152
17912SOL    HW255178   2.895   6.318   5.037  0.6108  0.0489 -0.1294
17913SOL     OW55179   2.820   5.098   7.020  0.8879 -0.8081  0.2924
17913SOL    HW155180   2.914   5.115   7.011  0.6959 -0.6123 -1.8616
17913SOL    HW255181   2.815   5.013   7.064  2.0611 -0.8382  0.3999
17914SOL     OW55182   7.033   5.721   5.820 -0.0088 -0.0063  0.2874
17914SOL    HW155183   7.080   5.804   5.819 -0.9491  0.5450  0.1345
17914SOL    HW255184   7.052   5.682   5.734 -2.0697  1.5494 -0.9539
17915SOL     OW55185   5.554   3.200   6.377  0.1136 -0.3836  0.3031
17915SOL    HW155186   5.500   3.161   6.445 -0.2482 -0.4251 -0.0014
17915SOL    HW255187   5.491   3.226   6.309  0.4662 -0.3216 -0.0026
17916SOL     OW55188   2.105   2.994  10.410 -0.0857  0.0910  0.0878
17916SOL    HW155189   2.051   2.990  10.489  1.8295 -0.9808  1.4152
17916SOL    HW255190   2.163   3.068  10.425  0.0649  0.0844 -0.4685
17917SOL     OW55191   2.016   7.682   8.702  0.2456  0.1797 -0.1594
17917SOL    HW155192   2.105   7.691   8.737  0.2318  0.2525 -0.1416
17917SOL    HW255193   2.012   7.746   8.631  0.0006  0.6371  0.2575
17918SOL     OW55194   7.554   3.682   4.981  0.4907 -0.3128 -0.0058
17918SOL    HW155195   7.535   3.730   4.901 -0.3716 -0.7964 -0.1026
17918SOL    HW255196   7.553   3.590   4.955 -0.6010 -0.5163  0.7032
17919SOL     OW55197   6.028   3.760   3.421  0.6362 -0.2506 -0.1802
17919SOL    HW155198   6.112   3.801   3.401  0.9901 -0.6850  0.3824
17919SOL    HW255199   6.013   3.700   3.348  0.8066 -0.1550 -0.2940
17920SOL     OW55200   5.815   4.963  10.275 -0.4351 -0.8204  0.1419
17920SOL    HW155201   5.741   4.937  10.220  1.9866 -0.0225 -3.8600
17920SOL    HW255202   5.810   5.059  10.277  2.2906 -0.4399 -3.3257
17921SOL     OW55203   1.039   2.220   2.918 -0.3360  0.1419  0.1491
17921SOL    HW155204   1.083   2.209   3.002 -0.2479  1.6363  0.3232
17921SOL    HW255205   1.059   2.310   2.892 -0.3767 -0.2861 -1.4712
17922SOL     OW55206   2.051   5.130   3.957  0.6262 -1.0261 -0.1903
17922SOL    HW155207   2.138   5.170   3.949 -0.1193  0.5901 -0.8859
17922SOL    HW255208   2.011   5.145   3.871 -0.2045 -2.0745  0.0008
17923SOL     OW55209   5.775   6.913   6.728 -0.0854 -0.7345  0.2482
17923SOL    HW155210   5.858   6.912   6.680 -0.2591  1.8602 -0.2446
17923SOL    HW255211   5.723   6.980   6.684 -3.1232 -3.3390 -0.4463
17924SOL     OW55212   5.378   3.557   2.304 -0.2690  0.1459  0.8906
17924SOL    HW155213   5.339   3.635   2.344 -1.0449  1.7320 -2.5466
17924SOL    HW255214   5.304   3.496   2.296 -0.4067  0.3341  0.7164
17925SOL     OW55215   4.089   1.537   1.308  0.0410  0.2976 -0.2143
17925SOL    HW155216   4.134   1.490   1.238  1.0189  1.0081 -0.0738
17925SOL    HW255217   4.001   1.554   1.272  0.1393 -0.3783 -0.8026
17926SOL     OW55218   7.483   1.379  12.412 -0.4788  0.3154 -0.3041
17926SOL    HW155219   7.569   1.341  12.429 -0.6198  0.3012  0.4114
17926SOL    HW255220   7.497   1.474  12.419 -0.2005  0.3940 -1.7415
17927SOL     OW55221   7.598   2.662   4.120 -0.0279  0.0911  0.1324
17927SOL    HW155222   7.554   2.667   4.036 -0.6562  1.0789  0.4939
17927SOL    HW255223   7.631   2.573   4.125 -1.6135 -0.5561 -0.3516
17928SOL     OW55224   4.086   4.631   6.186 -0.5249 -0.0144 -0.2424
17928SOL    HW155225   4.029   4.695   6.144  0.6823  1.4738  0.2507
17928SOL    HW255226   4.161   4.623   6.127 -0.6003 -0.8558 -0.2230
17929SOL     OW55227   1.302   6.506   3.766 -0.1957  0.2483 -0.2773
17929SOL    HW155228   1.363   6.434   3.753  0.1185  0.5252 -0.3463
17929SOL    HW255229   1.234   6.469   3.822 -1.1560 -0.7346 -2.0005
17930SOL     OW55230   3.080   1.265  12.013 -0.3459 -0.3996 -0.1006
17930SOL    HW155231   3.086   1.341  12.070 -2.6802 -0.3272  0.1604
17930SOL    HW255232   3.147   1.279  11.946 -0.7389  1.9402 -0.0974
17931SOL     OW55233   7.807   7.238   1.154 -0.0532 -0.0915  0.3686
17931SOL    HW155234   7.873   7.191   1.206  1.5252  0.4815 -1.0441
17931SOL    HW255235   7.802   7.325   1.195  0.1022 -0.1193  0.4475
17932SOL     OW55236   1.329   5.050   8.827  0.8347 -0.3236  0.2743
17932SOL    HW155237   1.233   5.056   8.831  0.6409 -2.1829 -0.4592
17932SOL    HW255238   1.351   4.975   8.881  2.2045  1.6665  2.7006
17933SOL     OW55239   1.794   1.816  11.676 -0.0180  0.2133 -0.1198
17933SOL    HW155240   1.756   1.872  11.744 -0.4533 -1.0529  0.7049
17933SOL    HW255241   1.878   1.789  11.713 -0.3480 -0.6431  0.0070
17934SOL     OW55242   6.596   2.988   1.081 -0.1549  0.2288  0.3676
17934SOL    HW155243   6.568   3.028   1.162  1.0376  0.4039  0.7184
17934SOL    HW255244   6.691   2.977   1.091 -0.1338 -0.6645 -0.5919
17935SOL     OW55245   4.004   4.757  11.233 -0.1799 -0.1859  0.0846
17935SOL    HW155246   3.984   4.849  11.250 -1.1100 -0.7250  2.1983
17935SOL    HW255247   3.919   4.718  11.214 -0.1751 -1.1025  1.8429
17936SOL     OW55248   3.403   3.906  12.361 -0.1535  0.1071 -0.0656
17936SOL    HW155249   3.476   3.942  12.311 -0.9586 -0.0565 -1.4240
17936SOL    HW255250   3.415   3.940  12.450  0.4113  1.7720 -0.7444
17937SOL     OW55251   2.734   5.581   2.166  0.2183 -0.1530  0.9222
17937SOL    HW155252   2.806   5.568   2.106 -1.1128 -0.3225 -0.7178
17937SOL    HW255253   2.775   5.603   2.250  2.1179  2.1532 -0.5026
17938SOL     OW55254   6.618   1.809   9.010  0.7670  0.1958  0.1852
17938SOL    HW155255   6.676   1.833   8.937  0.9056  0.9341  0.5264
17938SOL    HW255256   6.556   1.882   9.016 -0.8478 -1.0255 -0.8134
17939SOL     OW55257   3.203   0.616  11.259 -0.5425 -0.1441 -0.0065
17939SOL    HW155258   3.144   0.682  11.295 -0.7496 -0.6260  0.5392
17939SOL    HW255259   3.213   0.641  11.167 -0.4289  0.7843  0.2484
17940SOL     OW55260   2.923   5.966   5.859 -0.1576  0.3432  0.2279
17940SOL    HW155261   2.868   5.890   5.879  0.4144 -0.0954  0.1665
17940SOL    HW255262   2.876   6.012   5.790  1.2376 -2.0038 -2.5081
17941SOL     OW55263   6.172   4.482   5.250  0.0388 -0.3468 -0.6970
17941SOL    HW155264   6.212   4.407   5.293 -1.8638 -2.0193 -1.6797
17941SOL    HW255265   6.111   4.444   5.187  0.0971  2.0281 -2.3242
17942SOL     OW55266   5.415   5.642  10.584  0.2488  0.2196  0.4976
17942SOL    HW155267   5.375   5.562  10.549 -1.4616  0.0581  2.6099
17942SOL    HW255268   5.406   5.706  10.514 -2.7734 -0.1406  0.4055
17943SOL     OW55269   7.982   7.937   3.539 -0.7765 -0.0061  0.5881
17943SOL    HW155270   8.008   7.866   3.597  0.6315  0.7056  0.8743
17943SOL    HW255271   8.004   8.017   3.588 -1.7116  0.6313  0.0090
17944SOL     OW55272   0.555   3.119   6.040 -0.1309 -0.1582 -0.2211
17944SOL    HW155273   0.531   3.114   6.133 -0.3313 -2.2885 -0.3270
17944SOL    HW255274   0.565   3.027   6.014 -1.8399  0.2750 -2.7653
17945SOL     OW55275   2.073   1.650   7.253  0.4390 -0.4082  0.1696
17945SOL    HW155276   2.043   1.636   7.342  1.9330  0.1793  0.7902
17945SOL    HW255277   2.143   1.714   7.260 -0.5800  1.0073 -1.6464
17946SOL     OW55278   3.714   2.394   1.558  0.0031 -0.2328  0.3041
17946SOL    HW155279   3.780   2.424   1.621  0.8051  0.5512 -0.8688
17946SOL    HW255280   3.741   2.305   1.535  0.3467 -0.1134  0.2387
17947SOL     OW55281   2.114   6.065  11.301  0.5930 -0.2036 -0.6368
17947SOL    HW155282   2.189   6.116  11.271  2.5166 -1.3304  1.9092
17947SOL    HW255283   2.077   6.116  11.373 -0.5701 -0.0879 -1.2948
17948SOL     OW55284   0.950   5.393   3.264  0.0238 -0.7877  0.4220
17948SOL    HW155285   1.045   5.393   3.253 -0.1183  0.2067 -1.1306
17948SOL    HW255286   0.916   5.377   3.177 -1.2436 -0.9156  0.9218
17949SOL     OW55287   1.844   7.065   6.586  0.1378 -0.5720  0.9392
17949SOL    HW155288   1.918   7.096   6.638 -0.5222  3.9300 -0.4339
17949SOL    HW255289   1.883   7.041   6.502  0.3071 -0.3849  0.9633
17950SOL     OW55290   6.500   7.165   3.960  0.4181 -0.3844 -0.4561
17950SOL    HW155291   6.498   7.077   3.924 -1.3017 -0.7530  0.4637
17950SOL    HW255292   6.409   7.186   3.979  0.7916  1.5925 -0.6249
17951SOL     OW55293   5.248   4.013  11.798  0.4901  0.6523  0.0363
17951SOL    HW155294   5.166   4.061  11.789  1.4633  2.4562  0.2642
17951SOL    HW255295   5.263   3.973  11.712 -1.1691 -0.7021  0.3251
17952SOL     OW55296   0.109   3.858   8.689 -0.2277  0.6878  0.2762
17952SOL    HW155297   0.099   3.779   8.742 -1.9855  0.8439  0.2298
17952SOL    HW255298   0.138   3.925   8.750  0.5853  0.1915  0.4519
17953SOL     OW55299   1.457   6.402  12.264 -0.0643  0.5432  0.4872
17953SOL    HW155300   1.412   6.381  12.346  0.2664  0.1690  0.5762
17953SOL    HW255301   1.387   6.429  12.204 -0.7264 -1.9677 -0.0306
17954SOL     OW55302   3.575   1.271   9.032  1.0373 -0.1031  0.5443
17954SOL    HW155303   3.560   1.177   9.042  0.1523 -0.1099 -0.5862
17954SOL    HW255304   3.512   1.312   9.091  1.8043 -0.2193  1.4518
17955SOL     OW55305   0.133   5.826   7.004 -0.1370 -0.3084  0.0433
17955SOL    HW155306   0.050   5.792   7.037  0.8703 -3.1665 -0.1073
17955SOL    HW255307   0.174   5.867   7.079 -0.3057 -1.7425  0.9441
17956SOL     OW55308   1.830   7.435  11.218  0.1793 -0.2515  0.5343
17956SOL    HW155309   1.922   7.456  11.204  0.2389 -0.1893  1.0126
17956SOL    HW255310   1.788   7.452  11.133  0.7319 -1.0010  0.0965
17957SOL     OW55311   1.128   4.332  11.113 -0.1374 -0.1622  0.8525
17957SOL    HW155312   1.053   4.276  11.133 -0.1444  0.0117  1.3321
17957SOL    HW255313   1.201   4.293  11.161  0.1312 -0.4558  0.2135
17958SOL     OW55314   4.927   7.667   0.813  0.2518 -0.6410  0.1157
17958SOL    HW155315   4.993   7.717   0.861  2.2947 -0.5683 -2.5481
17958SOL    HW255316   4.929   7.580   0.852  1.4323 -0.4356  0.5375
17959SOL     OW55317   5.204   3.105   4.158 -0.1977 -0.6376  0.1176
17959SOL    HW155318   5.205   3.136   4.067 -2.6029  0.9988  0.5497
17959SOL    HW255319   5.253   3.172   4.206 -1.2203 -0.0566  0.3730
17960SOL     OW55320   6.162   5.300   7.569  0.0741  0.6329  0.3167
17960SOL    HW155321   6.217   5.373   7.540  0.4475  0.6942  1.1157
17960SOL    HW255322   6.081   5.341   7.599  0.5926  0.8430  1.5335
17961SOL     OW55323   2.922   6.598   3.948  0.1698 -0.2167 -0.3092
17961SOL    HW155324   2.827   6.591   3.934  0.4215  0.4102 -2.9708
17961SOL    HW255325   2.938   6.693   3.951  0.7362 -0.3202  0.0628
17962SOL     OW55326   1.467   3.374   6.859  0.8264  0.5735  0.6758
17962SOL    HW155327   1.409   3.313   6.905  0.1556  2.1651  2.0397
17962SOL    HW255328   1.429   3.382   6.772 -0.1005  0.3621  1.0433
17963SOL     OW55329   5.191   4.366  11.457  0.5431 -0.2281 -0.2958
17963SOL    HW155330   5.197   4.410  11.542 -2.2306  0.2298 -0.2469
17963SOL    HW255331   5.266   4.399  11.407  0.8982  1.3024  1.1800
17964SOL     OW55332   0.371   5.221   8.900 -0.2057 -0.5005 -0.3311
17964SOL    HW155333   0.345   5.275   8.825  2.1111 -0.4363 -1.1813
17964SOL    HW255334   0.356   5.276   8.976 -0.6938  0.2122 -0.9325
17965SOL     OW55335   4.133   2.384   2.720  0.5770 -0.0619  0.0430
17965SOL    HW155336   4.071   2.405   2.650 -0.0934 -0.6006  0.4656
17965SOL    HW255337   4.219   2.398   2.680  0.2120 -0.5939 -0.9720
17966SOL     OW55338   1.522   6.998   8.421 -0.0067  0.0890 -0.0510
17966SOL    HW155339   1.433   7.026   8.443 -0.6375 -1.7185 -0.1375
17966SOL    HW255340   1.520   6.902   8.430  1.9280  0.0047 -0.0799
17967SOL     OW55341   2.579   4.041   3.201 -0.0900  0.3957 -0.3782
17967SOL    HW155342   2.558   4.134   3.205  1.8170  0.8181  0.9663
17967SOL    HW255343   2.533   4.003   3.277 -2.6363 -0.2455 -2.0892
17968SOL     OW55344   5.538   6.247  10.757  0.3732 -0.2682 -0.0954
17968SOL    HW155345   5.629   6.220  10.744  0.9161  0.9777  0.9548
17968SOL    HW255346   5.522   6.232  10.850 -0.7566 -1.1530 -0.4068
17969SOL     OW55347   3.493   2.532   0.757 -0.1265 -0.7168  0.0857
17969SOL    HW155348   3.587   2.547   0.745 -0.4214  1.1625 -0.1522
17969SOL    HW255349   3.458   2.527   0.668 -0.2741 -1.3029  0.1739
17970SOL     OW55350   6.696   1.319   4.496 -0.9881  0.1369  0.0047
17970SOL    HW155351   6.743   1.394   4.461  0.3353 -0.6699 -0.0311
17970SOL    HW255352   6.715   1.320   4.590  0.9163 -1.3648 -0.2984
17971SOL     OW55353   1.960   2.472   7.039  0.3527  0.5047  0.9129
17971SOL    HW155354   1.871   2.441   7.025 -0.7335  3.2878  0.8678
17971SOL    HW255355   1.991   2.497   6.951  1.4495 -0.9992  0.8381
17972SOL     OW55356   4.710   1.996  10.367 -0.4671 -0.0080 -0.3514
17972SOL    HW155357   4.681   1.956  10.448  1.1209 -0.6452 -0.0558
17972SOL    HW255358   4.721   2.089  10.389  1.8271 -0.4675  0.7946
17973SOL     OW55359   5.167   0.335  11.906 -0.2706 -0.0217  0.6990
17973SOL    HW155360   5.248   0.327  11.856 -1.4563 -1.7218 -1.1128
17973SOL    HW255361   5.191   0.311  11.996  1.0069 -1.8742 -0.0781
17974SOL     OW55362   4.706   3.855   7.846 -0.4624 -0.3654  0.7661
17974SOL    HW155363   4.801   3.851   7.848 -0.2666  0.3426 -2.1565
17974SOL    HW255364   4.679   3.765   7.824 -0.4437 -0.4875  1.2454
17975SOL     OW55365   7.787   4.770  12.078 -0.3707  0.0514 -0.2674
17975SOL    HW155366   7.729   4.739  12.009 -1.2808 -1.2541  1.0070
17975SOL    HW255367   7.752   4.856  12.102  0.5021  0.9207 -1.9832
17976SOL     OW55368   7.688   7.416  10.812 -0.5052  0.1434 -0.1641
17976SOL    HW155369   7.737   7.353  10.758 -1.6306 -0.5661 -0.3802
17976SOL    HW255370   7.669   7.369  10.893 -1.0573  0.3157 -0.1893
17977SOL     OW55371   2.978   0.813   3.609 -0.0408  0.1006 -0.0055
17977SOL    HW155372   3.036   0.811   3.686  0.0743 -1.6652 -0.1042
17977SOL    HW255373   2.996   0.898   3.568  1.8277 -0.0369  0.4537
17978SOL     OW55374   7.114   0.652   0.836 -0.0454  0.0136  1.4135
17978SOL    HW155375   7.059   0.666   0.759 -1.4203  1.6575  2.6052
17978SOL    HW255376   7.198   0.623   0.801 -1.3090 -1.4928 -0.5497
17979SOL     OW55377   6.361   5.705  10.043 -0.1080  0.4560  0.2845
17979SOL    HW155378   6.395   5.619  10.066 -1.0527  0.4145  1.6316
17979SOL    HW255379   6.430   5.766  10.069  0.6314  0.1318 -0.8186
17980SOL     OW55380   6.090   5.948   7.197 -0.0266  0.3304  0.0767
17980SOL    HW155381   6.170   5.965   7.248 -0.5383  0.2808  0.9257
17980SOL    HW255382   6.099   6.004   7.120 -0.6120  2.8833  1.6999
17981SOL     OW55383   1.552   3.007   3.806  0.4034  0.4674 -0.3474
17981SOL    HW155384   1.528   2.986   3.896  0.8385  0.6026 -0.1968
17981SOL    HW255385   1.633   2.957   3.790 -0.3077 -0.4949 -1.0647
17982SOL     OW55386   1.938   6.107  10.342 -0.2148 -0.7269  0.2299
17982SOL    HW155387   1.979   6.071  10.420  1.2839  1.3274  0.4778
17982SOL    HW255388   1.964   6.199  10.342 -2.3819 -0.0266 -1.2686
17983SOL     OW55389   6.813   6.576   5.567  0.0815 -0.1912  0.2266
17983SOL    HW155390   6.775   6.664   5.573 -0.2909 -0.2982 -0.5086
17983SOL    HW255391   6.844   6.569   5.477 -2.6769 -1.9227 -0.7167
17984SOL     OW55392   3.074   7.948  11.182 -0.4100 -0.0090  0.1260
17984SOL    HW155393   2.993   7.959  11.231  0.5699  0.7675  1.6647
17984SOL    HW255394   3.076   8.021  11.121 -0.7867  0.0667  0.2041
17985SOL     OW55395   6.373   7.416   4.300  0.8322 -0.5658 -0.3754
17985SOL    HW155396   6.430   7.483   4.337  0.8216 -0.1846 -1.0329
17985SOL    HW255397   6.433   7.349   4.268  0.8699 -0.6026 -0.2263
17986SOL     OW55398   6.345   0.943   2.920 -0.1720  0.4188 -0.3705
17986SOL    HW155399   6.348   0.882   2.994  0.5419 -0.1351 -0.8324
17986SOL    HW255400   6.256   0.937   2.887 -0.4422  0.5342  0.3341
17987SOL     OW55401   0.424   1.488  12.118  0.0529  0.2275 -0.3000
17987SOL    HW155402   0.450   1.434  12.193  2.2069  2.9122  1.0698
17987SOL    HW255403   0.461   1.442  12.043  0.3178 -1.0943  0.5963
17988SOL     OW55404   4.590   1.171   0.355  0.2493  0.1970 -0.6016
17988SOL    HW155405   4.507   1.204   0.391  0.4687 -0.9766  1.0793
17988SOL    HW255406   4.564   1.117   0.280 -0.3611  1.1721 -1.1129
17989SOL     OW55407   3.104   4.518  11.997 -0.3630 -0.4610 -0.3213
17989SOL    HW155408   3.131   4.524  12.089 -0.7721 -0.0180 -0.2283
17989SOL    HW255409   3.170   4.462  11.957  0.6799  0.5526 -0.0883
17990SOL     OW55410   6.674   1.541   7.623 -0.5097 -0.0184 -0.0085
17990SOL    HW155411   6.666   1.586   7.539  0.3257 -1.8096 -1.0953
17990SOL    HW255412   6.768   1.524   7.633 -0.4588  0.9432  1.7652
17991SOL     OW55413   5.806   5.273   6.419  0.3872 -0.1073 -0.0361
17991SOL    HW155414   5.743   5.322   6.366  0.1875 -1.0557 -0.6798
17991SOL    HW255415   5.888   5.322   6.411 -0.1566  0.9387  0.5225
17992SOL     OW55416   4.870   6.792   4.944 -0.4663  0.2834  0.4701
17992SOL    HW155417   4.776   6.785   4.934 -0.4881 -0.9878  1.3235
17992SOL    HW255418   4.900   6.841   4.867 -1.6078 -0.8269 -0.7113
17993SOL     OW55419   1.356   0.452   8.836 -0.6973  0.6330  0.1656
17993SOL    HW155420   1.294   0.515   8.873 -0.4962  0.5707  0.6182
17993SOL    HW255421   1.345   0.461   8.741 -2.7528 -0.7218  0.2125
17994SOL     OW55422   6.810   0.850  10.035  0.0944 -0.5093  0.6435
17994SOL    HW155423   6.785   0.928   9.985 -0.0192 -0.8554  0.1487
17994SOL    HW255424   6.774   0.777   9.984 -0.4748 -0.8454  1.5150
17995SOL     OW55425   0.533   4.841   7.090  0.1215  0.1704  0.3846
17995SOL    HW155426   0.597   4.903   7.125  1.1901 -1.4783  1.5309
17995SOL    HW255427   0.525   4.774   7.159 -1.1202 -0.8525 -0.7018
17996SOL     OW55428   3.753   5.618   5.438 -0.2785 -0.1863 -0.5952
17996SOL    HW155429   3.693   5.611   5.363 -0.2819  0.9261 -0.7148
17996SOL    HW255430   3.837   5.640   5.400 -0.4923  1.3522 -0.2193
17997SOL     OW55431   7.857   4.634   5.530  0.4237 -0.0046  0.7272
17997SOL    HW155432   7.779   4.600   5.575 -0.2510  0.8330  0.2281
17997SOL    HW255433   7.843   4.613   5.438  0.8144  0.1079  0.6399
17998SOL     OW55434   5.887   4.826  11.162 -0.1957 -0.0405  0.0286
17998SOL    HW155435   5.952   4.791  11.222 -0.2838 -0.1845  0.0437
17998SOL    HW255436   5.803   4.801  11.201 -0.2574  0.0882 -0.0225
17999SOL     OW55437   5.996   3.815   8.984 -0.4058 -0.4685  0.1221
17999SOL    HW155438   6.028   3.894   8.940 -0.0273 -1.5955 -1.7299
17999SOL    HW255439   5.928   3.781   8.925 -0.9197 -1.2658  1.1350
18000SOL     OW55440   2.461   3.278   3.566 -0.0317  0.6313  0.5409
18000SOL    HW155441   2.520   3.348   3.594  1.9055 -0.4122 -0.6919
18000SOL    HW255442   2.462   3.283   3.470  1.0103 -1.6826  0.3665
18001SOL     OW55443   4.448   6.989   4.150 -0.4557 -0.7195 -0.2527
18001SOL    HW155444   4.498   7.024   4.076 -1.2638  1.5621  0.1967
18001SOL    HW255445   4.513   6.971   4.217 -0.0253  0.5342 -0.3092
18002SOL     OW55446   7.625   2.066   5.446 -0.3298  0.3327  0.8296
18002SOL    HW155447   7.718   2.053   5.429  0.0599  2.4053  1.0853
18002SOL    HW255448   7.622   2.125   5.522 -1.8117  0.9214  0.3607
18003SOL     OW55449   6.233   2.096   9.599 -0.7863 -0.7427  0.2647
18003SOL    HW155450   6.294   2.101   9.525 -2.3160 -0.5633 -1.0420
18003SOL    HW255451   6.184   2.178   9.596 -3.3998 -2.2150 -0.8682
18004SOL     OW55452   3.644   2.706   1.662  0.6235 -0.1981 -0.0999
18004SOL    HW155453   3.728   2.673   1.630  1.2039  0.5007  0.6667
18004SOL    HW255454   3.667   2.782   1.715 -0.5576  0.4339 -0.4688
18005SOL     OW55455   0.872   2.962   2.529  0.3427 -0.2048  0.4389
18005SOL    HW155456   0.894   2.885   2.583  2.4596 -0.4296 -0.6236
18005SOL    HW255457   0.898   3.037   2.583 -1.1402 -0.2166  1.2231
18006SOL     OW55458   1.908   7.969   5.915  0.1356 -0.8170 -0.1706
18006SOL    HW155459   1.971   7.987   5.985 -1.2831 -1.2087  1.2430
18006SOL    HW255460   1.826   8.006   5.946 -0.4573 -0.6672 -1.8102
18007SOL     OW55461   3.166   2.115   1.279 -0.7538 -0.0259 -0.0669
18007SOL    HW155462   3.247   2.133   1.326  0.0535 -0.8249 -1.1140
18007SOL    HW255463   3.175   2.162   1.196 -1.8176  0.7080  0.2044
18008SOL     OW55464   6.229   5.153  10.880 -0.2661 -0.0837 -0.7356
18008SOL    HW155465   6.262   5.072  10.920  0.4773 -0.9172 -2.8898
18008SOL    HW255466   6.299   5.217  10.892 -0.2769 -0.1620 -0.2522
18009SOL     OW55467   1.921   0.844   7.238 -0.2753 -0.4046 -1.0293
18009SOL    HW155468   1.911   0.898   7.160  0.7446 -0.5264 -1.2528
18009SOL    HW255469   2.010   0.862   7.269 -0.7367 -0.1756  0.2479
18010SOL     OW55470   2.811   2.368   4.780  0.5245 -0.5108  0.3081
18010SOL    HW155471   2.792   2.368   4.873 -2.2215 -1.0655 -0.1831
18010SOL    HW255472   2.740   2.319   4.740  0.5689  1.2955 -2.2908
18011SOL     OW55473   5.903   7.506   5.939  0.2002  0.6018 -0.3026
18011SOL    HW155474   5.817   7.516   5.982  0.1442  0.3303 -0.3526
18011SOL    HW255475   5.966   7.524   6.009  0.1063  0.5717 -0.2095
18012SOL     OW55476   6.983   2.112   2.507 -0.1540 -0.3711 -0.5745
18012SOL    HW155477   6.946   2.148   2.427  1.2632  1.2316 -0.5617
18012SOL    HW255478   6.951   2.170   2.576 -0.0145 -0.7490 -0.1852
18013SOL     OW55479   1.993   4.473   6.590 -0.6524  0.2245  0.5085
18013SOL    HW155480   1.981   4.506   6.679 -1.4737 -0.2056  0.5616
18013SOL    HW255481   2.083   4.439   6.590  0.4922  2.9380  0.2732
18014SOL     OW55482   2.125   4.785   5.202  0.1113  0.4156 -0.4199
18014SOL    HW155483   2.071   4.791   5.123 -3.2077  1.2654  1.7164
18014SOL    HW255484   2.063   4.794   5.275  2.8868 -0.9309  2.3556
18015SOL     OW55485   3.559   2.264   6.755 -0.5691 -0.0034 -0.6300
18015SOL    HW155486   3.478   2.311   6.735 -2.2957 -2.7072 -0.3960
18015SOL    HW255487   3.546   2.228   6.842  0.5320 -1.2113 -0.9273
18016SOL     OW55488   5.435   4.271   2.285  0.6789 -0.1005 -0.3509
18016SOL    HW155489   5.476   4.229   2.360  2.2492 -0.4752 -1.3725
18016SOL    HW255490   5.341   4.259   2.299  0.9452 -0.3415  1.4195
18017SOL     OW55491   7.892   1.751   8.483  0.2207  0.2285  0.1222
18017SOL    HW155492   7.817   1.766   8.541 -1.3730 -0.6473 -1.6391
18017SOL    HW255493   7.953   1.701   8.537  0.3362  2.3536  2.1269
18018SOL     OW55494   2.212   1.038   3.313 -0.1013  0.2025  0.1616
18018SOL    HW155495   2.146   1.008   3.250 -0.0314 -0.2198  0.2937
18018SOL    HW255496   2.199   0.983   3.390  0.6784 -0.1522  0.0414
18019SOL     OW55497   5.121   1.963   3.669  0.0251 -0.0810 -0.1156
18019SOL    HW155498   5.162   1.995   3.750  1.7716  0.1357 -1.0382
18019SOL    HW255499   5.175   2.000   3.599 -0.9011 -1.0151 -1.3597
18020SOL     OW55500   1.912   0.300   3.811 -0.6387 -0.3878 -0.1228
18020SOL    HW155501   1.920   0.380   3.758  1.0934 -0.8750 -0.6853
18020SOL    HW255502   1.891   0.232   3.747 -0.2853 -0.6755  0.0635
18021SOL     OW55503   5.398   2.540  11.915  0.1403 -0.1157  0.2993
18021SOL    HW155504   5.396   2.493  11.999  0.5150 -0.7611 -0.0493
18021SOL    HW255505   5.329   2.606  11.924 -1.4448 -1.6784  0.2451
18022SOL     OW55506   1.750   4.560   3.062 -0.1424  0.3824 -0.1976
18022SOL    HW155507   1.733   4.640   3.113 -0.6822 -0.6142  1.2596
18022SOL    HW255508   1.764   4.493   3.129  2.7914 -0.2909 -1.3419
18023SOL     OW55509   4.442   3.275   9.814 -0.1429 -0.1199  0.3944
18023SOL    HW155510   4.386   3.349   9.838 -0.4421 -0.8146  1.9986
18023SOL    HW255511   4.517   3.315   9.770 -0.4932  1.1028  0.8551
18024SOL     OW55512   5.927   6.382  11.744 -0.4669 -0.2765  0.3765
18024SOL    HW155513   5.978   6.460  11.721  0.8938 -0.9554  1.0018
18024SOL    HW255514   5.890   6.352  11.661 -1.6797  1.4588  0.2384
18025SOL     OW55515   1.443   1.307   4.726  0.1156  0.6269 -0.5257
18025SOL    HW155516   1.511   1.317   4.792  0.6716 -0.6582 -0.8704
18025SOL    HW255517   1.481   1.249   4.660 -0.2088  2.3387 -2.3042
18026SOL     OW55518   0.079   6.105   3.920  0.6452  0.1074  0.1319
18026SOL    HW155519   0.058   6.135   4.008 -1.0356 -0.6356  0.0209
18026SOL    HW255520   0.104   6.013   3.931  2.5937  0.5834  0.0696
18027SOL     OW55521   2.147   4.104   1.373 -0.0546  0.9884  0.0053
18027SOL    HW155522   2.121   4.182   1.323  0.7489  1.2265 -0.0570
18027SOL    HW255523   2.217   4.065   1.320  0.4099  0.9255  0.6628
18028SOL     OW55524   7.883   4.104   1.775  0.1505  0.1619 -0.6262
18028SOL    HW155525   7.944   4.178   1.781  1.2839 -0.8535  0.9794
18028SOL    HW255526   7.912   4.056   1.698 -0.9012  1.6033 -1.9811
18029SOL     OW55527   5.025   1.252   2.547 -0.1123  0.5777 -0.0845
18029SOL    HW155528   4.965   1.326   2.559 -0.5287  0.0747  1.0490
18029SOL    HW255529   5.076   1.249   2.627 -0.5156 -0.7231  0.1407
18030SOL     OW55530   2.933   0.352   0.589  0.1802  0.7388  0.3000
18030SOL    HW155531   3.003   0.388   0.535  0.3125  2.4313  1.5100
18030SOL    HW255532   2.974   0.281   0.638  0.1378 -0.5946 -1.4982
18031SOL     OW55533   3.738   2.611   2.950 -0.2366 -0.0852 -0.5058
18031SOL    HW155534   3.766   2.678   3.013  0.5532 -1.1257  0.2863
18031SOL    HW255535   3.678   2.657   2.891  1.4665  1.7099 -0.9358
18032SOL     OW55536   1.572   6.169   6.399 -0.3856 -0.5672 -0.9639
18032SOL    HW155537   1.621   6.096   6.437 -0.1896  0.4940  0.9368
18032SOL    HW255538   1.638   6.233   6.376 -0.7100  0.0017 -0.3443
18033SOL     OW55539   6.477   2.755  11.925 -0.1253 -0.0016 -0.1032
18033SOL    HW155540   6.496   2.841  11.886  2.2501 -0.3466  0.1169
18033SOL    HW255541   6.416   2.775  11.996 -0.9787  1.2543 -1.1435
18034SOL     OW55542   0.745   6.549   8.229 -0.3139 -0.3913 -0.0046
18034SOL    HW155543   0.787   6.632   8.205  0.9036 -0.7791  0.6679
18034SOL    HW255544   0.698   6.522   8.150  0.9221 -0.0527 -0.8919
18035SOL     OW55545   4.702   7.048   7.996  0.2061  0.0815  0.4030
18035SOL    HW155546   4.654   6.987   8.052 -1.3220  0.4197 -0.4745
18035SOL    HW255547   4.784   7.065   8.043 -0.6475 -0.2944  2.1087
18036SOL     OW55548   2.998   1.977  10.081 -0.2015 -0.4967 -0.1216
18036SOL    HW155549   3.013   2.071  10.070 -0.6426 -0.1141  2.1853
18036SOL    HW255550   3.026   1.958  10.170 -0.0067 -2.6063 -0.5823
18037SOL     OW55551   5.385   0.105   2.545  0.0240 -0.1493  0.1816
18037SOL    HW155552   5.330   0.084   2.470  0.1843 -0.2012  0.0778
18037SOL    HW255553   5.385   0.201   2.550 -1.2711 -0.1676  1.0747
18038SOL     OW55554   7.369   2.241   0.079  0.0546  0.0450  0.6768
18038SOL    HW155555   7.336   2.211  -0.006  0.4098 -0.1895  0.6168
18038SOL    HW255556   7.443   2.183   0.097  0.7637  0.8986  0.5573
18039SOL     OW55557   3.588   0.563   7.336  0.0555 -0.5140 -0.7259
18039SOL    HW155558   3.610   0.593   7.248  0.9955 -1.6409 -0.9109
18039SOL    HW255559   3.614   0.470   7.337 -0.7893 -0.7707  0.4488
18040SOL     OW55560   0.231   2.640   0.008 -0.9190 -0.9484 -0.3032
18040SOL    HW155561   0.201   2.554   0.037 -1.2626 -0.5449  0.5759
18040SOL    HW255562   0.300   2.663   0.070  0.3177 -1.2822 -1.5050
18041SOL     OW55563   2.594   1.140   9.634 -0.2841  0.4817 -0.6717
18041SOL    HW155564   2.504   1.173   9.632 -1.5862 -2.6581  0.3036
18041SOL    HW255565   2.625   1.160   9.722 -1.1176 -0.9296 -0.0333
18042SOL     OW55566   2.451   3.713   2.207 -0.3532 -0.6258 -0.0839
18042SOL    HW155567   2.445   3.636   2.264 -0.2988 -1.4781 -1.1939
18042SOL    HW255568   2.527   3.761   2.239 -0.2920 -1.1158  0.5291
18043SOL     OW55569   1.997   0.221   8.904 -0.0178 -0.1576 -0.6398
18043SOL    HW155570   2.072   0.186   8.953  0.0179  1.2205  0.3666
18043SOL    HW255571   1.943   0.145   8.886  1.8419 -1.2863 -1.8470
18044SOL     OW55572   1.554   6.011   1.999  0.2375  0.2818 -0.5007
18044SOL    HW155573   1.557   6.082   2.062 -3.9529  0.5521 -0.3021
18044SOL    HW255574   1.546   6.054   1.914  1.0580 -0.0275 -0.7422
18045SOL     OW55575   6.637   6.775   7.950  0.3247  0.1057  0.0525
18045SOL    HW155576   6.621   6.788   7.856  2.2301 -1.5535 -0.5810
18045SOL    HW255577   6.574   6.708   7.975  2.0132 -1.9926 -0.9613
18046SOL     OW55578   0.024   5.790  11.480 -0.2963 -0.1764 -0.1965
18046SOL    HW155579   0.070   5.872  11.463 -0.4514 -0.0217  0.1328
18046SOL    HW255580  -0.038   5.810  11.549  0.1748 -0.7419  0.4118
18047SOL     OW55581   7.792   1.223   7.877  0.0084 -0.3003  0.1469
18047SOL    HW155582   7.826   1.311   7.859 -1.0878 -0.0539 -0.7993
18047SOL    HW255583   7.704   1.237   7.910 -0.2566 -1.0479 -0.2184
18048SOL     OW55584   6.456   1.536   2.410 -0.0597 -0.2794 -0.2188
18048SOL    HW155585   6.439   1.538   2.316  0.2942 -0.3062 -0.2841
18048SOL    HW255586   6.453   1.443   2.433 -0.5127 -0.2467 -0.1339
18049SOL     OW55587   7.266   7.233   4.708  0.2595  0.4632 -0.0317
18049SOL    HW155588   7.177   7.221   4.741 -0.9998  1.6050 -2.7613
18049SOL    HW255589   7.256   7.289   4.632  3.2093 -0.3006 -1.1023
18050SOL     OW55590   2.185   5.262  11.918  0.5658 -0.7057 -0.1980
18050SOL    HW155591   2.236   5.197  11.966  1.3649 -0.9862 -1.3885
18050SOL    HW255592   2.100   5.264  11.963  1.2209 -1.0657  1.1073
18051SOL     OW55593   3.204   7.629   9.490 -0.2019 -0.3616  0.0057
18051SOL    HW155594   3.189   7.698   9.555 -0.5731  0.5338 -0.9996
18051SOL    HW255595   3.165   7.663   9.409  2.4362 -0.3255 -1.3434
18052SOL     OW55596   1.363   6.673   9.154  0.6335 -0.3636 -0.4489
18052SOL    HW155597   1.277   6.666   9.114  0.4341  1.2495 -0.3506
18052SOL    HW255598   1.398   6.756   9.123  0.4206  1.0525  2.7205
18053SOL     OW55599   0.114   7.099   3.225 -0.2195 -1.3488  0.1544
18053SOL    HW155600   0.164   7.134   3.151 -0.5941 -1.2392 -0.0518
18053SOL    HW255601   0.116   7.169   3.290 -1.0908 -0.8749 -0.3145
18054SOL     OW55602   3.827   0.098   3.598 -0.0832 -0.0660  0.1331
18054SOL    HW155603   3.802   0.176   3.548 -0.8737  1.2351  2.4195
18054SOL    HW255604   3.831   0.028   3.533  0.1787  1.7625 -1.9324
18055SOL     OW55605   7.651   6.342   8.068  0.1214  0.5415 -0.1716
18055SOL    HW155606   7.735   6.386   8.071 -0.7071  2.1519  0.1473
18055SOL    HW255607   7.587   6.412   8.053 -1.1508 -0.6570 -0.5865
18056SOL     OW55608   4.860   0.123   8.203  0.0421  0.0051 -0.3774
18056SOL    HW155609   4.814   0.192   8.253 -0.0868 -0.9718  0.9282
18056SOL    HW255610   4.926   0.169   8.153 -0.4776  1.1514 -0.0453
18057SOL     OW55611   1.433   0.549   3.491 -0.2368  0.1628  0.1132
18057SOL    HW155612   1.348   0.533   3.530 -0.0129 -0.1747  0.4730
18057SOL    HW255613   1.415   0.606   3.416 -0.9745 -1.2007 -0.7877
18058SOL     OW55614   0.400   0.467   1.049  0.0015  0.0187  0.2300
18058SOL    HW155615   0.370   0.525   1.120 -1.7549 -0.3043 -0.1983
18058SOL    HW255616   0.320   0.428   1.015  0.8109  0.0763 -1.8832
18059SOL     OW55617   6.325   7.811   8.690 -0.6985  0.3489  0.4164
18059SOL    HW155618   6.385   7.737   8.690 -0.6251  0.3925  1.6099
18059SOL    HW255619   6.371   7.880   8.642 -0.6913 -0.3093 -0.5338
18060SOL     OW55620   0.489   3.131   7.389 -0.3419 -0.5879 -0.1883
18060SOL    HW155621   0.458   3.167   7.472 -2.5216  2.4823 -2.1042
18060SOL    HW255622   0.416   3.078   7.357 -0.1351 -0.4962 -0.8270
18061SOL     OW55623   0.573   0.037   5.054 -0.8056 -0.4894  0.3749
18061SOL    HW155624   0.643   0.086   5.097  0.1131 -2.2084  0.9564
18061SOL    HW255625   0.513   0.104   5.020  1.6338  1.1225 -1.0889
18062SOL     OW55626   2.016   1.896   0.813  0.1915  0.0189 -0.1915
18062SOL    HW155627   2.111   1.901   0.800  0.3394 -0.1095  0.7706
18062SOL    HW255628   1.991   1.984   0.838  0.2260 -0.1738  0.5538
18063SOL     OW55629   1.552   4.451   0.343 -0.4204  0.0901 -0.2280
18063SOL    HW155630   1.565   4.497   0.260 -1.1911 -0.2398 -0.5400
18063SOL    HW255631   1.461   4.423   0.340  0.1360 -1.8167 -0.2325
18064SOL     OW55632   0.717   0.771   6.273  0.4845 -0.2190  0.0604
18064SOL    HW155633   0.769   0.850   6.265 -0.3683  0.5909  1.9998
18064SOL    HW255634   0.713   0.736   6.184 -1.6427  3.5418 -1.5126
18065SOL     OW55635   5.788   6.442  10.559 -0.3627 -0.3631 -0.6613
18065SOL    HW155636   5.700   6.440  10.521 -1.5738 -0.9990  1.9748
18065SOL    HW255637   5.780   6.499  10.635  1.8082  0.4151 -0.9425
18066SOL     OW55638   6.895   5.507  12.471  0.1217  0.0006  0.4405
18066SOL    HW155639   6.957   5.434  12.474  0.8416  0.5288 -0.9217
18066SOL    HW255640   6.809   5.466  12.476  0.5370 -0.8044  1.4701
18067SOL     OW55641   4.777   1.968  12.069  0.5590  0.0964 -0.2715
18067SOL    HW155642   4.787   1.892  12.126  0.5466  0.5889  0.4073
18067SOL    HW255643   4.733   2.033  12.124  1.5233  0.9664 -0.4925
18068SOL     OW55644   4.449   1.065  10.191  0.0074  0.0760  0.8701
18068SOL    HW155645   4.465   1.123  10.117 -1.7736 -0.2603  0.1591
18068SOL    HW255646   4.424   1.124  10.262 -1.8750  0.2564  0.1300
18069SOL     OW55647   4.667   5.913   9.735 -0.3369 -0.2931 -0.2670
18069SOL    HW155648   4.724   5.944   9.665 -0.3883  0.8253  0.1694
18069SOL    HW255649   4.587   5.886   9.690 -0.8294  1.5355 -0.5683
18070SOL     OW55650   6.482   3.644   3.621 -0.2306 -0.5517  0.6545
18070SOL    HW155651   6.565   3.671   3.660  1.2451 -2.5693 -0.8651
18070SOL    HW255652   6.421   3.716   3.641  2.1068  1.4661  0.9640
18071SOL     OW55653   4.935   6.892   8.685 -0.0041 -0.1727  0.1299
18071SOL    HW155654   5.023   6.927   8.669  0.6386 -1.4782  0.6262
18071SOL    HW255655   4.877   6.968   8.680  1.1508  0.7120 -0.2099
18072SOL     OW55656   2.974   5.784  10.926 -0.3139 -0.0471 -0.1334
18072SOL    HW155657   2.915   5.783  11.001  0.5245  0.4604  0.5569
18072SOL    HW255658   3.039   5.717  10.945  0.4796  0.7625  0.0964
18073SOL     OW55659   2.335   2.149  11.809  0.3954 -0.5333  0.6365
18073SOL    HW155660   2.311   2.168  11.900  1.3293  0.1036  0.7608
18073SOL    HW255661   2.317   2.055  11.799 -2.0697 -0.1297  0.7180
18074SOL     OW55662   1.317   2.491  10.450  0.2860  0.1073  0.1760
18074SOL    HW155663   1.264   2.543  10.389  0.7877 -0.0991 -0.4475
18074SOL    HW255664   1.391   2.461  10.398 -1.0608 -3.0709 -0.1383
18075SOL     OW55665   5.132   0.216   3.427 -0.0484 -0.1807  0.3340
18075SOL    HW155666   5.061   0.153   3.416  0.4267 -0.6864  0.0923
18075SOL    HW255667   5.123   0.247   3.517  0.4776 -1.5647  0.8922
18076SOL     OW55668   4.011   1.557  11.658 -0.1651  0.1131  0.1774
18076SOL    HW155669   3.959   1.621  11.609 -1.2836 -0.6219  0.3657
18076SOL    HW255670   3.954   1.480  11.665  1.0500 -0.8262  0.1663
18077SOL     OW55671   1.335   7.419   5.751 -0.4689 -0.4621 -0.8782
18077SOL    HW155672   1.259   7.472   5.774  0.7576 -0.0708  2.9730
18077SOL    HW255673   1.307   7.329   5.765 -0.3119 -0.3252  0.4142
18078SOL     OW55674   1.273   4.302  10.343 -0.6575  0.5185 -0.1610
18078SOL    HW155675   1.246   4.302  10.435  0.9324  2.1635  0.3523
18078SOL    HW255676   1.347   4.241  10.340 -1.1641 -0.0950 -0.5291
18079SOL     OW55677   4.858   2.425   2.870  0.3536  0.0680 -0.0978
18079SOL    HW155678   4.931   2.455   2.815  0.2847 -3.0927 -2.1353
18079SOL    HW255679   4.893   2.426   2.959  1.6371  2.0072 -0.5642
18080SOL     OW55680   7.321   4.875   4.852  0.4943  0.2997 -0.0547
18080SOL    HW155681   7.259   4.822   4.803  1.2462 -0.6698  0.0187
18080SOL    HW255682   7.266   4.935   4.903 -0.3204  0.7861 -1.4512
18081SOL     OW55683   2.777   4.229   2.314  0.7798  0.1490 -0.1284
18081SOL    HW155684   2.690   4.263   2.332  1.5330  0.8121  2.8161
18081SOL    HW255685   2.767   4.179   2.233 -2.6584 -0.9976  0.8137
18082SOL     OW55686   0.773   5.716   3.894  0.0071 -0.0883 -0.0458
18082SOL    HW155687   0.864   5.745   3.891 -0.1837  0.5005 -0.5131
18082SOL    HW255688   0.772   5.634   3.845  0.3831 -0.3979  0.4566
18083SOL     OW55689   0.954   5.481  10.614  0.3041 -0.0213 -0.0581
18083SOL    HW155690   0.943   5.442  10.701 -0.5787  1.0787  0.3718
18083SOL    HW255691   0.864   5.489  10.581  0.3604  2.1832  0.1734
18084SOL     OW55692   1.259   0.447   8.120 -0.1140  0.6071 -0.5850
18084SOL    HW155693   1.297   0.369   8.079 -0.7324  0.2991 -0.5822
18084SOL    HW255694   1.178   0.462   8.071 -0.0410  1.1947 -0.5253
18085SOL     OW55695   2.395   2.552   7.821  0.3702 -0.0624 -0.0328
18085SOL    HW155696   2.335   2.527   7.892  0.3252  2.1718  0.8010
18085SOL    HW255697   2.398   2.475   7.765 -1.8436 -0.9130  0.8724
18086SOL     OW55698   0.857   0.699   5.899 -0.0525 -0.0397 -0.0350
18086SOL    HW155699   0.862   0.697   5.804  1.0084 -0.6231  0.0134
18086SOL    HW255700   0.766   0.677   5.920 -0.2195 -0.1806 -0.9013
18087SOL     OW55701   6.596   3.306   2.720  0.0331  0.0707 -1.2076
18087SOL    HW155702   6.560   3.308   2.809  1.5315  2.1556 -0.5788
18087SOL    HW255703   6.519   3.309   2.663 -1.0359 -2.6355 -0.0979
18088SOL     OW55704   7.744   7.902   7.343  0.3645 -0.0493 -0.1636
18088SOL    HW155705   7.716   7.990   7.366 -1.4709 -1.3275  3.0528
18088SOL    HW255706   7.833   7.895   7.379  0.1227  0.1654  0.4869
18089SOL     OW55707   7.340   3.189   6.042 -0.3063  0.1170  0.4886
18089SOL    HW155708   7.392   3.160   6.117  0.5074 -0.2884 -0.2026
18089SOL    HW255709   7.250   3.168   6.065  0.1843 -2.6919  0.2137
18090SOL     OW55710   5.385   1.191   2.488 -0.2297 -0.0567  0.5462
18090SOL    HW155711   5.325   1.239   2.545 -1.5318 -0.5085 -0.4015
18090SOL    HW255712   5.354   1.100   2.491  1.6278 -0.7105  1.5843
18091SOL     OW55713   1.429   5.205   1.055 -0.3634  0.5873 -0.1978
18091SOL    HW155714   1.435   5.235   1.146 -2.7069  2.0724 -0.4335
18091SOL    HW255715   1.406   5.112   1.062  0.0615  0.5451  0.7163
18092SOL     OW55716   5.471   1.598   1.915 -0.5793 -0.0661  0.2470
18092SOL    HW155717   5.496   1.529   1.853  1.1818  0.7344  0.0216
18092SOL    HW255718   5.376   1.596   1.916 -0.5838 -2.3922  0.1177
18093SOL     OW55719   2.604   5.898   9.392 -0.2051  0.2495  0.0941
18093SOL    HW155720   2.671   5.864   9.452 -0.5298 -0.5874 -0.0086
18093SOL    HW255721   2.565   5.971   9.439  1.2673  1.2245 -0.1259
18094SOL     OW55722   0.854   4.698   6.639  0.0326 -0.6002  0.4565
18094SOL    HW155723   0.819   4.787   6.640 -0.7233 -0.8727 -0.3555
18094SOL    HW255724   0.788   4.646   6.593  0.7377 -1.4688  0.3793
18095SOL     OW55725   2.979   6.266   3.047 -0.2581 -0.0433 -0.0500
18095SOL    HW155726   3.006   6.307   3.129  0.1610 -0.6445  0.1140
18095SOL    HW255727   2.944   6.181   3.073 -0.4832 -0.0792 -0.4584
18096SOL     OW55728   7.297   1.259  10.639 -0.2107 -0.2765 -0.0379
18096SOL    HW155729   7.323   1.187  10.695 -1.7527 -1.9178 -1.3151
18096SOL    HW255730   7.230   1.306  10.689 -0.5851 -0.9049  0.0635
18097SOL     OW55731   3.779   3.822   0.671  0.1789 -0.4050  0.6834
18097SOL    HW155732   3.816   3.879   0.739  2.3395  0.1291 -0.8440
18097SOL    HW255733   3.847   3.756   0.656 -0.2091 -0.4687 -0.9871
18098SOL     OW55734   5.771   5.628   5.330 -0.5570 -0.4239  0.3987
18098SOL    HW155735   5.687   5.673   5.342 -1.2243 -1.6164  0.4528
18098SOL    HW255736   5.822   5.650   5.407  0.0151  1.9990 -0.5965
18099SOL     OW55737   7.694   7.502   9.174  0.0321 -0.2624 -0.3313
18099SOL    HW155738   7.725   7.491   9.264 -0.2708 -0.7890 -0.2880
18099SOL    HW255739   7.773   7.527   9.125  0.2698 -0.3283  0.0125
18100SOL     OW55740   2.850   4.518   7.426 -1.0581 -0.0091  0.0937
18100SOL    HW155741   2.912   4.590   7.415 -1.3862  0.6759  2.2063
18100SOL    HW255742   2.897   4.455   7.482 -1.6156 -0.3287  0.2060
18101SOL     OW55743   7.127   7.093   4.218 -0.5741  0.0627  0.5345
18101SOL    HW155744   7.133   7.139   4.301  3.0491 -2.8351  2.1887
18101SOL    HW255745   7.172   7.150   4.156 -0.1875  0.7368  1.4064
18102SOL     OW55746   2.230   7.217   8.239 -0.5139  0.3290 -0.2910
18102SOL    HW155747   2.165   7.240   8.305  1.5431 -0.3440  2.1394
18102SOL    HW255748   2.314   7.246   8.277  0.9952 -1.8720 -1.6961
18103SOL     OW55749   6.045   6.820  10.923  0.2059  0.3431  0.1266
18103SOL    HW155750   5.987   6.880  10.971  0.7179  0.2679  0.8640
18103SOL    HW255751   5.994   6.793  10.847  0.1915  2.1882 -0.5522
18104SOL     OW55752   1.598   4.911   5.064 -0.4750 -0.2856 -0.6810
18104SOL    HW155753   1.511   4.885   5.092 -0.4821  1.9981  1.8187
18104SOL    HW255754   1.652   4.834   5.079 -1.5913 -0.9011  0.3288
18105SOL     OW55755   5.917   5.262   7.893 -0.6033 -0.3902 -0.5908
18105SOL    HW155756   5.975   5.192   7.922 -1.2854 -1.3186 -1.4225
18105SOL    HW255757   5.875   5.293   7.973  0.4493 -0.2202 -0.0802
18106SOL     OW55758   6.719   6.231  11.573  0.3714 -0.4423 -0.6600
18106SOL    HW155759   6.793   6.290  11.578  1.1379 -1.4624  0.9883
18106SOL    HW255760   6.757   6.147  11.546  0.4392 -1.7637  3.0187
18107SOL     OW55761   0.860   7.912  10.521  0.4730  0.3054  0.3042
18107SOL    HW155762   0.775   7.869  10.534  0.0794  0.8442 -0.3910
18107SOL    HW255763   0.847   7.968  10.444  1.8983 -0.7379 -0.7475
18108SOL     OW55764   4.061   6.928   3.159  0.2834 -0.1483  0.3073
18108SOL    HW155765   4.045   6.916   3.253 -0.8763 -1.9130 -0.0745
18108SOL    HW255766   4.104   6.848   3.131  0.3684  0.2467 -0.7331
18109SOL     OW55767   7.249   6.389   1.578 -0.6786 -0.4608  0.2004
18109SOL    HW155768   7.337   6.428   1.577 -1.0597  0.4620  0.9051
18109SOL    HW255769   7.211   6.419   1.660 -2.1001  0.1414 -0.6484
18110SOL     OW55770   7.662   1.073   5.332 -0.7108 -0.0142 -0.4367
18110SOL    HW155771   7.631   1.131   5.263  0.5524  0.3985 -0.6946
18110SOL    HW255772   7.674   0.988   5.290 -0.5378  0.0776 -0.5703
18111SOL     OW55773   1.604   7.487   5.018 -0.1705 -0.3718  0.2785
18111SOL    HW155774   1.635   7.577   5.006 -0.6939 -0.2150  0.0646
18111SOL    HW255775   1.670   7.446   5.074 -0.5292  0.5114  1.4094
18112SOL     OW55776   1.247   2.039   2.159 -0.2212  0.4157  0.3960
18112SOL    HW155777   1.321   2.054   2.218  0.0135 -2.0027  0.8167
18112SOL    HW255778   1.286   1.993   2.084 -0.9680  1.0742 -0.4217
18113SOL     OW55779   2.114   3.307   8.248 -0.0784 -0.1121  0.5762
18113SOL    HW155780   2.149   3.219   8.240  2.7462  0.7347  2.2928
18113SOL    HW255781   2.132   3.348   8.163  2.2181 -0.0540  1.0481
18114SOL     OW55782   5.856   0.872   1.465 -0.6221 -0.2447  0.1395
18114SOL    HW155783   5.783   0.903   1.411 -2.0384 -1.1680  1.4458
18114SOL    HW255784   5.933   0.913   1.426 -1.7087  0.0210 -1.8689
18115SOL     OW55785   7.580   3.272  12.114  0.3021  0.2156 -0.0859
18115SOL    HW155786   7.534   3.230  12.042 -0.9914 -1.4212  1.6169
18115SOL    HW255787   7.671   3.241  12.106 -0.2093 -1.3693 -0.0136
18116SOL     OW55788   1.609   4.629   9.070  0.6410  0.5057 -0.2159
18116SOL    HW155789   1.623   4.620   8.976 -0.7268  0.8429 -0.4839
18116SOL    HW255790   1.528   4.580   9.087  0.8827  0.4298  0.7868
18117SOL     OW55791   6.358   0.129   9.394  0.3645  0.1151  0.1404
18117SOL    HW155792   6.367   0.168   9.306 -1.5691 -0.0126 -0.1656
18117SOL    HW255793   6.263   0.116   9.404  0.7684 -2.4387  1.1523
18118SOL     OW55794   4.668   5.108   2.898  0.2433 -0.1817  0.1618
18118SOL    HW155795   4.579   5.076   2.885 -0.7016  2.5321 -0.7036
18118SOL    HW255796   4.659   5.180   2.960  1.9912 -0.4183  0.7487
18119SOL     OW55797   6.402   0.674   4.297  0.1773  0.0974  0.5671
18119SOL    HW155798   6.308   0.688   4.312  0.5222  1.8484  1.3875
18119SOL    HW255799   6.439   0.762   4.296  2.0797 -0.6236  2.0629
18120SOL     OW55800   7.724   2.210   5.705 -0.4174 -0.6219 -0.1165
18120SOL    HW155801   7.703   2.278   5.768  0.0434 -0.4220 -0.1753
18120SOL    HW255802   7.793   2.248   5.650 -1.1871 -0.5842 -1.0935
18121SOL     OW55803   1.321   3.022   5.543  0.7379 -0.1430  0.0616
18121SOL    HW155804   1.361   3.085   5.603  1.3586 -0.0912 -0.3941
18121SOL    HW255805   1.361   2.938   5.566 -1.1996 -0.6764  1.6830
18122SOL     OW55806   6.071   1.437   0.219 -0.2427  0.6728 -0.0523
18122SOL    HW155807   6.033   1.476   0.140  0.0332  0.3750 -0.3349
18122SOL    HW255808   6.057   1.503   0.288  0.5547  1.4370 -0.5964
18123SOL     OW55809   1.945   3.664   6.586 -0.0443 -0.0300  0.1419
18123SOL    HW155810   1.915   3.577   6.558  0.3613  0.0094 -0.4198
18123SOL    HW255811   1.866   3.706   6.619 -0.6479  0.0795 -1.3511
18124SOL     OW55812   6.410   4.744   9.258 -0.6088 -0.1249 -0.1899
18124SOL    HW155813   6.458   4.751   9.340  0.0007  0.8395 -0.6034
18124SOL    HW255814   6.478   4.754   9.190 -0.9424 -1.8157 -0.8455
18125SOL     OW55815   6.450   2.115  11.172  0.7435  0.0061 -0.2531
18125SOL    HW155816   6.402   2.197  11.162  0.8134  0.4881  2.4836
18125SOL    HW255817   6.518   2.135  11.236  0.0683 -2.4202  1.3522
18126SOL     OW55818   1.346   6.938  10.884  0.1641  0.1043  0.5826
18126SOL    HW155819   1.391   7.004  10.937 -0.0843 -0.6205  1.7239
18126SOL    HW255820   1.271   6.912  10.937  0.1729 -1.0005  0.0771
18127SOL     OW55821   1.437   7.473   3.213 -0.2432  0.4840 -0.3208
18127SOL    HW155822   1.348   7.438   3.204 -0.8073  2.2735 -2.6847
18127SOL    HW255823   1.425   7.561   3.250  0.9149 -0.5162  2.7650
18128SOL     OW55824   4.721   7.595   8.435  0.5016 -0.2130 -0.1921
18128SOL    HW155825   4.632   7.617   8.463  1.4870  1.1196  2.2550
18128SOL    HW255826   4.750   7.530   8.499  1.2312 -0.7911 -1.0913
18129SOL     OW55827   6.216   1.269   7.626  0.7024 -0.2055 -0.5013
18129SOL    HW155828   6.224   1.318   7.708  2.0052 -1.0517 -0.0761
18129SOL    HW255829   6.167   1.190   7.650 -1.5152  0.8853 -1.2126
18130SOL     OW55830   0.879   4.025   8.202 -0.7248 -0.4242 -0.5190
18130SOL    HW155831   0.963   4.067   8.217 -1.5927  2.3037 -2.5184
18130SOL    HW255832   0.883   3.944   8.254  2.0844  0.8234  1.4751
18131SOL     OW55833   6.483   1.037   8.919 -0.0708 -0.0603  0.1837
18131SOL    HW155834   6.388   1.030   8.923 -0.1524  0.1053 -1.0064
18131SOL    HW255835   6.510   1.058   9.008 -1.1288 -0.2871  0.5686
18132SOL     OW55836   7.931   2.303   6.599  0.6440  0.0921 -0.1035
18132SOL    HW155837   7.920   2.346   6.684  0.9776 -0.9931  0.5021
18132SOL    HW255838   7.852   2.326   6.550  1.2428  2.1981 -0.1792
18133SOL     OW55839   3.669   0.741  11.107  0.3522 -0.2386  0.1960
18133SOL    HW155840   3.714   0.793  11.174  1.1614  0.2376 -0.6993
18133SOL    HW255841   3.586   0.788  11.094 -0.2012 -0.8172  1.4598
18134SOL     OW55842   5.225   2.581   5.127  0.5713  0.0371 -0.3342
18134SOL    HW155843   5.236   2.617   5.039  0.5369  2.1779  0.4620
18134SOL    HW255844   5.130   2.575   5.140  0.5730 -1.6241 -0.9134
18135SOL     OW55845   6.791   1.539   5.550  0.3590  0.6244  0.5117
18135SOL    HW155846   6.770   1.624   5.589 -0.4580  0.3365  0.7198
18135SOL    HW255847   6.723   1.481   5.583 -0.1930  0.3021 -1.1155
18136SOL     OW55848   4.180   6.805  12.122  0.1878 -0.1409 -0.0816
18136SOL    HW155849   4.164   6.857  12.201 -0.7636 -0.2979 -0.1584
18136SOL    HW255850   4.143   6.719  12.142 -1.8834  0.3625 -1.3700
18137SOL     OW55851   1.495   6.502   6.697  0.2284 -0.1030  0.4021
18137SOL    HW155852   1.496   6.558   6.775 -0.0818 -2.5752  2.3102
18137SOL    HW255853   1.558   6.432   6.717 -1.8734 -2.3447 -0.2990
18138SOL     OW55854   2.059   5.336   8.205 -0.2000  0.3554 -0.7611
18138SOL    HW155855   2.100   5.327   8.119  2.7170 -3.2621  0.7050
18138SOL    HW255856   1.984   5.278   8.202  0.0604  0.0189 -0.7815
18139SOL     OW55857   5.765   4.015  12.405 -0.6894  0.6173 -0.4402
18139SOL    HW155858   5.846   4.002  12.355 -0.9756 -0.2243 -0.7017
18139SOL    HW255859   5.696   3.981  12.349 -0.9799 -0.7111  0.6590
18140SOL     OW55860   0.873   5.241   4.919 -0.0656 -0.2657  0.5978
18140SOL    HW155861   0.863   5.153   4.883 -0.2506 -0.7006  1.6741
18140SOL    HW255862   0.788   5.261   4.959  0.5353 -0.3458  1.9493
18141SOL     OW55863   2.578   1.148   2.726 -0.0855  0.8113 -0.5795
18141SOL    HW155864   2.634   1.162   2.650  0.0349  1.9981 -0.2851
18141SOL    HW255865   2.580   1.053   2.739  1.0963  0.7326 -1.1419
18142SOL     OW55866   5.610   1.209   2.628  0.2790 -0.4530  0.6249
18142SOL    HW155867   5.538   1.203   2.565  1.3438  0.0413 -0.6593
18142SOL    HW255868   5.642   1.299   2.620  0.5822 -0.4473  1.7265
18143SOL     OW55869   1.041   7.689   3.855 -0.4113 -0.6649  0.4165
18143SOL    HW155870   1.060   7.720   3.766 -1.7042  1.1126  0.7094
18143SOL    HW255871   0.948   7.708   3.868 -0.2785 -1.0012  2.1125
18144SOL     OW55872   5.520   6.658   9.902  0.1194 -0.2581 -0.5841
18144SOL    HW155873   5.520   6.614   9.816 -1.6723 -0.5506 -0.4641
18144SOL    HW255874   5.565   6.741   9.885 -0.3301 -0.2422 -1.8462
18145SOL     OW55875   3.669   5.572   0.266 -0.4317 -0.4890  0.5479
18145SOL    HW155876   3.626   5.609   0.343 -1.8557  0.2028 -0.5328
18145SOL    HW255877   3.752   5.620   0.260 -0.1650 -0.7664  1.7939
18146SOL     OW55878   6.668   4.662   1.081  0.1386 -0.7677  0.5423
18146SOL    HW155879   6.608   4.704   1.142  0.5914  0.1923  0.3613
18146SOL    HW255880   6.730   4.732   1.057 -0.5504 -0.8570 -1.7010
18147SOL     OW55881   5.087   2.552   6.650  0.4884 -0.4436 -0.4673
18147SOL    HW155882   5.089   2.481   6.585 -0.8893 -0.5894 -0.3923
18147SOL    HW255883   5.175   2.590   6.647  0.9921 -1.5986 -1.1315
18148SOL     OW55884   7.336   2.380   0.962  0.1738  1.0463  0.0374
18148SOL    HW155885   7.307   2.471   0.962 -0.6606  0.7936  1.1497
18148SOL    HW255886   7.420   2.381   1.009  1.0789  1.4823 -1.5056
18149SOL     OW55887   3.996   4.253  10.020  0.4214 -0.0900 -0.2140
18149SOL    HW155888   3.982   4.318   9.952 -1.0247  0.7581  0.8244
18149SOL    HW255889   4.058   4.191   9.982 -0.9705 -0.1354 -2.6214
18150SOL     OW55890   0.145   1.102   9.546 -0.2744 -0.2397  0.2572
18150SOL    HW155891   0.239   1.098   9.526  0.0915  0.2294  1.7268
18150SOL    HW255892   0.103   1.115   9.462  1.1277  1.5577 -0.2272
18151SOL     OW55893   4.000   6.737   2.394  0.1321  0.3809 -0.5788
18151SOL    HW155894   4.064   6.796   2.433  0.5927  0.1978 -1.0318
18151SOL    HW255895   4.035   6.719   2.306 -0.4148  0.0808 -0.7415
18152SOL     OW55896   2.274   0.836  10.405 -0.3726  0.3982  0.1014
18152SOL    HW155897   2.192   0.804  10.441  0.0551 -1.0404 -0.1281
18152SOL    HW255898   2.337   0.766  10.423 -0.0624 -0.3051 -3.1063
18153SOL     OW55899   2.017   1.072  11.600  0.1745 -0.0831  0.1549
18153SOL    HW155900   2.081   1.132  11.563 -1.2650  0.0927 -2.2601
18153SOL    HW255901   2.051   0.985  11.580 -0.6175  0.0099 -1.7783
18154SOL     OW55902   0.701   3.091   8.090 -0.2874  0.0836  0.2413
18154SOL    HW155903   0.689   3.161   8.155 -2.1029 -0.5401  0.6402
18154SOL    HW255904   0.615   3.048   8.085 -0.2549  0.1861 -2.6792
18155SOL     OW55905   3.399   1.769  10.600  0.1140  0.2192 -0.5944
18155SOL    HW155906   3.324   1.719  10.570  0.8981 -1.3242 -0.0807
18155SOL    HW255907   3.474   1.711  10.587  1.0276  1.1421  0.2944
18156SOL     OW55908   5.463   2.522   5.594  0.1836 -0.3238 -0.0070
18156SOL    HW155909   5.437   2.528   5.502 -1.1889 -0.3795  0.3579
18156SOL    HW255910   5.420   2.443   5.626  1.3220 -0.7559  0.4882
18157SOL     OW55911   1.240   2.460   8.213  0.0553  0.1163  0.1090
18157SOL    HW155912   1.217   2.529   8.150 -0.8101  0.1918  0.4888
18157SOL    HW255913   1.192   2.383   8.182 -1.7983  0.5866  1.5930
18158SOL     OW55914   5.364   1.430   6.739 -0.3387  0.6512 -0.2065
18158SOL    HW155915   5.276   1.409   6.771 -0.1528 -0.2002 -0.2357
18158SOL    HW255916   5.364   1.526   6.728 -0.6759  0.8873  1.5631
18159SOL     OW55917   3.167   6.082   7.262  0.0686  0.0371 -1.1649
18159SOL    HW155918   3.077   6.076   7.231  0.0626 -0.0259 -1.1349
18159SOL    HW255919   3.218   6.035   7.196  0.0885  0.1323 -1.2184
18160SOL     OW55920   1.996   7.186   2.172  0.0191  0.5162 -0.2338
18160SOL    HW155921   2.035   7.141   2.097  2.0627  1.5186  0.1632
18160SOL    HW255922   1.991   7.119   2.240  2.0253  0.5424  0.0091
18161SOL     OW55923   0.482   0.980   2.860  0.7723  0.0449 -0.2062
18161SOL    HW155924   0.521   0.901   2.898  0.3879 -0.2420 -0.3949
18161SOL    HW255925   0.550   1.015   2.802  1.9618  1.3699  1.8959
18162SOL     OW55926   4.352   4.936   3.197 -0.2130 -0.1058  0.2895
18162SOL    HW155927   4.355   4.956   3.290 -0.8542  1.6511 -0.0258
18162SOL    HW255928   4.265   4.965   3.169  0.4820  0.7189 -1.1206
18163SOL     OW55929   2.534   6.081   5.463 -0.6048 -0.1009  0.1926
18163SOL    HW155930   2.598   6.102   5.396  0.8641 -0.8951  1.2736
18163SOL    HW255931   2.451   6.112   5.428  0.4078  1.2918 -1.1074
18164SOL     OW55932   2.965   5.963   8.553  0.4812  0.0081  0.9320
18164SOL    HW155933   3.038   5.900   8.552  1.8229  1.3975 -1.6229
18164SOL    HW255934   2.891   5.914   8.519  0.8306 -0.8665  1.4068
18165SOL     OW55935   0.836   2.183   5.500  0.1355 -0.0592 -0.0221
18165SOL    HW155936   0.826   2.228   5.416 -0.2047  1.1955  0.6561
18165SOL    HW255937   0.788   2.238   5.562 -1.3000 -1.9798  0.6686
18166SOL     OW55938   4.063   1.467   4.815  0.5686 -0.4751  0.3873
18166SOL    HW155939   4.059   1.517   4.896  2.0654  0.3350  0.0056
18166SOL    HW255940   4.032   1.528   4.748 -0.2973 -1.0134  0.2925
18167SOL     OW55941   0.958   3.631   8.065 -0.6817  0.1243 -0.0058
18167SOL    HW155942   0.881   3.587   8.029 -1.1060  2.2319 -1.9102
18167SOL    HW255943   1.016   3.560   8.092 -2.3128 -1.5435 -0.6786
18168SOL     OW55944   1.289   0.495   0.886 -0.6448  0.4508 -0.1446
18168SOL    HW155945   1.353   0.560   0.857  1.4048 -0.6884  1.5559
18168SOL    HW255946   1.269   0.443   0.809 -0.6456  1.7191 -1.0232
18169SOL     OW55947   0.475   3.937  11.428 -0.3302  0.1916 -0.1694
18169SOL    HW155948   0.442   3.978  11.508 -0.2684  0.3814 -0.2434
18169SOL    HW255949   0.567   3.963  11.423 -0.4164  0.4402 -0.4722
18170SOL     OW55950   3.935   2.174   0.679 -0.0684  0.1681  1.0147
18170SOL    HW155951   4.000   2.233   0.640 -2.8860  1.2791 -2.5876
18170SOL    HW255952   3.884   2.229   0.738 -0.2791  0.3841  0.6371
18171SOL     OW55953   7.831   4.759   4.919  0.2772 -0.5731  0.5900
18171SOL    HW155954   7.865   4.732   4.834 -0.3548  1.0352 -0.2212
18171SOL    HW255955   7.738   4.777   4.903 -0.0888 -1.2214  1.8631
18172SOL     OW55956   1.601   1.512  11.718  0.0670 -0.4780  0.0946
18172SOL    HW155957   1.582   1.605  11.730 -0.3708 -0.2996 -1.6733
18172SOL    HW255958   1.693   1.510  11.691 -0.0617 -0.5009 -0.3527
18173SOL     OW55959   5.866   5.772   1.221  0.0204  0.0856 -0.0105
18173SOL    HW155960   5.873   5.865   1.203 -0.3034  0.5441  2.0266
18173SOL    HW255961   5.947   5.751   1.268 -0.3722 -0.4416  0.4387
18174SOL     OW55962   0.474   6.862   6.557  0.2261 -0.2015  0.0918
18174SOL    HW155963   0.435   6.848   6.644 -0.2866  0.2502 -0.0631
18174SOL    HW255964   0.409   6.829   6.496  0.8342 -1.0652 -0.1145
18175SOL     OW55965   7.361   5.762   3.416 -0.2600  0.0707  0.2759
18175SOL    HW155966   7.272   5.734   3.435 -0.1965 -1.1207 -1.0026
18175SOL    HW255967   7.351   5.838   3.359 -0.4251  2.0419  2.7502
18176SOL     OW55968   6.146   2.213   3.551  0.1437 -0.5036  0.3906
18176SOL    HW155969   6.108   2.125   3.541  0.7243 -0.7538  0.3503
18176SOL    HW255970   6.238   2.197   3.570  0.6522  0.1245 -1.3853
18177SOL     OW55971   7.110   6.908   9.829 -0.2285  0.3814  0.6419
18177SOL    HW155972   7.063   6.887   9.910 -0.9406  2.6810  0.9041
18177SOL    HW255973   7.043   6.903   9.761 -0.0187  0.0951  0.4581
18178SOL     OW55974   2.152   0.524  10.641 -0.0105  0.0904  0.0190
18178SOL    HW155975   2.215   0.452  10.642 -0.7806 -0.6027  0.1611
18178SOL    HW255976   2.067   0.482  10.657 -0.3762  1.1275  0.9529
18179SOL     OW55977   5.580   1.492   3.075  0.3331  0.2697  0.1407
18179SOL    HW155978   5.608   1.467   3.163 -0.9871 -0.8754  0.2624
18179SOL    HW255979   5.554   1.410   3.033  1.8210  0.6401 -1.6835
18180SOL     OW55980   7.920   7.807   9.413 -0.4209  0.0106 -0.0368
18180SOL    HW155981   7.932   7.818   9.319  2.2366 -0.4940  0.1684
18180SOL    HW255982   7.929   7.895   9.449  0.4288 -0.0422 -0.1089
18181SOL     OW55983   0.163   1.567   4.095 -0.1215 -0.1525 -0.5945
18181SOL    HW155984   0.239   1.542   4.043  0.7053  1.3240 -0.1547
18181SOL    HW255985   0.185   1.653   4.131 -1.7646  0.0596  0.0215
18182SOL     OW55986   7.838   6.861   1.237 -0.6119 -0.2049  0.0853
18182SOL    HW155987   7.892   6.931   1.273 -0.4277 -0.1350 -0.3194
18182SOL    HW255988   7.896   6.814   1.177 -1.1004  0.1046 -0.6473
18183SOL     OW55989   2.181   3.132   7.899 -0.4153 -0.2422 -0.5698
18183SOL    HW155990   2.150   3.106   7.813 -0.6658 -0.7126 -0.3443
18183SOL    HW255991   2.154   3.224   7.908 -0.5126 -0.2365 -0.9320
18184SOL     OW55992   6.370   3.916   2.823  0.2922  0.1095  0.0269
18184SOL    HW155993   6.457   3.950   2.800  1.0049 -0.2020  2.0321
18184SOL    HW255994   6.377   3.894   2.916 -2.4985  1.8590  0.7761
18185SOL     OW55995   6.865   6.583   4.963  0.3431  0.3010  0.0823
18185SOL    HW155996   6.885   6.498   4.926 -0.5127  0.2262 -0.2304
18185SOL    HW255997   6.908   6.646   4.905 -1.1044  0.1961 -1.1780
18186SOL     OW55998   5.989   6.977   5.544  0.8378 -0.0026 -0.3256
18186SOL    HW155999   6.058   7.039   5.568  0.6561  0.2946 -0.5739
18186SOL    HW256000   5.967   6.998   5.453 -0.5151  0.7889  0.1612
18187SOL     OW56001   3.376   2.127   2.295  0.2387 -0.1664  0.4943
18187SOL    HW156002   3.441   2.143   2.226  1.2384  0.3855  1.5253
18187SOL    HW256003   3.312   2.070   2.254  0.7367  0.2382 -0.9337
18188SOL     OW56004   0.681   3.773   6.871 -0.3267 -0.0871 -0.7411
18188SOL    HW156005   0.607   3.772   6.932  1.1274 -1.7010  1.1320
18188SOL    HW256006   0.748   3.719   6.914  1.3586 -0.0037 -3.0924
18189SOL     OW56007   4.702   0.235  10.396  0.5777 -0.8336  0.0359
18189SOL    HW156008   4.731   0.305  10.455  1.0028 -0.4655 -0.5983
18189SOL    HW256009   4.752   0.158  10.423  1.4534 -0.4401 -0.4241
18190SOL     OW56010   2.449   4.015   1.536  0.0630 -0.4669  0.0358
18190SOL    HW156011   2.422   3.931   1.500 -0.2887 -1.2996  2.1177
18190SOL    HW256012   2.378   4.040   1.595  1.8177 -0.6193  2.3806
18191SOL     OW56013   3.495   3.933   4.342  0.6261  0.0614 -0.6208
18191SOL    HW156014   3.407   3.898   4.355  1.0278 -0.1701  1.9985
18191SOL    HW256015   3.543   3.861   4.301  0.5156 -1.2056  1.3760
18192SOL     OW56016   4.329   4.751   0.995 -0.0887 -0.3273  0.5239
18192SOL    HW156017   4.277   4.793   0.926  0.6131 -0.1126  0.1101
18192SOL    HW256018   4.348   4.664   0.960  0.6743 -0.0501  0.2205
18193SOL     OW56019   3.120   0.861   5.092 -0.4134  0.3631 -0.1993
18193SOL    HW156020   3.121   0.952   5.062 -0.7607  0.7960  1.0205
18193SOL    HW256021   3.041   0.855   5.146  0.1983 -0.3368  0.6426
18194SOL     OW56022   1.738   5.980   8.682 -0.5984  0.1850 -0.0860
18194SOL    HW156023   1.765   6.004   8.771 -0.2522 -3.0707  0.8219
18194SOL    HW256024   1.820   5.971   8.634 -0.3438 -2.7913  0.7168
18195SOL     OW56025   6.920   1.185  12.194  0.4129 -0.4795  0.1469
18195SOL    HW156026   6.863   1.115  12.225 -0.8125 -0.1050 -1.1356
18195SOL    HW256027   6.859   1.252  12.162  1.5809  0.0107 -1.1064
18196SOL     OW56028   6.113   0.438   1.663  0.6106 -0.0163 -0.0245
18196SOL    HW156029   6.078   0.389   1.588  0.0573 -0.1719  0.3298
18196SOL    HW256030   6.207   0.426   1.658  0.4500 -1.7044  0.4375
18197SOL     OW56031   5.940   2.384   3.416  0.3036 -0.6234 -0.4707
18197SOL    HW156032   6.015   2.344   3.460 -0.3052 -0.3284  0.8711
18197SOL    HW256033   5.876   2.314   3.411  0.7110 -0.9270 -1.7827
18198SOL     OW56034   2.672   0.072   7.908  0.0994  0.1311  0.4012
18198SOL    HW156035   2.645   0.163   7.919  1.4828  0.4781  1.2142
18198SOL    HW256036   2.738   0.058   7.976 -1.7155 -2.2041  1.8711
18199SOL     OW56037   1.040   7.750   3.601 -0.3509 -0.6950  0.1818
18199SOL    HW156038   1.070   7.838   3.580  1.6795 -1.2709  0.4056
18199SOL    HW256039   1.026   7.709   3.515 -1.2685 -0.1719  0.0793
18200SOL     OW56040   1.936   6.622   9.847  0.0472  0.4539  0.6152
18200SOL    HW156041   1.929   6.571   9.766 -3.2351  0.0070  1.0406
18200SOL    HW256042   1.845   6.645   9.868  0.9740  2.0578  3.2439
18201SOL     OW56043   0.754   1.109   2.132  0.1209  0.0093  0.1864
18201SOL    HW156044   0.706   1.071   2.205  0.6179 -0.1304  0.4447
18201SOL    HW256045   0.756   1.203   2.150  1.3049 -0.1506  1.0054
18202SOL     OW56046   1.605   4.674   4.626 -0.5058 -0.5985  0.1867
18202SOL    HW156047   1.684   4.641   4.582 -0.4315  1.5450 -1.4616
18202SOL    HW256048   1.537   4.668   4.559 -0.7981  1.1726  0.2887
18203SOL     OW56049   0.277   3.080   7.821  0.4876 -0.0648  0.0793
18203SOL    HW156050   0.185   3.106   7.808  0.6971 -0.7754 -3.7784
18203SOL    HW256051   0.273   2.985   7.833  0.7538 -0.1743 -0.6970
18204SOL     OW56052   6.101   0.412  10.194  0.3458  0.1769 -0.2825
18204SOL    HW156053   6.042   0.439  10.265 -0.2478  0.1728 -0.7697
18204SOL    HW256054   6.187   0.448  10.219 -0.2887  2.0433 -0.6259
18205SOL     OW56055   3.158   1.174  10.618  0.3079 -0.1297 -0.1399
18205SOL    HW156056   3.132   1.154  10.708  0.7352  0.1821  0.0594
18205SOL    HW256057   3.229   1.113  10.599  0.9168  0.4870  0.1060
18206SOL     OW56058   2.714   5.307  10.714  0.3804 -0.2245 -0.8947
18206SOL    HW156059   2.723   5.375  10.647  1.5528  0.4868 -0.0593
18206SOL    HW256060   2.626   5.319  10.748  0.2489  0.2811 -1.3812
18207SOL     OW56061   5.029   3.626   2.951 -0.0822 -0.0164  0.3082
18207SOL    HW156062   5.049   3.719   2.951 -0.4614  0.0825 -0.5185
18207SOL    HW256063   4.937   3.621   2.922  0.4393 -0.7064 -1.4002
18208SOL     OW56064   1.226   3.406   0.512  0.2471  0.4627  0.5258
18208SOL    HW156065   1.318   3.419   0.487 -0.3484  1.9936 -1.0422
18208SOL    HW256066   1.215   3.460   0.590  0.9200 -0.5922  1.3846
18209SOL     OW56067   1.744   4.272   5.317 -0.4477 -0.2153  0.0181
18209SOL    HW156068   1.786   4.231   5.393 -1.3858  0.3441  0.8678
18209SOL    HW256069   1.743   4.365   5.338 -0.4081 -0.0189 -0.8474
18210SOL     OW56070   5.374   7.259   6.877 -0.0935 -0.8928  0.5108
18210SOL    HW156071   5.316   7.243   6.803 -0.9067  2.2120  0.3407
18210SOL    HW256072   5.451   7.301   6.839 -1.1106  2.0324  1.4094
18211SOL     OW56073   1.204   6.901   5.684  0.2280 -0.1133  0.0435
18211SOL    HW156074   1.181   6.808   5.677  0.7539 -0.3387  1.0244
18211SOL    HW256075   1.120   6.946   5.694  0.0065 -0.5625  0.2395
18212SOL     OW56076   3.131   1.563   7.927  0.0116 -0.0474  0.1380
18212SOL    HW156077   3.140   1.634   7.863 -0.6111 -0.1717 -0.0960
18212SOL    HW256078   3.136   1.606   8.012 -2.6372  0.6267  0.0302
18213SOL     OW56079   2.739   7.215   1.500  0.4780  0.3755  0.7929
18213SOL    HW156080   2.775   7.301   1.479 -1.4780  0.5872 -2.4954
18213SOL    HW256081   2.700   7.225   1.586  0.3720  2.8134  0.5179
18214SOL     OW56082   3.961   0.067   1.935 -0.2508 -0.1257  0.4471
18214SOL    HW156083   4.035   0.050   1.993 -1.0600  1.3549  2.0302
18214SOL    HW256084   3.961  -0.006   1.873  3.0281  0.2767 -0.1881
18215SOL     OW56085   5.128   2.996  11.996 -0.0787 -0.3644 -0.1808
18215SOL    HW156086   5.164   3.052  11.928  0.9557 -1.1168 -0.2807
18215SOL    HW256087   5.085   2.925  11.949  0.3064 -0.6850 -0.0521
18216SOL     OW56088   3.355   6.085   6.190 -0.2910 -0.2996 -0.2188
18216SOL    HW156089   3.355   6.050   6.279  1.6122 -0.1074 -0.0985
18216SOL    HW256090   3.353   6.180   6.201  0.1174 -0.2707 -0.3645
18217SOL     OW56091   6.484   4.377   8.524  0.0133  0.0009 -0.4446
18217SOL    HW156092   6.488   4.298   8.578 -0.4349 -0.2390 -0.7562
18217SOL    HW256093   6.399   4.417   8.546  0.7596  1.0624  0.6290
18218SOL     OW56094   6.889   6.683   1.558  0.3434 -0.3931  0.5683
18218SOL    HW156095   6.941   6.604   1.545 -0.0024 -0.5940  0.3938
18218SOL    HW256096   6.885   6.724   1.472  0.4457 -0.2339  0.6397
18219SOL     OW56097   2.339   5.720   6.483 -0.1519 -0.2748 -0.5273
18219SOL    HW156098   2.353   5.629   6.507 -1.3380 -0.1686  0.6648
18219SOL    HW256099   2.427   5.753   6.462  0.4660 -1.3345  0.3103
18220SOL     OW56100   7.954   7.630  10.233  0.2909  0.0658  0.0531
18220SOL    HW156101   7.878   7.572  10.236  0.3615 -0.0773 -0.6822
18220SOL    HW256102   7.917   7.718  10.227  0.1830  0.1217  1.3144
18221SOL     OW56103   0.534   3.210   0.515 -0.3533  0.1049 -0.0015
18221SOL    HW156104   0.491   3.259   0.444  0.2078  0.6782  0.0440
18221SOL    HW256105   0.590   3.275   0.558 -2.2285  0.3313  2.2985
18222SOL     OW56106   2.431   3.261   5.486  0.8201 -0.1111 -0.1749
18222SOL    HW156107   2.363   3.200   5.457 -0.6380  1.1434  0.4967
18222SOL    HW256108   2.512   3.209   5.484 -0.0499 -1.5021 -1.4681
18223SOL     OW56109   2.194   1.743  10.507  0.3722 -0.2056 -0.5082
18223SOL    HW156110   2.115   1.773  10.551  1.3683  0.1593  1.1091
18223SOL    HW256111   2.232   1.678  10.566  1.2974 -0.3625 -1.2436
18224SOL     OW56112   4.477   5.991   5.139 -0.7724  0.4317 -1.1075
18224SOL    HW156113   4.419   5.927   5.180  0.7981  0.6539  1.6546
18224SOL    HW256114   4.442   6.076   5.166  0.2679  0.5872 -0.2161
18225SOL     OW56115   4.603   6.150   0.821  0.1889 -0.0684  0.2096
18225SOL    HW156116   4.585   6.127   0.730 -0.7730 -1.2699  0.6694
18225SOL    HW256117   4.617   6.065   0.864  0.4474  0.4685  1.2145
18226SOL     OW56118   0.176   7.683   8.767 -0.2001  0.5578 -0.4165
18226SOL    HW156119   0.208   7.604   8.723 -1.4662 -0.5729  0.5966
18226SOL    HW256120   0.191   7.753   8.705  1.2863 -0.4178 -1.2174
18227SOL     OW56121   7.172   6.127   1.534 -0.1088  0.0030 -0.2211
18227SOL    HW156122   7.085   6.134   1.573  0.0572 -1.2100  0.3999
18227SOL    HW256123   7.212   6.213   1.550 -0.8497  0.2540  0.3232
18228SOL     OW56124   3.762   1.686   9.998  0.0147 -0.0498  0.4567
18228SOL    HW156125   3.792   1.665   9.909 -1.6311  2.5570 -0.8510
18228SOL    HW256126   3.682   1.634  10.009 -0.0053 -0.0693  0.2317
18229SOL     OW56127   0.548   1.013   8.482 -0.1970 -0.7174 -0.2425
18229SOL    HW156128   0.584   1.072   8.548 -1.6608 -0.2586  0.1727
18229SOL    HW256129   0.591   0.929   8.499 -1.0129 -0.7782  1.7451
18230SOL     OW56130   2.632   0.417   6.603 -0.2809 -0.5640  0.2639
18230SOL    HW156131   2.692   0.415   6.528  0.3295 -0.4399  0.7499
18230SOL    HW256132   2.546   0.402   6.564  0.2761 -2.9430 -0.2069
18231SOL     OW56133   4.530   3.741   2.379 -0.2635 -0.7170 -0.3381
18231SOL    HW156134   4.622   3.733   2.405 -0.3675 -1.3472 -0.1509
18231SOL    HW256135   4.531   3.799   2.303  0.2077 -0.1030  0.1274
18232SOL     OW56136   6.725   3.161  11.530  0.0764 -0.1808 -0.1634
18232SOL    HW156137   6.768   3.109  11.598  1.5848  0.1987 -0.7738
18232SOL    HW256138   6.668   3.099  11.485 -1.4084 -0.3085  1.7740
18233SOL     OW56139   3.891   1.680   6.494  0.5239  0.0305  0.0175
18233SOL    HW156140   3.931   1.767   6.485  0.8369 -0.1550 -0.3782
18233SOL    HW256141   3.950   1.621   6.447  1.0469 -0.6206  1.4368
18234SOL     OW56142   0.140   1.664   1.572  0.0032  0.2775  0.1860
18234SOL    HW156143   0.184   1.673   1.657 -0.9413 -0.2644  0.7481
18234SOL    HW256144   0.089   1.744   1.562  0.9850  0.8602 -0.4203
18235SOL     OW56145   1.193   3.114   2.819  0.1563 -0.6751 -0.1465
18235SOL    HW156146   1.254   3.187   2.804 -1.9514  0.6088 -3.4868
18235SOL    HW256147   1.224   3.045   2.761 -1.4537  0.0194 -1.9370
18236SOL     OW56148   7.948   7.920   6.992  0.3129  0.1921  0.2946
18236SOL    HW156149   7.999   7.983   7.044  0.8257  0.0164  0.0112
18236SOL    HW256150   7.932   7.847   7.052 -0.6134  0.7420  0.7458
18237SOL     OW56151   7.568   7.843   1.072 -0.3357  0.1399 -0.0228
18237SOL    HW156152   7.619   7.911   1.029 -2.4426  1.6226 -0.3393
18237SOL    HW256153   7.576   7.766   1.015  3.5962 -0.6413  1.2723
18238SOL     OW56154   5.728   1.138   1.900 -0.0519 -0.3244 -0.1456
18238SOL    HW156155   5.802   1.144   1.839  0.2152 -2.2343 -0.0682
18238SOL    HW256156   5.653   1.116   1.845 -0.4576  0.9999 -0.1459
18239SOL     OW56157   3.364   1.650   9.850  0.0279  0.0262  0.4865
18239SOL    HW156158   3.373   1.735   9.893  1.6032  0.8393 -1.3181
18239SOL    HW256159   3.299   1.665   9.781  0.5807 -0.1242 -0.0731
18240SOL     OW56160   6.326   3.178   2.623 -0.1701 -0.7542 -0.1265
18240SOL    HW156161   6.407   3.156   2.577  0.8490 -0.2504  1.3392
18240SOL    HW256162   6.257   3.139   2.570  1.0575 -1.5802 -1.1834
18241SOL     OW56163   2.148   2.560  10.241 -0.5736 -0.0081 -0.2647
18241SOL    HW156164   2.071   2.510  10.210 -1.8398  1.2226  0.7845
18241SOL    HW256165   2.122   2.651  10.232  1.2469  0.4786 -0.9707
18242SOL     OW56166   5.495   2.234   5.330  0.3072  0.1709 -0.0608
18242SOL    HW156167   5.406   2.231   5.367  0.3495 -2.4934  0.0120
18242SOL    HW256168   5.495   2.312   5.274 -1.8023  0.6961  0.5732
18243SOL     OW56169   7.616   4.599   0.761  0.3418  0.3281  0.5350
18243SOL    HW156170   7.709   4.583   0.780  0.0244 -0.7738  1.2539
18243SOL    HW256171   7.602   4.561   0.674  0.3309 -0.4591  0.8756
18244SOL     OW56172   6.375   6.767   8.287 -0.2922 -0.4743 -0.0905
18244SOL    HW156173   6.330   6.847   8.258  1.6866  0.3955 -0.9670
18244SOL    HW256174   6.392   6.719   8.206 -1.5475 -1.8965  0.4392
18245SOL     OW56175   0.478   0.524   6.094 -0.0468  0.1125  0.5597
18245SOL    HW156176   0.540   0.470   6.044 -2.1370 -1.2082 -0.7688
18245SOL    HW256177   0.471   0.480   6.178  1.6586  0.9589  1.1964
18246SOL     OW56178   6.306   3.337   6.941  0.5762 -0.0715 -0.1448
18246SOL    HW156179   6.288   3.243   6.938  3.3629 -0.6690 -1.4286
18246SOL    HW256180   6.339   3.358   6.854  1.0223  1.8729  0.4471
18247SOL     OW56181   5.520   7.119  10.576 -0.1293 -0.0111  0.9058
18247SOL    HW156182   5.518   7.208  10.612  1.7771 -0.0317  1.1600
18247SOL    HW256183   5.434   7.082  10.599 -0.3586  1.2178  2.1853
18248SOL     OW56184   6.326   0.343   5.202 -0.2343 -0.3237  0.0187
18248SOL    HW156185   6.291   0.262   5.165 -0.0631 -0.7840  0.8483
18248SOL    HW256186   6.405   0.317   5.248 -0.3606  0.2559  0.5857
18249SOL     OW56187   4.958   2.239   6.135  0.3039 -0.0576 -0.0364
18249SOL    HW156188   5.036   2.287   6.161  1.1903 -1.5364  0.1387
18249SOL    HW256189   4.948   2.172   6.202 -0.7477 -0.2963 -0.4162
18250SOL     OW56190   2.000   3.473   5.333  0.3027  0.8135 -0.2767
18250SOL    HW156191   1.914   3.514   5.338 -0.9894 -1.6156 -1.2248
18250SOL    HW256192   2.027   3.461   5.425 -0.4412  1.3925  0.0243
18251SOL     OW56193   5.143   3.993   0.025  0.0417 -0.3873  0.6563
18251SOL    HW156194   5.127   3.973   0.118  0.2130  1.9083  1.2471
18251SOL    HW256195   5.186   4.078   0.026 -0.6097  0.0330 -1.5834
18252SOL     OW56196   2.712   6.140   1.991  0.0474  0.3231  0.7310
18252SOL    HW156197   2.790   6.155   1.939 -0.2076 -0.7924 -0.0075
18252SOL    HW256198   2.644   6.194   1.951 -0.4550 -1.4166 -0.8944
18253SOL     OW56199   5.061   0.966   9.687 -0.3188  0.6554  0.3972
18253SOL    HW156200   5.032   0.922   9.607  2.7003 -1.3164  0.2284
18253SOL    HW256201   5.073   1.057   9.661 -0.2628  0.2400 -1.1306
18254SOL     OW56202   2.234   1.392  11.032 -0.3237 -0.1360  0.4368
18254SOL    HW156203   2.151   1.345  11.045 -0.7884  0.4836 -0.2482
18254SOL    HW256204   2.259   1.371  10.942 -0.9427  1.5468 -0.1584
18255SOL     OW56205   7.659   1.756  10.600 -0.7585  0.0314  0.0545
18255SOL    HW156206   7.589   1.820  10.608 -1.0345 -0.3083  0.4010
18255SOL    HW256207   7.651   1.722  10.511 -0.5731  0.5168 -0.1519
18256SOL     OW56208   7.056   3.517   9.080  0.2928  0.4229  0.1509
18256SOL    HW156209   6.975   3.470   9.101  0.2470  0.6132  0.4105
18256SOL    HW256210   7.119   3.448   9.058 -0.1752  0.3149 -0.9072
18257SOL     OW56211   4.270   4.273   5.471 -0.4724 -0.4426  0.5502
18257SOL    HW156212   4.335   4.255   5.539 -0.2826  0.9551  0.7644
18257SOL    HW256213   4.187   4.282   5.518 -0.1807  1.5272  0.7666
18258SOL     OW56214   7.504   1.711  10.103 -0.1824  0.1317  0.2268
18258SOL    HW156215   7.466   1.651  10.039 -0.3966  1.2690 -0.7402
18258SOL    HW256216   7.437   1.719  10.171 -0.4041 -0.2411  0.0579
18259SOL     OW56217   5.489   2.567   9.894 -0.0751  0.4737 -0.0281
18259SOL    HW156218   5.405   2.526   9.913 -0.3133  0.1030 -1.6803
18259SOL    HW256219   5.466   2.652   9.856  0.2746  0.3313 -0.5747
18260SOL     OW56220   7.145   3.741   0.253 -0.4352 -0.2526  0.3449
18260SOL    HW156221   7.138   3.836   0.262 -1.0892 -0.2904  0.2554
18260SOL    HW256222   7.083   3.719   0.185 -0.4134 -0.7696  0.4920
18261SOL     OW56223   3.553   4.171   1.784  0.6414  0.4142 -0.5033
18261SOL    HW156224   3.631   4.143   1.737  2.1664  0.9128  1.6101
18261SOL    HW256225   3.516   4.241   1.730  0.8202 -0.7630 -2.2217
18262SOL     OW56226   6.100   4.989  11.809  0.1165 -0.3246  0.1648
18262SOL    HW156227   6.113   5.054  11.740 -1.1464 -0.3454 -0.1308
18262SOL    HW256228   6.187   4.954  11.827  0.7947  1.3235  0.2176
18263SOL     OW56229   0.075   3.761   5.864 -0.1347  0.4108 -0.0854
18263SOL    HW156230   0.055   3.790   5.953 -0.8057  1.4485 -0.5502
18263SOL    HW256231   0.004   3.701   5.842  0.5106 -0.5499  0.3809
18264SOL     OW56232   3.725   0.636   0.667 -0.3402 -0.1391  0.5068
18264SOL    HW156233   3.691   0.706   0.723 -0.5990 -0.5399  0.8600
18264SOL    HW256234   3.647   0.589   0.637 -0.3299  1.0416 -1.5297
18265SOL     OW56235   4.052   6.343  11.422 -0.0654  0.8040  0.2218
18265SOL    HW156236   3.998   6.270  11.451  1.4268 -1.2165 -1.7215
18265SOL    HW256237   3.994   6.398  11.369 -0.9355  0.4411  0.7883
18266SOL     OW56238   1.767   3.603   0.136  0.2873 -0.0657 -0.1275
18266SOL    HW156239   1.780   3.561   0.221 -1.1086 -0.5313 -0.1182
18266SOL    HW256240   1.676   3.634   0.139  0.2165 -0.1259 -1.4711
18267SOL     OW56241   7.799   3.972   8.216  0.2497  0.1905 -0.2557
18267SOL    HW156242   7.846   3.947   8.295 -0.3522  0.0393  0.0639
18267SOL    HW256243   7.726   3.911   8.212 -1.2514  1.8259  0.5245
18268SOL     OW56244   1.935   0.871   0.743  0.0554  0.3447 -0.5331
18268SOL    HW156245   2.025   0.882   0.714 -0.0334  0.6038 -0.7190
18268SOL    HW256246   1.925   0.935   0.814  0.3362 -0.4351  0.2233
18269SOL     OW56247   5.946   7.238   2.174  0.2347  0.4655  0.9810
18269SOL    HW156248   5.971   7.325   2.205  0.3279  0.6917  0.2749
18269SOL    HW256249   6.002   7.222   2.099 -0.2559  0.0809  0.6915
18270SOL     OW56250   0.590   4.217  10.292  0.2997 -0.1920 -0.3786
18270SOL    HW156251   0.607   4.145  10.231  0.6713  1.8252 -2.8452
18270SOL    HW256252   0.571   4.292  10.235 -0.8963  1.4820  2.0695
18271SOL     OW56253   2.972   5.413  11.581 -0.4702  0.7255 -0.2263
18271SOL    HW156254   2.970   5.438  11.673 -2.1201  1.9018 -0.5456
18271SOL    HW256255   2.930   5.326  11.579  0.8235  0.0621  0.2673
18272SOL     OW56256   0.845   0.003   2.513 -0.2875 -0.4485  0.5878
18272SOL    HW156257   0.816   0.033   2.599 -2.2934  2.2125 -0.8776
18272SOL    HW256258   0.769  -0.044   2.478 -0.5658  0.9281 -0.7602
18273SOL     OW56259   2.371   7.179   8.582  0.2376 -0.2161  0.1137
18273SOL    HW156260   2.416   7.141   8.507 -2.7155 -0.9206 -1.4460
18273SOL    HW256261   2.368   7.273   8.563  1.2063 -0.1208  0.3724
18274SOL     OW56262   4.701   5.055   7.691  0.1664 -0.1379 -0.3244
18274SOL    HW156263   4.706   4.964   7.661  0.5167 -0.1527 -0.2270
18274SOL    HW256264   4.791   5.077   7.715 -0.0288  0.0189  0.2836
18275SOL     OW56265   6.430   2.013   9.775  0.3063  0.2137 -0.6127
18275SOL    HW156266   6.497   1.978   9.717 -0.4881 -0.4906 -1.1492
18275SOL    HW256267   6.363   2.047   9.716 -0.8763 -1.2141 -0.1763
18276SOL     OW56268   4.319   0.812   2.074 -0.4814 -0.2601  0.4275
18276SOL    HW156269   4.382   0.877   2.045 -2.1397  0.7573 -1.1170
18276SOL    HW256270   4.363   0.764   2.144  1.4753  1.2566  0.2921
18277SOL     OW56271   3.669   4.111  10.319 -0.4673 -0.0248 -0.6369
18277SOL    HW156272   3.647   4.156  10.401  1.5197  0.8437 -0.5251
18277SOL    HW256273   3.641   4.021  10.333 -0.4175  0.1681  0.8915
18278SOL     OW56274   0.380   3.981   6.359 -0.1804 -0.5284 -0.9201
18278SOL    HW156275   0.428   4.003   6.279  1.3771 -0.0874  0.0839
18278SOL    HW256276   0.424   3.903   6.393 -3.0057 -2.8821 -2.2258
18279SOL     OW56277   3.967   4.123   1.921 -0.4765 -0.0307 -0.2665
18279SOL    HW156278   3.958   4.032   1.896  0.4226 -0.6734  1.5610
18279SOL    HW256279   3.961   4.172   1.838  0.3010 -1.8256 -1.4340
18280SOL     OW56280   1.563   5.711  10.374  0.4852 -0.0117  0.1864
18280SOL    HW156281   1.527   5.631  10.412  0.9344 -0.3752 -0.1519
18280SOL    HW256282   1.486   5.762  10.348  0.1804  0.0454  1.1673
18281SOL     OW56283   1.185   0.674  10.738  0.0169  0.0895  0.1590
18281SOL    HW156284   1.209   0.675  10.645 -1.5486 -1.1040 -0.2930
18281SOL    HW256285   1.172   0.582  10.759  3.6028 -0.0765  2.5403
18282SOL     OW56286   3.405   4.901  12.294 -0.3929  0.1500  0.6295
18282SOL    HW156287   3.396   4.926  12.202 -0.4481 -0.1717  0.5437
18282SOL    HW256288   3.348   4.961  12.341 -0.7570 -0.0087  0.3982
18283SOL     OW56289   5.800   1.340   1.209  0.3431 -0.6728 -0.0344
18283SOL    HW156290   5.795   1.368   1.118 -0.2230 -0.9611 -0.0958
18283SOL    HW256291   5.884   1.296   1.217 -0.0304 -1.5214 -0.6689
18284SOL     OW56292   7.979   3.055   4.227 -0.0481 -0.1741 -0.2331
18284SOL    HW156293   7.893   3.018   4.205  0.5884 -0.5314 -2.2812
18284SOL    HW256294   8.039   3.018   4.162  1.5867  0.4511  0.8548
18285SOL     OW56295   1.180   3.971   5.033  0.6183  0.2786 -0.4874
18285SOL    HW156296   1.162   3.977   5.127  0.7182  0.2616 -0.4669
18285SOL    HW256297   1.273   3.992   5.025  0.5492  0.5449 -0.6124
18286SOL     OW56298   4.188   3.986   0.552 -0.0323 -0.3330 -0.0678
18286SOL    HW156299   4.134   4.013   0.626  0.6249 -0.1477  0.3511
18286SOL    HW256300   4.203   3.892   0.566  0.5543 -0.1856  0.3470
18287SOL     OW56301   4.191   1.067   3.227  0.2989  0.2064 -0.3536
18287SOL    HW156302   4.216   0.977   3.207  0.2178 -0.0904  0.7957
18287SOL    HW256303   4.104   1.077   3.190  0.2016 -0.2812 -0.2647
18288SOL     OW56304   2.965   2.442  10.285 -0.7097 -0.5920 -0.0189
18288SOL    HW156305   2.908   2.374  10.321 -1.1470 -1.7282 -2.6828
18288SOL    HW256306   3.054   2.409  10.297 -0.7838 -0.5633  0.6860
18289SOL     OW56307   3.197   7.751   2.573 -0.3072 -0.2096  0.0397
18289SOL    HW156308   3.133   7.757   2.502 -0.6899  1.0684  0.4692
18289SOL    HW256309   3.219   7.842   2.594 -0.3944 -0.5480  1.7360
18290SOL     OW56310   2.363   2.624   8.996  0.1667 -0.3936 -0.7024
18290SOL    HW156311   2.389   2.715   8.984  3.2076 -1.2695 -1.7088
18290SOL    HW256312   2.322   2.622   9.083  3.2899  1.3872  1.0052
18291SOL     OW56313   1.488   3.206   4.840  0.0600 -0.1222  0.0521
18291SOL    HW156314   1.557   3.144   4.815 -1.1427 -1.3451 -0.3961
18291SOL    HW256315   1.497   3.214   4.935  0.0821 -1.1953  0.1530
18292SOL     OW56316   4.926   2.814   2.728  0.5710 -0.2041  0.1549
18292SOL    HW156317   4.887   2.893   2.765  0.9539  0.1931 -0.2798
18292SOL    HW256318   4.869   2.791   2.655  1.9070  1.2072 -1.3988
18293SOL     OW56319   7.274   3.966   8.590  0.0046  0.3980  0.0019
18293SOL    HW156320   7.325   3.987   8.668 -1.3316  3.2308  0.2468
18293SOL    HW256321   7.290   3.873   8.575  2.7378  0.4622  1.8165
18294SOL     OW56322   4.120   1.182   1.137 -0.8434  0.1289 -0.2873
18294SOL    HW156323   4.107   1.214   1.227  1.0689 -1.1082  0.4928
18294SOL    HW256324   4.047   1.122   1.123  0.0756 -1.5244  1.4161
18295SOL     OW56325   4.900   4.167   3.924  0.3405  0.2668 -0.1064
18295SOL    HW156326   4.888   4.171   3.829  2.2422 -0.6906 -0.4267
18295SOL    HW256327   4.937   4.252   3.948  0.7210  0.1746 -0.3658
18296SOL     OW56328   7.392   1.552  11.135 -0.5459  0.3911  0.3425
18296SOL    HW156329   7.480   1.581  11.112 -0.5997  0.0881 -0.2489
18296SOL    HW256330   7.393   1.457  11.120 -1.7181  0.6924 -2.1667
18297SOL     OW56331   0.898   0.777   3.341 -0.5759 -0.3946  0.5038
18297SOL    HW156332   0.908   0.872   3.336 -1.4258 -0.2714  0.9171
18297SOL    HW256333   0.804   0.762   3.330 -0.6398 -1.0722  1.7532
18298SOL     OW56334   6.462   2.730   4.059 -0.0189 -0.4063 -0.4842
18298SOL    HW156335   6.500   2.803   4.107 -1.8108  0.3208 -0.1114
18298SOL    HW256336   6.525   2.711   3.990  0.9002  0.8832 -0.0262
18299SOL     OW56337   5.422   1.666   5.714  0.5159  0.4066  0.2173
18299SOL    HW156338   5.371   1.746   5.723  0.1598  0.4938 -2.1138
18299SOL    HW256339   5.416   1.643   5.622  1.1451 -1.9766  0.6940
18300SOL     OW56340   0.306   1.104  11.089 -0.2635  0.0551 -0.4227
18300SOL    HW156341   0.355   1.027  11.119 -1.0119 -1.0428 -1.8772
18300SOL    HW256342   0.374   1.169  11.069  0.4383 -0.5645 -0.1111
18301SOL     OW56343   6.901   3.409   8.541 -0.2550  0.1532  0.0834
18301SOL    HW156344   6.934   3.498   8.534 -0.5735  0.1766 -1.5227
18301SOL    HW256345   6.944   3.373   8.618 -0.5737  1.8677  1.1179
18302SOL     OW56346   7.014   5.366   5.468  0.4722 -0.1012  0.1661
18302SOL    HW156347   6.979   5.339   5.383  1.2700 -2.9444  0.6147
18302SOL    HW256348   7.104   5.334   5.467  0.4849 -0.2163  2.0579
18303SOL     OW56349   1.049   4.298   7.479 -0.5908  0.1098  0.3216
18303SOL    HW156350   0.980   4.239   7.510  1.7789 -2.4380  1.1093
18303SOL    HW256351   1.122   4.284   7.539  0.4801  3.2075 -0.0644
18304SOL     OW56352   5.761   0.317  10.562  0.9936  0.7652 -0.2462
18304SOL    HW156353   5.789   0.239  10.513 -1.1414 -1.4559  1.8174
18304SOL    HW256354   5.686   0.350  10.514  0.2368 -0.1130  0.3056
18305SOL     OW56355   5.042   0.100   6.164 -0.1198  0.1817 -0.0410
18305SOL    HW156356   4.953   0.076   6.140 -0.3361 -0.0004  0.8910
18305SOL    HW256357   5.057   0.054   6.247  0.7694  0.3632 -0.0933
18306SOL     OW56358   7.400   0.524  12.462  0.8376  0.2151 -0.0004
18306SOL    HW156359   7.327   0.578  12.494 -0.0104 -1.3112  0.7427
18306SOL    HW256360   7.455   0.585  12.413 -0.8894  1.4367 -0.5106
18307SOL     OW56361   3.423   5.437   1.525  0.0321  0.1230  0.0857
18307SOL    HW156362   3.370   5.470   1.453 -0.9820 -1.3607  0.1260
18307SOL    HW256363   3.400   5.494   1.599 -2.2259 -1.0269  0.3402
18308SOL     OW56364   6.444   1.306   6.291 -0.0964 -0.4739  0.0580
18308SOL    HW156365   6.447   1.387   6.342  3.3383 -0.0403 -0.5567
18308SOL    HW256366   6.517   1.253   6.325 -0.9079 -2.3988 -0.9987
18309SOL     OW56367   2.557   7.585  10.718 -0.3637  0.2773 -0.0370
18309SOL    HW156368   2.559   7.586  10.813 -0.7944  1.6129 -0.0125
18309SOL    HW256369   2.469   7.557  10.696  0.0274 -0.9675 -0.0739
18310SOL     OW56370   1.240   5.677   7.567  0.9896  0.0430  0.2192
18310SOL    HW156371   1.196   5.599   7.602 -0.4684  0.5824 -0.3509
18310SOL    HW256372   1.325   5.645   7.538  0.6750 -1.2120  0.6171
18311SOL     OW56373   2.941   2.240   5.902 -0.6861 -0.2874  0.0366
18311SOL    HW156374   2.989   2.178   5.845 -0.2751  0.5540 -0.5511
18311SOL    HW256375   2.996   2.318   5.904 -1.8541  0.5748 -0.3494
18312SOL     OW56376   0.469   2.071   8.667 -0.0035 -0.1568  0.7326
18312SOL    HW156377   0.450   2.144   8.608 -1.1069 -1.3715 -0.4651
18312SOL    HW256378   0.536   2.020   8.620 -1.0923 -1.2819  0.3686
18313SOL     OW56379   1.896   3.016  11.616 -0.0168 -0.5013  0.3001
18313SOL    HW156380   1.825   3.009  11.680  1.5929  0.9115  2.3959
18313SOL    HW256381   1.957   2.946  11.640  0.8612  0.3786  0.7149
18314SOL     OW56382   2.531   1.793   7.850  0.1443 -0.1839 -0.2943
18314SOL    HW156383   2.555   1.871   7.900  0.9727  1.3739 -2.8790
18314SOL    HW256384   2.443   1.812   7.817  0.3440 -0.3290 -0.9244
18315SOL     OW56385   3.860   2.387  12.006  0.2330 -0.1871  0.0554
18315SOL    HW156386   3.876   2.477  11.978  1.1095 -0.8564 -1.7448
18315SOL    HW256387   3.765   2.382  12.017  0.2822  1.2925  1.5424
18316SOL     OW56388   4.592   7.266   1.529  0.1281  0.4609  0.7641
18316SOL    HW156389   4.551   7.254   1.443 -1.4832  1.9166  1.2718
18316SOL    HW256390   4.573   7.185   1.576  0.4428 -0.0765 -0.0044
18317SOL     OW56391   0.549   5.482   5.072  0.2139  0.2475 -0.5811
18317SOL    HW156392   0.609   5.414   5.043 -1.7540 -0.7083 -2.7738
18317SOL    HW256393   0.585   5.563   5.035  1.4755  0.1301  0.3268
18318SOL     OW56394   3.760   0.950   4.654  0.0494 -0.4781 -0.0505
18318SOL    HW156395   3.847   0.972   4.689 -0.1312  0.6618 -0.3090
18318SOL    HW256396   3.720   1.034   4.634 -1.3655 -0.9614  0.6369
18319SOL     OW56397   2.539   2.948   0.435  0.0908  0.3764  0.2870
18319SOL    HW156398   2.512   2.895   0.510  1.2882  0.4574  0.7935
18319SOL    HW256399   2.466   3.009   0.422 -0.5096 -0.2063  0.8273
18320SOL     OW56400   1.696   6.024   7.615 -0.4828  0.3679  1.1323
18320SOL    HW156401   1.696   6.036   7.710  0.4106 -0.4291  1.2422
18320SOL    HW256402   1.787   6.005   7.593 -0.9166 -0.8644  0.2990
18321SOL     OW56403   3.904   7.056  10.839 -0.2443  0.1193 -0.1426
18321SOL    HW156404   3.956   7.079  10.917 -2.0343  2.4741  0.4572
18321SOL    HW256405   3.814   7.073  10.864 -1.0067 -0.3732 -2.3267
18322SOL     OW56406   6.997   1.170   5.564  0.2539 -0.7793 -0.3320
18322SOL    HW156407   6.985   1.221   5.484  0.8498 -1.5489 -0.9306
18322SOL    HW256408   7.022   1.234   5.629 -0.4456 -0.1086 -0.7030
18323SOL     OW56409   6.966   6.878   2.642  0.1060  0.3001  0.4618
18323SOL    HW156410   7.036   6.939   2.665  0.0267  0.7057 -0.3307
18323SOL    HW256411   6.919   6.922   2.571  0.7415 -1.1611 -0.9205
18324SOL     OW56412   3.069   4.852   3.816  0.0714  0.0857  0.4179
18324SOL    HW156413   3.129   4.796   3.864  0.3497 -0.5661 -0.6518
18324SOL    HW256414   3.060   4.809   3.730  1.5766  2.4926 -1.0591
18325SOL     OW56415   3.062   6.459   2.296 -0.1733  0.4060  0.0549
18325SOL    HW156416   3.064   6.541   2.246 -2.0541 -0.4796 -1.5771
18325SOL    HW256417   3.059   6.488   2.387  2.1173  2.0831 -0.2983
18326SOL     OW56418   6.346   1.039   7.538  0.6951 -0.4138 -0.5028
18326SOL    HW156419   6.356   1.126   7.577 -1.3655  0.7906 -2.4152
18326SOL    HW256420   6.262   1.008   7.571  0.4248 -0.7296 -1.4600
18327SOL     OW56421   6.812   4.420   0.828  0.2027 -0.3405  0.2486
18327SOL    HW156422   6.747   4.406   0.897  0.0305 -1.5026 -0.1382
18327SOL    HW256423   6.761   4.436   0.749  0.3699 -1.1005 -0.0238
18328SOL     OW56424   6.990   7.362  10.836  0.1644 -0.4038  0.7992
18328SOL    HW156425   7.006   7.427  10.767 -0.5391 -1.5669 -0.5098
18328SOL    HW256426   6.980   7.279  10.789 -1.8825 -0.9884  2.1527
18329SOL     OW56427   2.193   0.064  11.488  0.0083  0.1571 -0.5819
18329SOL    HW156428   2.135   0.120  11.539 -0.2023 -0.8032  0.2703
18329SOL    HW256429   2.144  -0.017  11.475  0.9042 -0.4355 -0.3918
18330SOL     OW56430   0.624   2.416   8.906 -0.4127  0.3705  0.3903
18330SOL    HW156431   0.566   2.352   8.947  1.0028 -1.1621  0.1456
18330SOL    HW256432   0.569   2.492   8.889 -2.5070 -1.2356 -0.4594
18331SOL     OW56433   3.446   0.087   9.465 -0.2811  0.0180  0.2691
18331SOL    HW156434   3.496   0.147   9.521 -0.8991 -0.8376  1.7771
18331SOL    HW256435   3.384   0.144   9.418  0.1651  0.7339  0.5374
18332SOL     OW56436   2.355   3.561   3.721  0.2254 -0.1047  0.0974
18332SOL    HW156437   2.436   3.555   3.771  0.1600 -0.3089  0.1793
18332SOL    HW256438   2.344   3.655   3.705  1.2183 -0.1796 -1.1422
18333SOL     OW56439   2.813   1.419   5.102 -0.1449 -0.2754 -0.9707
18333SOL    HW156440   2.813   1.405   5.197 -2.3904  0.5062 -0.8001
18333SOL    HW256441   2.906   1.418   5.078  0.5057 -0.0486  1.2916
18334SOL     OW56442   5.943   3.099   9.574  0.5046 -1.0216  0.2558
18334SOL    HW156443   5.980   3.079   9.660 -1.3561 -0.0895  1.3235
18334SOL    HW256444   5.909   3.188   9.582 -0.8223 -1.3757 -1.0334
18335SOL     OW56445   7.733   4.963   6.891 -0.3146 -0.5883 -0.4701
18335SOL    HW156446   7.686   4.888   6.928 -1.9584  0.0283 -1.2254
18335SOL    HW256447   7.667   5.032   6.887  0.7264  0.3674 -1.4080
18336SOL     OW56448   3.213   1.248  10.107  0.1359  0.5537  0.1513
18336SOL    HW156449   3.237   1.164  10.145 -0.6556  0.5468  0.6729
18336SOL    HW256450   3.118   1.243  10.097  0.1279  1.2404 -0.1620
18337SOL     OW56451   5.436   0.474   2.717 -0.0068 -0.6177  0.2995
18337SOL    HW156452   5.424   0.524   2.636 -0.0379  0.2079  0.8105
18337SOL    HW256453   5.496   0.403   2.692 -0.6249 -0.8379 -0.6325
18338SOL     OW56454   7.859   2.024   5.064 -0.5673 -0.5802  0.4361
18338SOL    HW156455   7.894   2.044   4.977 -1.6005 -0.6652 -0.0141
18338SOL    HW256456   7.781   1.971   5.047  0.2927 -2.2557  1.4971
18339SOL     OW56457   1.982   6.486   4.479  0.4863 -0.2790 -0.1983
18339SOL    HW156458   1.968   6.567   4.529 -1.4187  0.0605 -1.2084
18339SOL    HW256459   2.008   6.516   4.392 -1.0871 -0.6822 -0.8392
18340SOL     OW56460   2.941   6.044   1.179 -0.2102 -0.4045 -0.1810
18340SOL    HW156461   2.852   6.061   1.211 -0.4027 -0.0905 -0.8732
18340SOL    HW256462   2.938   6.066   1.086  0.6843 -0.0476 -0.1333
18341SOL     OW56463   2.017   4.479   9.894 -0.4710  0.0583 -0.0130
18341SOL    HW156464   1.976   4.504   9.810 -0.8736 -1.7822 -0.3986
18341SOL    HW256465   1.993   4.387   9.906  0.0731  0.1253  1.8575
18342SOL     OW56466   6.587   3.591   1.227  0.0242  0.8262 -0.1431
18342SOL    HW156467   6.577   3.556   1.315  0.4533  0.0975 -0.3733
18342SOL    HW256468   6.551   3.680   1.232  0.9522  1.1587  1.0068
18343SOL     OW56469   1.728   7.316   2.493  0.3334 -0.2286  0.5963
18343SOL    HW156470   1.704   7.324   2.400 -0.2713  1.4997  0.8822
18343SOL    HW256471   1.651   7.277   2.534 -0.3215  1.1597  0.7417
18344SOL     OW56472   6.497   6.150   5.676  0.2844  0.4561  0.0868
18344SOL    HW156473   6.549   6.092   5.620 -0.5914  0.3740 -0.6896
18344SOL    HW256474   6.501   6.110   5.763 -1.5561 -1.7162 -0.7150
18345SOL     OW56475   0.213   1.349   1.653  0.0479 -0.1714 -0.3483
18345SOL    HW156476   0.160   1.339   1.732  0.5616  1.3497  0.2191
18345SOL    HW256477   0.156   1.320   1.582 -0.3852 -1.6788  0.5684
18346SOL     OW56478   4.403   2.018   8.857 -0.5930  0.2638  0.1078
18346SOL    HW156479   4.389   1.942   8.800 -1.7897  0.8398 -0.4193
18346SOL    HW256480   4.314   2.047   8.880 -0.1363  0.3459  1.8879
18347SOL     OW56481   0.785   2.201   8.103 -0.0059 -0.2494 -0.5943
18347SOL    HW156482   0.863   2.188   8.156  0.6613  0.4526 -1.3807
18347SOL    HW256483   0.713   2.174   8.160  0.4446  2.7096  1.6136
18348SOL     OW56484   2.777   5.678  11.626  0.3232  0.3348 -0.5476
18348SOL    HW156485   2.851   5.640  11.674  1.2817  2.3043 -0.3362
18348SOL    HW256486   2.753   5.756  11.678  0.8784  2.1066 -2.8103
18349SOL     OW56487   7.008   3.030   0.954 -0.7381 -0.2227 -0.1148
18349SOL    HW156488   7.075   2.996   0.895 -0.6216  0.9112 -0.6554
18349SOL    HW256489   6.995   3.121   0.927 -1.2695  0.0850  1.0805
18350SOL     OW56490   0.806   0.172   9.418  0.3876 -0.2722 -0.2959
18350SOL    HW156491   0.850   0.251   9.389 -0.7589  0.7320  0.5981
18350SOL    HW256492   0.723   0.171   9.372 -0.1122 -0.3182  0.5834
18351SOL     OW56493   6.296   5.627  11.659 -0.2619  0.3845  0.2513
18351SOL    HW156494   6.255   5.707  11.625 -1.0978 -0.0107  0.2909
18351SOL    HW256495   6.225   5.582  11.705  0.0926 -0.5964 -0.1414
18352SOL     OW56496   4.342   0.160   7.171 -0.2785 -0.3105  0.1857
18352SOL    HW156497   4.429   0.199   7.159 -0.2847 -0.5747 -0.8028
18352SOL    HW256498   4.282   0.221   7.128 -0.3243 -1.1963 -1.0879
18353SOL     OW56499   3.024   1.990   1.955  0.4060 -0.4630 -0.3654
18353SOL    HW156500   3.084   1.949   1.893  0.7733  0.9022 -0.9275
18353SOL    HW256501   2.958   2.032   1.901  0.5842  0.5298  0.1687
18354SOL     OW56502   7.747   5.734   0.800 -0.5558  0.3362  0.4738
18354SOL    HW156503   7.811   5.663   0.808  0.2086  1.1589  2.1642
18354SOL    HW256504   7.754   5.763   0.709  0.8205 -0.1930  0.3896
18355SOL     OW56505   7.079   0.398   0.942 -0.1059  0.2312  0.4536
18355SOL    HW156506   7.068   0.493   0.928  0.8881  0.3810  0.6394
18355SOL    HW256507   7.149   0.391   1.006 -0.1878 -0.6431  0.4567
18356SOL     OW56508   0.940   0.133   9.099 -0.0117  0.0877 -0.6598
18356SOL    HW156509   0.904   0.076   9.031  0.3351 -1.3757  0.3470
18356SOL    HW256510   0.982   0.205   9.050 -0.3846 -0.5498 -1.9589
18357SOL     OW56511   1.098   2.576   6.111  0.0448  0.7613  0.4589
18357SOL    HW156512   1.069   2.667   6.106  0.2758  0.7976 -0.3157
18357SOL    HW256513   1.022   2.526   6.080  0.0188  0.7039  0.6130
18358SOL     OW56514   3.071   6.715  10.222  0.1800  0.0447 -1.0227
18358SOL    HW156515   3.046   6.674  10.139 -1.5197  0.7804 -0.9167
18358SOL    HW256516   2.988   6.729  10.267  1.0454  0.1146  0.5955
18359SOL     OW56517   0.244   4.764   8.493 -0.0988  0.1650  0.6704
18359SOL    HW156518   0.277   4.852   8.514  0.3132  0.1286  0.2090
18359SOL    HW256519   0.162   4.780   8.447  1.1665  0.4485 -1.6518
18360SOL     OW56520   7.062   2.116   9.017  0.0788 -0.6362  0.2196
18360SOL    HW156521   6.980   2.068   9.029  0.0330 -0.2391  1.7440
18360SOL    HW256522   7.122   2.076   9.079  0.4810  0.2856  0.4485
18361SOL     OW56523   4.130   5.161  12.277  0.2592  0.1616 -0.1664
18361SOL    HW156524   4.056   5.102  12.266  0.9949 -0.6476 -0.9436
18361SOL    HW256525   4.095   5.235  12.326 -1.1971  0.0663 -1.0044
18362SOL     OW56526   3.158   5.322   2.006  0.1501 -0.1885  0.3957
18362SOL    HW156527   3.217   5.338   2.080 -0.3807  0.1174  0.7600
18362SOL    HW256528   3.162   5.403   1.955 -0.2942 -0.0008  0.6593
18363SOL     OW56529   4.799   0.702  11.761  0.5238 -0.0100 -0.0576
18363SOL    HW156530   4.871   0.639  11.769  0.0906 -0.6177 -0.7859
18363SOL    HW256531   4.832   0.781  11.803  1.3039 -0.5370  0.3564
18364SOL     OW56532   1.438   7.307   6.992  0.4041  0.2001  0.2467
18364SOL    HW156533   1.468   7.277   7.079 -1.7880  0.0260  1.0016
18364SOL    HW256534   1.405   7.228   6.950  2.5929  0.0302 -1.3408
18365SOL     OW56535   3.406   7.219  11.775  0.9000 -0.1378 -0.4285
18365SOL    HW156536   3.329   7.205  11.721  0.0346 -0.8671  0.9292
18365SOL    HW256537   3.474   7.164  11.737  0.2493 -0.7933 -0.6474
18366SOL     OW56538   0.333   2.306   8.576 -0.6406  0.4215  0.5850
18366SOL    HW156539   0.354   2.399   8.575 -1.1087  0.5381  1.0086
18366SOL    HW256540   0.253   2.300   8.523 -0.3841  0.1992  0.2188
18367SOL     OW56541   3.886   5.018  12.230 -0.2481  0.0099 -0.0263
18367SOL    HW156542   3.812   4.997  12.288  0.6329 -0.2212  1.0500
18367SOL    HW256543   3.855   4.993  12.143 -2.1278  1.6337  0.0848
18368SOL     OW56544   6.025   4.627   4.928 -0.0202  0.4297  0.1982
18368SOL    HW156545   5.997   4.635   5.019  1.0781 -2.4915  0.9126
18368SOL    HW256546   6.117   4.654   4.929  0.6275 -1.6073  0.4841
18369SOL     OW56547   4.691   5.990   6.417  0.8528  0.9590  0.0879
18369SOL    HW156548   4.726   5.981   6.328  0.4944 -2.1216  0.1390
18369SOL    HW256549   4.601   6.021   6.405  0.3483 -0.7233 -0.7765
18370SOL     OW56550   6.834   2.014   7.565  0.3809  0.3619 -0.3535
18370SOL    HW156551   6.802   2.104   7.562 -0.5933  0.0129 -0.6842
18370SOL    HW256552   6.770   1.968   7.619  1.9928  0.2933  1.6024
18371SOL     OW56553   0.043   2.732   5.965  0.4535  0.6903 -0.0372
18371SOL    HW156554   0.083   2.723   6.051 -0.5567  0.3477  0.4077
18371SOL    HW256555   0.059   2.648   5.922 -0.9436  0.0490  0.6510
18372SOL     OW56556   7.160   0.461   9.067 -0.6046  0.1654  0.4409
18372SOL    HW156557   7.138   0.391   9.128  1.2413  0.4039  1.4486
18372SOL    HW256558   7.133   0.541   9.111  2.2719  0.4942  1.8517
18373SOL     OW56559   6.585   7.270   8.364  0.0645 -0.8328  0.3680
18373SOL    HW156560   6.637   7.275   8.444 -1.5937  0.2755  1.4482
18373SOL    HW256561   6.636   7.320   8.300  0.3021  0.3785  1.4346
18374SOL     OW56562   7.159   4.866   3.429  0.4343  0.3321 -0.3464
18374SOL    HW156563   7.126   4.855   3.340  0.0722 -0.8087 -0.0921
18374SOL    HW256564   7.081   4.855   3.485  0.7977  0.2016  0.1415
18375SOL     OW56565   3.395   0.471   1.702 -0.1904  0.3748 -0.1054
18375SOL    HW156566   3.308   0.500   1.731 -0.7897 -0.9420 -0.5167
18375SOL    HW256567   3.414   0.395   1.757 -1.2897 -2.1062 -2.8768
18376SOL     OW56568   2.996   6.096   1.604 -0.0573 -0.5486  0.6040
18376SOL    HW156569   2.978   6.006   1.576 -1.0816 -0.3877  0.7053
18376SOL    HW256570   3.036   6.137   1.528 -1.5113 -0.5121 -0.1782
18377SOL     OW56571   7.424   6.279   3.212  0.0699 -0.2874 -0.2787
18377SOL    HW156572   7.423   6.356   3.269 -0.4439 -0.7418  0.3393
18377SOL    HW256573   7.514   6.275   3.179 -0.3551  1.6503 -1.8141
18378SOL     OW56574   6.930   7.564   9.116 -0.2636  0.5627 -0.1681
18378SOL    HW156575   6.927   7.557   9.020  1.5710 -1.6551 -0.1475
18378SOL    HW256576   6.843   7.538   9.145 -0.2441 -0.7658 -1.1934
18379SOL     OW56577   3.027   6.907  11.755  0.6094 -0.0244 -0.4111
18379SOL    HW156578   2.976   6.934  11.679 -1.7887 -0.8851  0.8134
18379SOL    HW256579   2.963   6.870  11.816  2.1526  2.0677  2.7405
18380SOL     OW56580   1.905   4.063   4.848 -0.4837 -0.4601  0.1157
18380SOL    HW156581   1.932   3.979   4.885 -0.9802 -1.1071 -0.9772
18380SOL    HW256582   1.869   4.111   4.923  2.4931 -0.0090  1.4192
18381SOL     OW56583   7.081   5.529   1.566  0.7493  0.7442  0.4621
18381SOL    HW156584   7.163   5.563   1.602  0.4341 -0.1950  2.1385
18381SOL    HW256585   7.042   5.479   1.637 -0.7586  0.2487 -0.6620
18382SOL     OW56586   4.213   1.249   1.755 -0.4061  0.5631 -0.0415
18382SOL    HW156587   4.236   1.249   1.848 -1.1236 -0.3912  0.1638
18382SOL    HW256588   4.123   1.283   1.753 -0.3439  0.7038 -0.3950
18383SOL     OW56589   7.067   0.400   9.391 -0.0205  0.2055 -0.4680
18383SOL    HW156590   7.017   0.396   9.310  0.4429  1.4333 -0.8352
18383SOL    HW256591   7.011   0.357   9.456 -0.0604 -1.5062 -1.5753
18384SOL     OW56592   6.873   6.024   5.175 -0.3729 -0.2119 -0.3590
18384SOL    HW156593   6.893   6.058   5.263 -0.0277 -1.5765  0.1108
18384SOL    HW256594   6.808   5.956   5.190  0.4917 -1.2172 -1.0343
18385SOL     OW56595   1.744   7.717   7.413 -0.1270 -0.2236  0.5208
18385SOL    HW156596   1.829   7.759   7.404 -0.6111  0.7928  0.5890
18385SOL    HW256597   1.700   7.735   7.330 -1.4702  2.0479  1.6160
18386SOL     OW56598   1.892   0.860  10.144 -0.3746 -0.1563 -0.7753
18386SOL    HW156599   1.886   0.940  10.092 -0.0564  0.7464  0.5505
18386SOL    HW256600   1.984   0.836  10.141 -0.0874  0.7091  0.5333
18387SOL     OW56601   2.594   6.247   4.659 -0.2038  0.2295 -0.0819
18387SOL    HW156602   2.572   6.247   4.566 -0.8662 -2.7743 -0.0259
18387SOL    HW256603   2.683   6.212   4.663 -0.3913 -0.2103  0.4192
18388SOL     OW56604   6.731   1.857   8.115  0.0336 -0.0648 -0.0171
18388SOL    HW156605   6.797   1.902   8.062  1.0613 -0.6861  0.7030
18388SOL    HW256606   6.669   1.823   8.051  1.8625 -1.7970 -1.0069
18389SOL     OW56607   4.062   6.487   5.132  0.2562 -0.0882  0.0092
18389SOL    HW156608   3.981   6.528   5.101  1.1066  0.3480 -1.7446
18389SOL    HW256609   4.107   6.557   5.181 -1.2559 -0.8820  2.7375
18390SOL     OW56610   6.362   0.566  12.190 -0.6052  0.5101  0.3469
18390SOL    HW156611   6.311   0.554  12.269 -0.0670 -0.6413  0.5438
18390SOL    HW256612   6.299   0.557  12.118 -0.8002 -0.2203  0.6026
18391SOL     OW56613   5.704   5.906   1.023  0.2567 -0.0443  0.0815
18391SOL    HW156614   5.710   6.001   1.009 -3.8353  0.0581 -2.3184
18391SOL    HW256615   5.750   5.868   0.948 -0.6171  0.1176 -0.5454
18392SOL     OW56616   6.213   4.874  10.135  0.1477  0.1312 -0.1062
18392SOL    HW156617   6.162   4.871  10.054 -1.6638  1.4337  0.9071
18392SOL    HW256618   6.289   4.928  10.114 -0.9847  1.5678 -0.6139
18393SOL     OW56619   0.306   3.692   1.555 -0.4665 -0.3124 -1.1558
18393SOL    HW156620   0.397   3.661   1.554 -0.2054  0.3738 -0.0149
18393SOL    HW256621   0.312   3.786   1.541 -1.0049 -0.2580 -1.0479
18394SOL     OW56622   6.377   2.537   4.458  0.0786  0.4311  0.4174
18394SOL    HW156623   6.398   2.478   4.386  3.4958  1.8724  0.0360
18394SOL    HW256624   6.298   2.584   4.428  0.1992 -0.4713 -1.4484
18395SOL     OW56625   4.248   2.313  11.541  0.2777  0.2613 -0.1686
18395SOL    HW156626   4.247   2.352  11.454  0.8658  0.5096 -0.0703
18395SOL    HW256627   4.218   2.383  11.599 -1.5611 -0.3392 -0.3191
18396SOL     OW56628   1.035   2.408  12.059 -0.6724 -0.0912  0.5423
18396SOL    HW156629   1.044   2.473  12.129  0.9961  0.3989 -0.0956
18396SOL    HW256630   1.046   2.458  11.978  0.0557 -1.0715  0.0240
18397SOL     OW56631   4.351   6.100   5.523 -0.0525 -0.3860 -0.6122
18397SOL    HW156632   4.405   6.146   5.458  0.4561  1.5559  1.0900
18397SOL    HW256633   4.412   6.073   5.590 -0.9566  0.5253  0.6268
18398SOL     OW56634   1.836   0.930   8.918  0.0059  0.1307 -0.0097
18398SOL    HW156635   1.864   0.969   9.001  1.2688 -0.6513 -0.0468
18398SOL    HW256636   1.834   0.836   8.934  3.0251 -0.3309 -1.5485
18399SOL     OW56637   7.192   2.670   6.020  0.0440  0.7503 -0.0904
18399SOL    HW156638   7.145   2.591   5.992 -1.6576  0.0343  4.0481
18399SOL    HW256639   7.165   2.737   5.957 -0.7201 -1.2588 -2.0803
18400SOL     OW56640   0.164   4.210   6.758  0.1069  0.4808  0.2677
18400SOL    HW156641   0.164   4.135   6.818  0.0534  0.6816  0.5248
18400SOL    HW256642   0.102   4.186   6.689  0.5729  0.0234  0.0062
18401SOL     OW56643   6.940   5.770   1.410  0.4177 -0.2046 -0.2842
18401SOL    HW156644   6.956   5.676   1.418  0.2682 -0.2371 -0.3525
18401SOL    HW256645   6.909   5.781   1.320  2.9898  0.2817 -1.1920
18402SOL     OW56646   3.605   2.942   8.078  0.3614  0.0642 -0.4183
18402SOL    HW156647   3.561   2.981   8.003  0.0760 -0.4669 -0.5285
18402SOL    HW256648   3.668   3.009   8.106 -0.3338  0.7405 -0.4086
18403SOL     OW56649   1.587   4.912  10.213  0.0592 -0.0156  0.0451
18403SOL    HW156650   1.516   4.926  10.277  0.0880  0.5063 -0.0322
18403SOL    HW256651   1.610   4.820  10.223 -0.2315 -0.0453  0.4894
18404SOL     OW56652   3.743   0.879   5.892  0.2683 -0.5236 -0.1510
18404SOL    HW156653   3.746   0.819   5.967  1.8547 -0.1792  0.0905
18404SOL    HW256654   3.650   0.898   5.880 -0.0210 -0.5791  1.7315
18405SOL     OW56655   1.758   4.201   8.965  0.6024 -0.3078  0.2697
18405SOL    HW156656   1.847   4.214   8.933  1.0079 -0.6322  1.2304
18405SOL    HW256657   1.730   4.118   8.925  0.9339 -0.4871  0.4084
18406SOL     OW56658   0.271   7.439   2.717 -0.2058 -0.2795 -0.2360
18406SOL    HW156659   0.216   7.393   2.780 -0.6910  0.3075 -0.2226
18406SOL    HW256660   0.360   7.433   2.753 -0.6403  1.2409  1.2498
18407SOL     OW56661   7.171   1.165   1.856  0.4446  0.4927  0.0999
18407SOL    HW156662   7.141   1.133   1.771 -0.8496  0.0936  0.6836
18407SOL    HW256663   7.189   1.258   1.841 -0.5784  0.6213 -0.4180
18408SOL     OW56664   7.207   1.112   9.736  0.7504  0.7170  0.2033
18408SOL    HW156665   7.218   1.207   9.730  1.2964  0.6072 -0.7394
18408SOL    HW256666   7.246   1.089   9.820  0.2665  1.3738  0.6138
18409SOL     OW56667   0.400   2.339   5.349  0.2708 -0.0874 -0.1032
18409SOL    HW156668   0.470   2.316   5.288 -0.8147  0.1805 -1.4857
18409SOL    HW256669   0.431   2.418   5.393  0.1367  1.0258 -1.9417
18410SOL     OW56670   4.571   7.655   5.391  0.5870 -0.4269  0.1723
18410SOL    HW156671   4.617   7.620   5.467  4.9298  1.5274 -1.2216
18410SOL    HW256672   4.627   7.632   5.317 -1.2926  1.2608 -1.9083
18411SOL     OW56673   3.075   7.115   8.448 -0.7407  0.3241  0.3466
18411SOL    HW156674   3.040   7.202   8.427 -2.2951 -0.3048  0.1764
18411SOL    HW256675   3.000   7.067   8.484  0.0673 -0.9701  0.3622
18412SOL     OW56676   2.659   0.487   1.574  0.6936 -0.0684 -0.2309
18412SOL    HW156677   2.580   0.540   1.569  0.9265  0.2327 -0.7346
18412SOL    HW256678   2.630   0.398   1.553  0.0444 -0.4373  1.9662
18413SOL     OW56679   6.110   2.396  10.014  0.2522 -0.2346  0.3820
18413SOL    HW156680   6.042   2.341  10.054  0.2291  0.5970  1.5590
18413SOL    HW256681   6.130   2.353   9.931 -1.0721 -0.9924  0.4203
18414SOL     OW56682   3.479   6.018   1.638  0.2087  0.2798  0.8655
18414SOL    HW156683   3.483   5.983   1.726 -1.2728 -0.0036  0.8527
18414SOL    HW256684   3.508   5.947   1.581 -0.7715 -0.2277  0.9909
18415SOL     OW56685   0.143   6.695   4.633 -0.3022 -0.2846 -0.0589
18415SOL    HW156686   0.067   6.663   4.682 -1.2787  0.2124 -1.2126
18415SOL    HW256687   0.111   6.705   4.543  0.6848  1.4796 -0.2456
18416SOL     OW56688   1.741   6.768   7.508 -1.1424  0.0820 -0.4118
18416SOL    HW156689   1.824   6.794   7.468 -0.5648 -2.1380 -0.8260
18416SOL    HW256690   1.745   6.803   7.597  0.7029 -0.7502 -0.1161
18417SOL     OW56691   6.621   2.428  11.681  0.3753 -0.2088 -0.2597
18417SOL    HW156692   6.707   2.460  11.708  0.0618  0.7017 -0.2760
18417SOL    HW256693   6.615   2.451  11.588  0.0936 -0.2095 -0.2429
18418SOL     OW56694   1.712   1.193   2.245 -0.1869  0.0500 -0.6616
18418SOL    HW156695   1.753   1.119   2.199 -1.7122 -1.1398 -0.1905
18418SOL    HW256696   1.742   1.184   2.335  0.0609  0.3415 -0.7134
18419SOL     OW56697   1.241   2.768   4.484 -0.1322 -0.4212 -0.0867
18419SOL    HW156698   1.298   2.837   4.517 -0.1842  0.0110 -0.8794
18419SOL    HW256699   1.285   2.687   4.508  1.2423 -0.0962 -1.3901
18420SOL     OW56700   5.959   6.187   7.855 -0.1152 -0.1993 -1.0054
18420SOL    HW156701   5.874   6.219   7.883 -0.1184 -1.5948  0.7863
18420SOL    HW256702   6.017   6.263   7.859 -0.6026  0.1066  0.9000
18421SOL     OW56703   7.709   2.096   0.524 -0.7628 -0.2098 -0.4068
18421SOL    HW156704   7.639   2.157   0.500 -1.4282 -0.3699  1.0109
18421SOL    HW256705   7.770   2.098   0.450 -1.6130  0.9161 -1.0986
18422SOL     OW56706   0.932   4.767   3.896  0.9375 -0.4053 -0.2873
18422SOL    HW156707   0.976   4.828   3.955  2.5832 -1.4701 -0.3496
18422SOL    HW256708   0.921   4.817   3.815 -1.7022  1.2012  0.9296
18423SOL     OW56709   0.350   3.827   0.742  0.9485 -0.2518 -0.6777
18423SOL    HW156710   0.258   3.817   0.719  1.1484  0.5850 -1.9928
18423SOL    HW256711   0.397   3.797   0.664  1.7397  0.7334 -0.5994
18424SOL     OW56712   0.600   3.355  12.078 -0.1870 -0.5704 -0.4281
18424SOL    HW156713   0.625   3.266  12.054 -0.4477 -1.0331  0.9662
18424SOL    HW256714   0.531   3.345  12.143 -0.5840  0.6616 -0.6290
18425SOL     OW56715   6.598   6.539   4.612 -0.6323 -0.0965  0.4661
18425SOL    HW156716   6.607   6.592   4.691  1.2389  0.5696 -0.1225
18425SOL    HW256717   6.610   6.601   4.540  0.3766 -1.1044 -0.2733
18426SOL     OW56718   5.964   4.008  11.012  0.3508 -0.2605  0.4976
18426SOL    HW156719   6.053   3.984  11.037  0.1270  0.8844  2.5328
18426SOL    HW256720   5.975   4.055  10.929  1.4223 -1.6393 -0.1955
18427SOL     OW56721   3.277   6.854   1.280  0.2744 -0.7478 -0.4739
18427SOL    HW156722   3.271   6.830   1.372  0.6326 -0.7397 -0.4466
18427SOL    HW256723   3.298   6.948   1.282 -0.3456 -0.5981 -0.5720
18428SOL     OW56724   1.340   1.739   5.094 -0.3695  0.4174  0.3371
18428SOL    HW156725   1.417   1.794   5.081 -0.1677 -0.1859 -1.2848
18428SOL    HW256726   1.326   1.697   5.009 -1.3459 -0.9665  1.1451
18429SOL     OW56727   5.788   2.444   5.792 -0.0540 -0.4363 -0.1663
18429SOL    HW156728   5.831   2.509   5.736 -1.0396 -0.4958 -1.0083
18429SOL    HW256729   5.860   2.406   5.843  0.6505  0.7205 -0.2608
18430SOL     OW56730   2.363   5.234   9.879 -0.2174 -0.1265  0.1580
18430SOL    HW156731   2.313   5.196   9.807 -1.2009  0.4982  0.4927
18430SOL    HW256732   2.323   5.198   9.958 -0.1793  0.4250  0.4336
18431SOL     OW56733   7.748   4.952   2.399  0.2565  0.2568 -0.3551
18431SOL    HW156734   7.757   5.010   2.324  1.0283 -0.3006 -0.7122
18431SOL    HW256735   7.693   4.880   2.367  0.1992  0.2524 -0.2473
18432SOL     OW56736   3.775   1.885   6.934  0.5570  0.1592 -0.4303
18432SOL    HW156737   3.761   1.910   7.025 -3.4236 -1.5247 -0.3846
18432SOL    HW256738   3.727   1.950   6.883  0.1419 -0.6373 -1.0850
18433SOL     OW56739   7.444   2.704   6.494 -0.1101 -0.2398  0.3026
18433SOL    HW156740   7.395   2.629   6.459  0.5048 -0.2498 -0.5589
18433SOL    HW256741   7.414   2.779   6.443 -0.2724  0.0002  0.7467
18434SOL     OW56742   4.470   7.123   3.259 -0.0342  0.2580  0.4525
18434SOL    HW156743   4.515   7.199   3.223 -0.5877 -0.3591 -1.6990
18434SOL    HW256744   4.378   7.134   3.233 -0.2489 -0.8008  0.6847
18435SOL     OW56745   6.643   3.354  10.958 -0.4662 -0.0569  0.5034
18435SOL    HW156746   6.547   3.363  10.959 -0.4277  0.3888  0.4629
18435SOL    HW256747   6.666   3.331  11.047 -0.7853 -2.1882  0.0850
18436SOL     OW56748   0.310   4.838  11.025 -0.9033  0.2050  0.4334
18436SOL    HW156749   0.245   4.873  11.087 -1.0657 -0.2433  0.5222
18436SOL    HW256750   0.380   4.904  11.025  0.1152 -0.7619  2.7437
18437SOL     OW56751   1.535   2.440   9.054 -0.2228 -0.0440  0.3617
18437SOL    HW156752   1.564   2.531   9.045 -0.9494  0.0570 -1.5925
18437SOL    HW256753   1.446   2.440   9.018 -0.0593 -1.6115 -0.1193
18438SOL     OW56754   1.851   5.698   7.004 -0.0124  0.2346  0.2115
18438SOL    HW156755   1.781   5.736   6.950  1.0417  0.1676 -1.2528
18438SOL    HW256756   1.863   5.761   7.075 -3.0862 -0.8219  1.8624
18439SOL     OW56757   3.242   4.713   0.497 -0.3571 -0.3816  0.2326
18439SOL    HW156758   3.202   4.630   0.524 -2.3932 -0.2204 -2.0174
18439SOL    HW256759   3.169   4.773   0.483  0.9268  1.1487 -0.2985
18440SOL     OW56760   5.575   7.786   3.703  0.9712  0.1803 -0.0918
18440SOL    HW156761   5.492   7.764   3.746 -0.0057  0.4177 -1.7593
18440SOL    HW256762   5.590   7.877   3.727  1.3766 -0.1863  1.1429
18441SOL     OW56763   5.505   4.662   8.019  0.4294 -0.3668  0.1057
18441SOL    HW156764   5.452   4.741   8.008 -0.5351 -0.8227  1.2601
18441SOL    HW256765   5.513   4.625   7.931  0.7099  0.8850 -0.4167
18442SOL     OW56766   2.162   5.712   4.024 -0.0667 -0.2372 -0.0983
18442SOL    HW156767   2.206   5.636   4.062  1.3231  0.4641 -0.2387
18442SOL    HW256768   2.127   5.680   3.941  0.3909 -0.7734 -0.0916
18443SOL     OW56769   0.776   5.561  11.293  0.8327 -0.1737 -0.0349
18443SOL    HW156770   0.827   5.483  11.317  0.3659  0.5469  3.9756
18443SOL    HW256771   0.834   5.635  11.315  0.6778  0.7246 -2.3199
18444SOL     OW56772   5.282   4.412   1.845 -0.4913  0.4198  0.2861
18444SOL    HW156773   5.228   4.418   1.923  0.3978  3.4853  0.8062
18444SOL    HW256774   5.372   4.424   1.877  0.2926 -1.7206 -0.8778
18445SOL     OW56775   2.749   0.982   3.908 -0.3741 -0.2901  1.1399
18445SOL    HW156776   2.706   0.910   3.862 -2.4966  0.8240  1.2363
18445SOL    HW256777   2.774   0.945   3.993  1.4218 -1.7155  0.0458
18446SOL     OW56778   7.943   6.807   0.598 -0.1765  0.1675  0.0740
18446SOL    HW156779   7.989   6.737   0.643 -0.6013 -0.8966 -1.1051
18446SOL    HW256780   7.887   6.846   0.665 -1.6468 -2.1037  0.2788
18447SOL     OW56781   6.850   1.403   8.359 -0.1921 -0.0603  0.3707
18447SOL    HW156782   6.888   1.315   8.358  0.9329  0.3773 -1.6865
18447SOL    HW256783   6.783   1.401   8.291 -0.7087  0.4579  0.8565
18448SOL     OW56784   6.461   2.649   7.032  0.0472 -0.0625 -0.2359
18448SOL    HW156785   6.395   2.598   6.986 -1.2392  2.0032 -0.8566
18448SOL    HW256786   6.421   2.671   7.116  0.1024  0.8315 -0.4317
18449SOL     OW56787   3.915   4.300   4.029 -0.3296 -1.0701 -0.4439
18449SOL    HW156788   3.851   4.335   4.090 -2.2242 -1.9958 -1.8220
18449SOL    HW256789   3.950   4.222   4.073 -0.1568 -0.5830  0.3012
18450SOL     OW56790   2.756   4.722   8.862 -0.1757  0.1078  0.3128
18450SOL    HW156791   2.680   4.684   8.818  0.2631 -0.4547  0.0382
18450SOL    HW256792   2.784   4.655   8.924  0.4851  0.0547 -0.0381
18451SOL     OW56793   7.051   7.673   0.177 -0.4191  0.3091 -0.6089
18451SOL    HW156794   6.983   7.607   0.189  0.4884 -0.3701  1.1283
18451SOL    HW256795   7.023   7.746   0.232 -0.3527  0.5462 -0.8837
18452SOL     OW56796   3.192   3.902  11.846  0.1725 -0.5548  0.0968
18452SOL    HW156797   3.280   3.889  11.810  0.5010 -0.5065  0.8526
18452SOL    HW256798   3.154   3.972  11.793  0.1139 -1.4141 -1.0323
18453SOL     OW56799   7.447   1.660   4.502  0.1086 -0.1308 -0.2324
18453SOL    HW156800   7.382   1.687   4.567 -0.1499 -2.4878  0.5616
18453SOL    HW256801   7.418   1.574   4.473  2.0268 -0.5494 -1.0319
18454SOL     OW56802   7.764   5.606   1.951 -0.2644  0.7430  0.0137
18454SOL    HW156803   7.854   5.577   1.936 -1.4836 -2.0002 -3.5114
18454SOL    HW256804   7.764   5.698   1.927  1.3054  0.3629 -1.6421
18455SOL     OW56805   6.990   3.992   8.892 -0.3185 -0.4599 -0.3693
18455SOL    HW156806   6.939   4.001   8.972  0.7402  0.5706  0.2199
18455SOL    HW256807   7.081   3.993   8.921  0.1463  1.6323 -1.6741
18456SOL     OW56808   4.004   7.050   2.120  0.0226 -0.2396 -0.3085
18456SOL    HW156809   4.028   6.992   2.048  1.3571 -0.2594  0.1215
18456SOL    HW256810   4.057   7.128   2.106 -2.3857  1.3357 -1.3813
18457SOL     OW56811   0.605   0.971   0.165 -0.0734 -0.1631 -0.5562
18457SOL    HW156812   0.683   0.916   0.160 -0.2628 -0.4410 -0.4464
18457SOL    HW256813   0.591   1.001   0.076  1.2817  1.4552 -0.2712
18458SOL     OW56814   0.488   3.122   3.466  0.3808 -0.4705  0.7479
18458SOL    HW156815   0.555   3.060   3.494 -0.0684 -1.0809  0.4841
18458SOL    HW256816   0.473   3.101   3.374  0.2287  0.0320  0.6557
18459SOL     OW56817   1.318   7.493   1.823 -0.0712 -0.2520 -0.9204
18459SOL    HW156818   1.265   7.414   1.812  0.1247 -0.6160  0.5934
18459SOL    HW256819   1.377   7.492   1.748  1.4685 -2.7897  0.1897
18460SOL     OW56820   1.511   6.199   9.979 -0.5359 -0.1087  0.0986
18460SOL    HW156821   1.587   6.141   9.980 -1.2008 -1.0206  1.2045
18460SOL    HW256822   1.472   6.186   9.893  0.5270  0.3497 -0.4722
18461SOL     OW56823   0.273   3.015   0.756 -0.2204 -0.1911  0.0648
18461SOL    HW156824   0.186   3.030   0.794  0.2792  0.3297  1.0512
18461SOL    HW256825   0.310   2.945   0.810 -0.3914 -1.1089 -0.9806
18462SOL     OW56826   1.048   2.452   4.313 -0.1314 -0.0283 -0.2918
18462SOL    HW156827   1.136   2.486   4.296  0.4473 -1.3556 -0.0537
18462SOL    HW256828   1.040   2.453   4.409 -0.4354  0.2204 -0.3175
18463SOL     OW56829   4.749   6.425   5.843 -0.2655 -0.4991  0.1027
18463SOL    HW156830   4.825   6.373   5.867  0.7131  0.4950 -0.7320
18463SOL    HW256831   4.754   6.433   5.748 -0.3272  1.1539  0.2103
18464SOL     OW56832   6.408   6.778   5.852 -0.7639 -0.3418  0.1855
18464SOL    HW156833   6.319   6.759   5.823 -1.7084  0.8420  2.0675
18464SOL    HW256834   6.422   6.870   5.828  0.1984 -0.6684 -0.5956
18465SOL     OW56835   7.415   7.701   2.530  0.2931  0.3858 -0.2894
18465SOL    HW156836   7.508   7.677   2.525  0.4975  1.0431  0.2823
18465SOL    HW256837   7.399   7.718   2.623 -1.0795 -2.3362  0.0836
18466SOL     OW56838   6.383   1.790   5.972  0.4761  0.1526  0.4629
18466SOL    HW156839   6.377   1.782   6.067  2.6169  1.7254  0.7809
18466SOL    HW256840   6.367   1.701   5.940 -0.0206 -0.4597  2.2814
18467SOL     OW56841   6.913   5.125   7.345 -0.0229 -0.5009 -0.7172
18467SOL    HW156842   6.938   5.039   7.311 -1.4036 -0.3699 -2.1945
18467SOL    HW256843   6.884   5.174   7.268  2.2048  1.8926 -0.1971
18468SOL     OW56844   7.185   4.719  11.508 -0.1079  0.0122  0.0495
18468SOL    HW156845   7.091   4.735  11.513 -0.3440 -0.9943 -0.8183
18468SOL    HW256846   7.202   4.703  11.415  1.0798  1.0078  0.0636
18469SOL     OW56847   1.763   3.067   8.377 -0.4835 -0.1819 -0.3681
18469SOL    HW156848   1.781   3.157   8.350  1.0048  0.2857  1.8953
18469SOL    HW256849   1.753   3.019   8.295 -1.2697  2.0169 -1.6381
18470SOL     OW56850   2.630   0.680   8.702 -0.3452 -0.2984  0.6364
18470SOL    HW156851   2.543   0.643   8.684 -0.7966  0.5588  1.0044
18470SOL    HW256852   2.685   0.603   8.718 -0.4148 -0.9933 -2.0711
18471SOL     OW56853   7.911   0.231   6.030 -0.2063 -0.1369  0.4327
18471SOL    HW156854   7.851   0.276   6.089 -0.1449 -2.1460  2.1664
18471SOL    HW256855   7.986   0.290   6.022 -0.6966  0.6657  1.4879
18472SOL     OW56856   1.296   2.573   0.894 -0.5042  0.9131  0.2848
18472SOL    HW156857   1.312   2.488   0.853  0.0057  0.2554  1.7648
18472SOL    HW256858   1.210   2.600   0.861 -0.4207  0.1058 -0.6455
18473SOL     OW56859   3.238   0.796   6.001  0.0938  0.5264 -0.4944
18473SOL    HW156860   3.159   0.741   5.998  0.0407  0.5777  0.0089
18473SOL    HW256861   3.308   0.739   5.968 -0.3468  0.8332 -2.0770
18474SOL     OW56862   6.194   2.744   2.088 -0.2968 -0.2421  0.1908
18474SOL    HW156863   6.166   2.799   2.162  0.6105 -1.8317  1.7927
18474SOL    HW256864   6.287   2.762   2.079 -0.3711 -0.1713 -0.4917
18475SOL     OW56865   0.919   5.773   5.577  0.4759  0.3869  0.0052
18475SOL    HW156866   0.835   5.763   5.533  0.9211 -2.1999 -0.4042
18475SOL    HW256867   0.911   5.722   5.657  1.1230  1.5189  0.8293
18476SOL     OW56868   1.173   4.791  11.142  0.5192 -0.1771 -0.7079
18476SOL    HW156869   1.089   4.804  11.187  0.9112 -0.8055  0.2425
18476SOL    HW256870   1.179   4.864  11.081 -0.5320  0.1076 -0.4929
18477SOL     OW56871   2.153   1.206   8.365 -0.2595  0.1566 -0.0883
18477SOL    HW156872   2.070   1.245   8.395 -0.0723  1.0943 -0.7427
18477SOL    HW256873   2.134   1.178   8.275 -0.3251 -1.0983  0.3028
18478SOL     OW56874   4.680   7.238   9.473  0.2477  0.0881 -0.9833
18478SOL    HW156875   4.770   7.218   9.499 -0.3977 -2.2383 -0.2870
18478SOL    HW256876   4.627   7.210   9.548 -1.2466 -1.1096 -2.4284
18479SOL     OW56877   4.654   1.512   6.525 -0.5491  0.2521  0.4889
18479SOL    HW156878   4.667   1.528   6.618  1.7197  0.9737  0.0971
18479SOL    HW256879   4.559   1.519   6.513 -0.7629  1.7379  2.4630
18480SOL     OW56880   2.216   2.443  10.525 -0.2361  0.1685 -0.3772
18480SOL    HW156881   2.156   2.480  10.460 -0.4021  1.4902  0.4957
18480SOL    HW256882   2.303   2.456  10.488 -0.1436  3.0282  0.5767
18481SOL     OW56883   0.756   7.571   8.925 -0.0008 -1.0752  0.2738
18481SOL    HW156884   0.755   7.544   8.833  0.8985 -0.2084 -0.0108
18481SOL    HW256885   0.847   7.595   8.942 -0.3577 -0.2550  1.1062
18482SOL     OW56886   7.449   4.860   8.450  0.2896  0.2574  0.3224
18482SOL    HW156887   7.366   4.814   8.461 -1.6272  3.3607 -0.0315
18482SOL    HW256888   7.469   4.854   8.357  0.2448 -0.0913  0.3332
18483SOL     OW56889   0.581   7.479   7.237  0.2129  0.2073 -0.4030
18483SOL    HW156890   0.666   7.444   7.210 -0.1316 -0.5546 -0.5001
18483SOL    HW256891   0.595   7.574   7.242  1.0498  0.0915 -0.4793
18484SOL     OW56892   7.670   6.472   3.668 -0.4048 -0.1399 -0.1683
18484SOL    HW156893   7.577   6.492   3.682 -0.9594 -2.5559  0.1093
18484SOL    HW256894   7.684   6.390   3.715  1.9299  0.2137 -0.1252
18485SOL     OW56895   4.225   0.314   5.962 -0.2466 -0.2873 -0.1491
18485SOL    HW156896   4.179   0.278   5.885 -0.1599  1.8060 -1.2388
18485SOL    HW256897   4.316   0.324   5.933  0.0818 -0.6895  0.6928
18486SOL     OW56898   2.405   6.319  12.303  0.0679  0.5961  0.1039
18486SOL    HW156899   2.349   6.394  12.283 -0.1229  0.3910 -0.1342
18486SOL    HW256900   2.416   6.273  12.220  1.3961  1.1685 -0.0704
18487SOL     OW56901   5.050   5.055  11.027 -0.4200 -0.1888 -0.3386
18487SOL    HW156902   5.016   5.098  10.948  1.3766  0.9765 -0.5332
18487SOL    HW256903   5.099   5.124  11.072 -1.5380 -0.7823  1.9151
18488SOL     OW56904   3.564   7.018   0.911 -0.3303  0.0859 -0.1632
18488SOL    HW156905   3.565   7.097   0.965  0.5718  0.7124 -1.0688
18488SOL    HW256906   3.633   7.032   0.846  0.2858 -1.7162  0.0434
18489SOL     OW56907   5.649   2.205   0.130 -0.1960 -0.1758  0.2106
18489SOL    HW156908   5.646   2.299   0.145  0.0761 -0.0231 -0.6698
18489SOL    HW256909   5.740   2.180   0.148  0.5533  0.2713 -2.5562
18490SOL     OW56910   5.439   7.503   9.249 -0.1286  0.0753 -0.0580
18490SOL    HW156911   5.450   7.555   9.329  0.3887 -0.5721  0.3009
18490SOL    HW256912   5.434   7.412   9.280 -1.3499 -0.0763 -0.6475
18491SOL     OW56913   1.947   2.447   6.236 -0.8106  0.2824  0.0771
18491SOL    HW156914   1.893   2.381   6.193 -0.7377  1.0628 -1.2478
18491SOL    HW256915   1.933   2.527   6.185  1.5788  0.5216 -0.3068
18492SOL     OW56916   1.666   4.804   0.949  0.4078 -0.3311  0.1181
18492SOL    HW156917   1.645   4.857   0.872 -0.1168  0.6258  0.9098
18492SOL    HW256918   1.726   4.858   1.000 -1.0793  0.0551  1.5365
18493SOL     OW56919   6.728   2.000   3.694  0.3482 -0.3205 -0.0512
18493SOL    HW156920   6.739   1.930   3.759  1.5901  0.9894  1.2000
18493SOL    HW256921   6.813   2.042   3.689  0.3328 -0.4438 -2.6825
18494SOL     OW56922   0.425   3.633   4.613 -0.3909  0.5756  0.6151
18494SOL    HW156923   0.346   3.687   4.620  0.2969  1.9018 -1.1339
18494SOL    HW256924   0.491   3.681   4.663 -0.2423  0.3765  0.6108
18495SOL     OW56925   7.046   7.650   7.912  0.0181 -0.1300  0.0972
18495SOL    HW156926   6.989   7.692   7.977  0.2502  0.9834 -0.3950
18495SOL    HW256927   6.991   7.641   7.834 -1.0591 -3.7261  1.0875
18496SOL     OW56928   4.202   7.759   4.116 -0.4156  0.6057  0.1285
18496SOL    HW156929   4.130   7.779   4.056 -0.9467 -1.3905  0.0344
18496SOL    HW256930   4.173   7.793   4.201 -0.4574  1.8228 -0.3507
18497SOL     OW56931   0.421   7.295   2.045  0.0395 -0.3985  0.2701
18497SOL    HW156932   0.457   7.279   2.132  0.8674 -1.1581 -0.1966
18497SOL    HW256933   0.336   7.335   2.062  0.2462 -0.3990  1.4246
18498SOL     OW56934   0.654   1.912   4.867  0.1828  0.0490  0.3072
18498SOL    HW156935   0.560   1.926   4.867  0.1202  0.5068 -3.3229
18498SOL    HW256936   0.666   1.827   4.826  1.3824 -0.3054  1.3054
18499SOL     OW56937   4.329   6.644   8.291  0.2411 -0.4012  0.3062
18499SOL    HW156938   4.395   6.667   8.356  0.5205 -0.4154  0.0286
18499SOL    HW256939   4.306   6.553   8.311  1.1106 -0.7583 -0.2782
18500SOL     OW56940   6.176   5.303   6.040 -0.1961 -0.1025 -0.0820
18500SOL    HW156941   6.140   5.391   6.036 -0.4905 -0.2230 -0.1177
18500SOL    HW256942   6.209   5.287   5.951  0.5703  0.2651  0.1307
18501SOL     OW56943   3.067   0.382  10.642 -0.0274 -0.7657 -0.1343
18501SOL    HW156944   3.117   0.436  10.581  0.8092 -0.2387  0.9706
18501SOL    HW256945   3.124   0.306  10.658  0.2960 -0.3250  0.8738
18502SOL     OW56946   6.778   4.105  11.980 -0.1281  0.6156  0.0415
18502SOL    HW156947   6.710   4.160  12.017  0.0953  1.1526 -0.3298
18502SOL    HW256948   6.793   4.037  12.046 -0.0354  1.3000  0.7321
18503SOL     OW56949   5.008   7.332  11.563  0.4576  0.3128  1.0267
18503SOL    HW156950   5.096   7.354  11.593  0.8241  1.0973 -0.5012
18503SOL    HW256951   4.966   7.418  11.552  0.4671  0.0949 -0.9572
18504SOL     OW56952   6.325   4.664   6.587 -0.9496 -0.1524  0.0142
18504SOL    HW156953   6.267   4.733   6.619  2.4046  2.4495  1.0875
18504SOL    HW256954   6.305   4.657   6.493 -3.0614  0.4291  0.3651
18505SOL     OW56955   7.108   5.148  10.456 -0.4743  0.5849  0.1155
18505SOL    HW156956   7.171   5.189  10.514 -0.2706 -2.4050  2.2396
18505SOL    HW256957   7.161   5.094  10.397 -0.9045 -0.9100  1.0420
18506SOL     OW56958   6.778   1.366   5.119  0.3074 -0.0552 -0.2985
18506SOL    HW156959   6.766   1.300   5.050 -0.6084  0.4557 -0.6445
18506SOL    HW256960   6.693   1.370   5.163  0.2370  1.1448 -0.5183
18507SOL     OW56961   6.384   6.479   8.353  0.4057  0.0488  0.0233
18507SOL    HW156962   6.320   6.416   8.386  0.4544  0.2675  0.5391
18507SOL    HW256963   6.332   6.553   8.323  0.2774 -0.5857 -1.4291
18508SOL     OW56964   0.193   6.709   7.206 -0.0401  0.0626  0.3958
18508SOL    HW156965   0.122   6.677   7.262  0.0812 -0.5108  0.2293
18508SOL    HW256966   0.210   6.798   7.237 -0.0255 -0.2204  1.2159
18509SOL     OW56967   7.916   4.912   4.269  0.0350  0.3573 -0.2268
18509SOL    HW156968   7.987   4.850   4.251  1.2040  1.3595  0.8180
18509SOL    HW256969   7.864   4.912   4.188  2.0934  0.7324 -1.6288
18510SOL     OW56970   3.405   5.076   0.254 -0.2168  0.1489 -0.3447
18510SOL    HW156971   3.499   5.060   0.262 -0.1596 -0.1863 -1.5559
18510SOL    HW256972   3.378   5.102   0.342  0.3483 -3.2935  1.0361
18511SOL     OW56973   2.850   2.910   4.618  0.5354 -0.2438 -0.1335
18511SOL    HW156974   2.863   2.879   4.529  1.6508  0.3250 -0.1748
18511SOL    HW256975   2.936   2.901   4.660  1.4976  4.4001 -0.6570
18512SOL     OW56976   2.163   6.894   4.129 -0.8106 -0.2160 -0.3442
18512SOL    HW156977   2.164   6.869   4.222 -0.4283 -0.6257 -0.4522
18512SOL    HW256978   2.120   6.979   4.127 -1.3941 -0.4931  0.1405
18513SOL     OW56979   4.513   3.552  10.294  0.5355 -0.2903 -0.3085
18513SOL    HW156980   4.576   3.619  10.268  0.5336 -0.2205 -0.1356
18513SOL    HW256981   4.435   3.571  10.242  1.0146 -1.0352 -1.3186
18514SOL     OW56982   7.932   7.322   5.362 -0.6259 -0.8798 -0.2357
18514SOL    HW156983   7.958   7.410   5.335  1.6427 -0.6653  2.2331
18514SOL    HW256984   7.839   7.328   5.381 -0.2494  1.3956  1.2096
18515SOL     OW56985   2.897   6.022   3.134  0.2771 -0.3832 -0.0676
18515SOL    HW156986   2.834   6.058   3.197  0.4202  0.2402 -0.2729
18515SOL    HW256987   2.959   5.973   3.187 -0.3767 -1.0074  0.1403
18516SOL     OW56988   5.120   5.511  10.536  0.2213  0.3439  0.9347
18516SOL    HW156989   5.130   5.516  10.441 -2.7876 -0.0324  0.5077
18516SOL    HW256990   5.168   5.432  10.562  0.2117 -0.1224 -0.4131
18517SOL     OW56991   2.354   7.657  11.372  0.3371 -0.2157  0.0738
18517SOL    HW156992   2.447   7.677  11.384  0.1877  0.5126  0.0589
18517SOL    HW256993   2.341   7.656  11.278  0.6573 -1.9522 -0.0014
18518SOL     OW56994   1.054   1.096   6.870  0.5207  0.4588  0.2148
18518SOL    HW156995   1.073   1.097   6.964 -2.2152  3.5312  0.9385
18518SOL    HW256996   0.977   1.038   6.863 -0.2997  1.5239  0.1959
18519SOL     OW56997   7.382   3.323   3.606 -0.0753  0.0991  0.1514
18519SOL    HW156998   7.331   3.357   3.680  0.4439 -2.7280  1.9653
18519SOL    HW256999   7.319   3.271   3.557 -0.2026  1.2633 -0.9707
18520SOL     OW57000   5.211   2.831   9.436 -0.1550  0.5193  0.0361
18520SOL    HW157001   5.196   2.781   9.356  0.1771 -0.8300  0.7950
18520SOL    HW257002   5.305   2.849   9.436  0.1405 -0.8459  0.8586
18521SOL     OW57003   2.516   3.375   2.750 -0.3514  0.2791 -0.2929
18521SOL    HW157004   2.604   3.408   2.765 -0.4135 -0.3080  1.6598
18521SOL    HW257005   2.469   3.448   2.711  1.0483  0.5021 -1.6730
18522SOL     OW57006   0.092   6.895  10.165 -0.1148 -0.3028 -0.6599
18522SOL    HW157007   0.044   6.863  10.241  0.9371  1.4746  0.8492
18522SOL    HW257008   0.037   6.966  10.131  0.5898  0.6016  0.0373
18523SOL     OW57009   6.287   0.892   5.370 -0.9145 -0.7838  0.1486
18523SOL    HW157010   6.192   0.895   5.384 -0.8437 -0.5778  0.5916
18523SOL    HW257011   6.301   0.809   5.324 -1.0554 -2.0134  2.2002
18524SOL     OW57012   5.311   5.488  10.918  0.2056 -0.0057  0.0908
18524SOL    HW157013   5.238   5.528  10.966 -1.3419 -0.0030 -2.1348
18524SOL    HW257014   5.381   5.552  10.924 -0.8392  1.1742  0.1290
18525SOL     OW57015   6.206   0.499   6.150  0.6655 -0.0052 -0.2798
18525SOL    HW157016   6.150   0.424   6.131  0.0674 -0.1651  1.8548
18525SOL    HW257017   6.189   0.561   6.079 -2.8999  0.3067  0.6902
18526SOL     OW57018   4.598   4.027  10.375  0.3815 -0.4137  0.0561
18526SOL    HW157019   4.562   4.110  10.344 -0.1403  0.3061  2.4367
18526SOL    HW257020   4.535   3.961  10.346  0.1779  0.1372 -0.8013
18527SOL     OW57021   4.870   1.177   1.644  0.2713 -0.4354 -0.5992
18527SOL    HW157022   4.960   1.206   1.628  0.0121  0.7572 -0.0045
18527SOL    HW257023   4.819   1.258   1.645 -0.6904 -1.0335 -0.1237
18528SOL     OW57024   5.117   6.514   8.473  0.2401 -0.1776 -0.1656
18528SOL    HW157025   5.098   6.594   8.423  0.2069  0.4406  0.8134
18528SOL    HW257026   5.210   6.522   8.495 -0.3583  0.9897  2.2888
18529SOL     OW57027   7.171   7.528   2.819  0.6737  0.9740  0.3881
18529SOL    HW157028   7.208   7.547   2.905  0.8198  1.6955  0.1742
18529SOL    HW257029   7.182   7.610   2.770  0.4724  0.6106 -0.2712
18530SOL     OW57030   1.276   3.277   1.906  0.0723  0.2590  0.7240
18530SOL    HW157031   1.265   3.273   2.001 -1.2710  0.3954  0.5938
18530SOL    HW257032   1.370   3.268   1.892  0.2195 -0.4247  2.0294
18531SOL     OW57033   3.299   1.778   2.677  0.5015 -0.4535  0.8843
18531SOL    HW157034   3.344   1.863   2.680  0.8610 -0.4934 -1.5331
18531SOL    HW257035   3.367   1.714   2.697  1.1870 -0.3784 -0.9661
18532SOL     OW57036   2.682   6.109   8.084 -0.0479 -0.4408 -0.2173
18532SOL    HW157037   2.740   6.056   8.138 -1.6521 -1.1079  0.9391
18532SOL    HW257038   2.599   6.060   8.084 -1.4937  1.8573  0.6341
18533SOL     OW57039   3.255   2.373   9.313  0.1792 -0.0770 -0.0478
18533SOL    HW157040   3.328   2.416   9.358  0.1323  1.9245 -1.7363
18533SOL    HW257041   3.283   2.283   9.302  1.7183  0.2764  0.7091
18534SOL     OW57042   0.314   0.404   6.683 -0.0282 -0.2586  0.1361
18534SOL    HW157043   0.272   0.418   6.768 -1.0392  1.7374 -0.6083
18534SOL    HW257044   0.398   0.450   6.689  1.2333 -2.5219  0.9386
18535SOL     OW57045   0.360   2.267   8.847  0.2565 -0.2096 -0.0158
18535SOL    HW157046   0.368   2.172   8.860  0.3932 -0.1955  0.0113
18535SOL    HW257047   0.368   2.279   8.753 -0.1977 -0.2644 -0.0607
18536SOL     OW57048   0.132   3.926   6.405  0.3987  0.0306  0.4167
18536SOL    HW157049   0.223   3.948   6.383 -0.1218  1.6800 -0.3233
18536SOL    HW257050   0.095   4.009   6.435 -0.3248 -1.0757  2.7713
18537SOL     OW57051   5.641   2.748   5.609 -0.7469  0.4038 -0.0299
18537SOL    HW157052   5.571   2.699   5.567 -1.2324  0.9736  0.0922
18537SOL    HW257053   5.596   2.812   5.665 -0.1443 -0.6844  1.7935
18538SOL     OW57054   2.447   5.637   2.196  0.1535 -0.2414 -0.1053
18538SOL    HW157055   2.427   5.661   2.105 -0.8144  0.9225  0.3869
18538SOL    HW257056   2.543   5.632   2.198  0.2483  0.7876 -0.9466
18539SOL     OW57057   0.126   2.538   4.506 -0.0155  0.2512  0.0660
18539SOL    HW157058   0.215   2.543   4.541  0.3571 -0.3738 -0.7479
18539SOL    HW257059   0.101   2.628   4.489  1.4060  0.3393 -1.9533
18540SOL     OW57060   0.189   6.584  10.186  0.1946 -0.2265  0.3433
18540SOL    HW157061   0.213   6.500  10.227 -1.0522 -1.2728 -0.9802
18540SOL    HW257062   0.230   6.650  10.242  1.1366 -1.7068  1.4822
18541SOL     OW57063   6.080   5.531  12.338 -0.2785 -0.1986  0.3931
18541SOL    HW157064   6.093   5.480  12.418  0.1536  0.5579  0.8159
18541SOL    HW257065   6.168   5.546  12.304 -0.2242  1.7025  1.2100
18542SOL     OW57066   7.786   2.755   3.631 -0.6158 -0.0706 -0.3243
18542SOL    HW157067   7.696   2.756   3.597 -0.3319 -1.3414 -1.1906
18542SOL    HW257068   7.839   2.726   3.557  0.5424  0.8174  0.1297
18543SOL     OW57069   1.283   3.976   6.675 -0.2753  0.5595 -0.0233
18543SOL    HW157070   1.340   4.040   6.717  1.1767 -0.1212 -0.8792
18543SOL    HW257071   1.275   3.905   6.739  0.7498  0.1679 -0.3173
18544SOL     OW57072   2.975   7.814   3.181  0.2167  0.9726  0.4522
18544SOL    HW157073   3.021   7.731   3.171  1.2828  1.5851  0.0399
18544SOL    HW257074   2.889   7.790   3.214  1.2929 -0.1456  2.6766
18545SOL     OW57075   3.188   2.219  11.301  0.0292  0.5837 -0.1631
18545SOL    HW157076   3.153   2.164  11.231 -0.1209  0.3749  0.0730
18545SOL    HW257077   3.193   2.161  11.377 -0.0263  0.8656  0.0614
18546SOL     OW57078   7.773   2.246   0.780  0.4218 -0.1046  0.1511
18546SOL    HW157079   7.788   2.180   0.848  0.5613  0.4547  0.6685
18546SOL    HW257080   7.752   2.195   0.702  3.3992 -0.9276 -0.2296
18547SOL     OW57081   7.709   0.535   4.257  0.0635  0.2098 -0.5377
18547SOL    HW157082   7.737   0.545   4.348  1.9490  2.2863 -1.2493
18547SOL    HW257083   7.616   0.560   4.258 -0.0805 -0.2535  0.8483
18548SOL     OW57084   7.103   6.723   6.156  0.1401 -0.1021 -0.3074
18548SOL    HW157085   7.175   6.737   6.218 -0.7220  0.4188  0.6105
18548SOL    HW257086   7.024   6.735   6.208 -0.6220 -0.4917 -1.3366
18549SOL     OW57087   2.282   2.230   6.779  1.0060  0.5757 -0.5393
18549SOL    HW157088   2.318   2.167   6.717 -0.2706  0.0102 -0.7527
18549SOL    HW257089   2.336   2.221   6.857  1.1113 -0.4912 -0.7188
18550SOL     OW57090   7.928   3.016   3.512  0.1508 -0.0514 -0.3165
18550SOL    HW157091   7.835   3.017   3.492  0.4315  0.6337 -1.6990
18550SOL    HW257092   7.946   3.102   3.549  0.1216 -0.4213  0.5818
18551SOL     OW57093   0.008   2.548   7.799 -0.1625 -0.2550  0.2448
18551SOL    HW157094   0.057   2.630   7.802 -0.9573  0.2072  1.8509
18551SOL    HW257095   0.061   2.489   7.745  1.0043  0.9295  0.0670
18552SOL     OW57096   1.009   7.260   6.191  0.6891  0.3678 -0.1503
18552SOL    HW157097   1.058   7.224   6.117  2.3108 -0.5016  1.2766
18552SOL    HW257098   1.048   7.220   6.268 -0.0630  2.2360  1.2992
18553SOL     OW57099   1.663   7.782  11.258 -0.1069  0.0699 -0.3043
18553SOL    HW157100   1.602   7.840  11.303 -0.0373  0.2077 -0.3874
18553SOL    HW257101   1.654   7.698  11.304 -3.0150 -1.0071 -2.4962
18554SOL     OW57102   5.786   4.076   7.575  0.0741 -0.1856 -0.0329
18554SOL    HW157103   5.711   4.076   7.516  0.6273 -0.4466 -0.7535
18554SOL    HW257104   5.823   3.988   7.566 -0.3389 -0.5169  1.3651
18555SOL     OW57105   2.499   1.358   7.588  0.5789  0.1843  0.2311
18555SOL    HW157106   2.577   1.303   7.585 -0.4153 -1.2368 -0.7902
18555SOL    HW257107   2.531   1.444   7.613  2.5750 -0.1739 -0.9600
18556SOL     OW57108   1.768   0.853   6.713 -0.2601  0.2048  0.4768
18556SOL    HW157109   1.859   0.874   6.691 -0.6562  0.6880 -0.8239
18556SOL    HW257110   1.721   0.865   6.630 -1.6471  0.7434  1.3206
18557SOL     OW57111   3.754   2.153   3.871  0.3457 -0.1158  0.0141
18557SOL    HW157112   3.809   2.121   3.799  0.7507 -1.9680  1.0993
18557SOL    HW257113   3.795   2.235   3.898  1.9115 -0.8847  0.0467
18558SOL     OW57114   7.745   1.703   3.414 -0.0577  0.2903 -0.2520
18558SOL    HW157115   7.782   1.780   3.457 -2.2684  1.5293 -0.4196
18558SOL    HW257116   7.655   1.698   3.447 -0.9292 -0.3830 -2.5224
18559SOL     OW57117   6.592   3.589   7.708 -0.2735  0.4420  0.6821
18559SOL    HW157118   6.547   3.634   7.637  2.2949  0.2654 -1.1911
18559SOL    HW257119   6.598   3.654   7.778 -0.3645  1.5926 -0.3454
18560SOL     OW57120   4.613   2.593   3.215  0.1973  0.7488  0.0598
18560SOL    HW157121   4.533   2.621   3.260 -0.3052  0.7243 -0.7971
18560SOL    HW257122   4.630   2.661   3.151  1.3107  1.1351  0.7319
18561SOL     OW57123   4.854   5.678   7.803 -0.1915 -0.4962  0.1258
18561SOL    HW157124   4.787   5.713   7.862  1.5784  0.0551  1.9294
18561SOL    HW257125   4.841   5.583   7.807 -1.1812 -0.3732  0.0380
18562SOL     OW57126   6.396   1.460  11.126  0.1581  0.4770 -0.1978
18562SOL    HW157127   6.474   1.514  11.118 -0.0298  0.5964 -1.5062
18562SOL    HW257128   6.428   1.374  11.155  0.5787  0.9750  0.8320
18563SOL     OW57129   0.783   7.738   3.835 -0.5498 -0.7346  0.7595
18563SOL    HW157130   0.740   7.804   3.889  0.6556  0.5879  0.1738
18563SOL    HW257131   0.716   7.709   3.773 -0.6975  1.1415 -0.0177
18564SOL     OW57132   6.131   0.586   2.681 -0.0828  0.0399  0.2993
18564SOL    HW157133   6.057   0.553   2.630  0.6050 -0.9518 -0.0832
18564SOL    HW257134   6.152   0.670   2.639 -1.4553  0.7175  0.8955
18565SOL     OW57135   3.052   5.723   5.053 -0.0381 -0.0714  0.0984
18565SOL    HW157136   2.985   5.661   5.082 -0.3598 -0.6758 -1.7814
18565SOL    HW257137   3.010   5.809   5.058 -0.5506 -0.3193  0.0594
18566SOL     OW57138   7.520   1.405  11.972  0.0551  0.3061  0.1905
18566SOL    HW157139   7.508   1.377  11.881 -1.8076 -0.0398  0.4939
18566SOL    HW257140   7.577   1.338  12.010 -0.1062 -0.1942 -0.4236
18567SOL     OW57141   7.817   2.462   7.212  0.5495 -0.4708 -0.1067
18567SOL    HW157142   7.844   2.411   7.136  1.2791 -2.5370  1.4354
18567SOL    HW257143   7.723   2.474   7.201  0.9418  0.9840 -2.2541
18568SOL     OW57144   1.191   0.112  11.755 -0.2831  0.0532  0.1585
18568SOL    HW157145   1.124   0.155  11.809 -0.2904 -0.2441  0.3858
18568SOL    HW257146   1.273   0.150  11.786 -0.3351  0.3252 -0.0342
18569SOL     OW57147   7.814   2.531   8.775  0.6434 -0.4979 -0.1527
18569SOL    HW157148   7.866   2.512   8.854  0.5097 -0.6203 -0.0920
18569SOL    HW257149   7.729   2.558   8.809  1.6107  3.0065 -0.1178
18570SOL     OW57150   2.068   6.326   5.443  0.2422  0.4531 -0.0415
18570SOL    HW157151   2.130   6.398   5.430  1.9673 -1.1292 -1.0499
18570SOL    HW257152   2.054   6.323   5.537 -1.3794  3.2501 -0.0923
18571SOL     OW57153   3.274   0.649   2.288  0.6157  0.2462 -0.1244
18571SOL    HW157154   3.183   0.672   2.309  0.8658  0.8576  0.3162
18571SOL    HW257155   3.310   0.618   2.372  1.4106  1.9935  0.2233
18572SOL     OW57156   0.285   1.815   8.763 -0.0436  0.0132  0.3591
18572SOL    HW157157   0.332   1.853   8.689 -0.7843 -0.7329 -0.5235
18572SOL    HW257158   0.320   1.860   8.840 -0.0294  1.5963 -0.5400
18573SOL     OW57159   1.764   6.900   2.831 -0.6411  0.9205 -0.0115
18573SOL    HW157160   1.750   6.837   2.902  0.4082  0.0997 -0.5256
18573SOL    HW257161   1.820   6.967   2.870  1.8017 -0.6556 -0.6411
18574SOL     OW57162   7.595   4.199   9.064  0.1608 -0.1170 -0.0879
18574SOL    HW157163   7.633   4.279   9.097  0.9468 -0.6225  0.2497
18574SOL    HW257164   7.500   4.213   9.069  0.2915  0.8481 -0.2102
18575SOL     OW57165   2.047   1.583   1.887 -0.4591 -0.3799 -0.5753
18575SOL    HW157166   2.015   1.670   1.910  1.4052  1.1319 -3.0630
18575SOL    HW257167   2.065   1.541   1.971  0.9832  2.6524  0.8145
18576SOL     OW57168   7.565   3.804  11.533  0.4728  0.0906 -0.5212
18576SOL    HW157169   7.507   3.880  11.543 -0.3135 -0.5985  0.2949
18576SOL    HW257170   7.640   3.838  11.484 -0.3670  1.1251 -1.1298
18577SOL     OW57171   0.447   5.299   5.719 -0.2012 -0.3521 -0.0504
18577SOL    HW157172   0.499   5.335   5.791  0.2026  1.2399 -1.0829
18577SOL    HW257173   0.443   5.205   5.737  0.3720 -0.0762  1.7270
18578SOL     OW57174   1.582   6.773   8.785 -0.1269  0.1058  0.1989
18578SOL    HW157175   1.634   6.836   8.736 -1.7832  0.6561 -0.9137
18578SOL    HW257176   1.510   6.823   8.822 -0.5801 -0.8509  0.6632
18579SOL     OW57177   5.313   7.290  11.426 -0.3858 -0.3326 -0.3174
18579SOL    HW157178   5.286   7.289  11.334 -0.7475 -0.3295 -0.2104
18579SOL    HW257179   5.284   7.375  11.459 -0.6675 -0.5204 -0.0772
18580SOL     OW57180   6.496   3.340   7.330  0.4016  0.7313 -0.2669
18580SOL    HW157181   6.547   3.382   7.399  0.0636  2.6934 -1.1356
18580SOL    HW257182   6.437   3.280   7.376  1.7950  0.2122  0.9230
18581SOL     OW57183   2.047   1.683   7.549  0.4062  0.0703  0.0612
18581SOL    HW157184   2.102   1.735   7.608 -0.7889  0.6719  0.6805
18581SOL    HW257185   1.962   1.727   7.551 -0.1606 -0.9539 -0.7165
18582SOL     OW57186   0.240   1.992   2.982  0.4999  0.0471  0.4877
18582SOL    HW157187   0.146   2.008   2.985  0.3313 -0.6358 -0.7198
18582SOL    HW257188   0.279   2.080   2.986 -0.2229  0.4040 -0.1738
18583SOL     OW57189   5.274   2.603  10.553  0.0529  0.0661  0.1819
18583SOL    HW157190   5.266   2.696  10.529 -0.4947  0.8942  3.1348
18583SOL    HW257191   5.218   2.558  10.490 -1.6546  2.0713  0.1288
18584SOL     OW57192   7.771   6.052   5.473  0.1538 -0.2211 -0.1100
18584SOL    HW157193   7.714   6.033   5.547  1.2876 -2.7649  0.2213
18584SOL    HW257194   7.726   6.014   5.398  1.3271 -2.2391  0.1542
18585SOL     OW57195   6.506   3.608   2.906  0.4194 -0.0356  0.1047
18585SOL    HW157196   6.512   3.515   2.926 -1.4158  0.0709  1.4454
18585SOL    HW257197   6.515   3.652   2.990 -2.5257  0.7327  0.1337
18586SOL     OW57198   0.403   4.204  11.322  0.4031  1.0892  0.1297
18586SOL    HW157199   0.445   4.157  11.250  0.3807  0.8270  0.2873
18586SOL    HW257200   0.315   4.166  11.328  0.3123  1.2971  0.1195
18587SOL     OW57201   7.630   1.068   2.300  0.4615 -0.2478  0.5739
18587SOL    HW157202   7.649   1.161   2.290  0.4108 -0.2976  0.0096
18587SOL    HW257203   7.535   1.062   2.297  0.5035 -0.4857 -0.9697
18588SOL     OW57204   3.237   1.522   6.815  0.1214 -0.2296 -0.5203
18588SOL    HW157205   3.143   1.515   6.833  0.1269  0.6644 -0.0587
18588SOL    HW257206   3.249   1.477   6.731 -0.7464 -0.2100 -0.6665
18589SOL     OW57207   6.977   4.286   9.015  0.0880  0.1921 -0.1183
18589SOL    HW157208   6.959   4.365   9.067 -0.6599 -0.2355  0.2914
18589SOL    HW257209   7.008   4.222   9.079 -0.4550 -0.2111 -0.2457
18590SOL     OW57210   3.846   4.854   1.592  0.2325 -0.1962 -0.0375
18590SOL    HW157211   3.912   4.915   1.624 -2.4183  1.4443  2.9360
18590SOL    HW257212   3.813   4.895   1.512  1.5330 -0.1345 -0.5677
18591SOL     OW57213   4.761   7.634   6.885  0.2862 -0.7879  0.8074
18591SOL    HW157214   4.807   7.604   6.964 -0.6134 -3.4421  0.4083
18591SOL    HW257215   4.702   7.563   6.863 -1.0740  0.8109 -1.0575
18592SOL     OW57216   0.929   4.655  10.144  0.1202  0.3315 -0.3568
18592SOL    HW157217   0.931   4.738  10.191 -0.8634  1.1196 -1.6241
18592SOL    HW257218   0.939   4.589  10.212 -0.3612  1.4463  0.8443
18593SOL     OW57219   4.000   1.156   5.041 -0.2454  0.2970 -0.5368
18593SOL    HW157220   3.996   1.251   5.057  1.3078 -0.0336  2.5257
18593SOL    HW257221   3.911   1.125   5.060 -0.6481  1.0699 -1.1077
18594SOL     OW57222   2.747   1.672   9.417  0.0790 -0.0968 -0.3358
18594SOL    HW157223   2.774   1.750   9.368 -0.5695  1.4476  1.6365
18594SOL    HW257224   2.667   1.698   9.462 -0.7971 -2.2984 -0.4689
18595SOL     OW57225   4.740   6.207   8.736  0.7092 -0.4611 -0.8007
18595SOL    HW157226   4.820   6.193   8.787 -0.0287  0.2039  0.5690
18595SOL    HW257227   4.768   6.264   8.664  1.2513  0.7145  0.3068
18596SOL     OW57228   3.507   3.809   6.729 -0.6876  0.4673  0.3908
18596SOL    HW157229   3.418   3.799   6.763 -0.7591 -1.0404 -0.1693
18596SOL    HW257230   3.555   3.734   6.765  0.3929  1.3124  0.7623
18597SOL     OW57231   5.788   2.635   6.113  0.0528 -0.5574  0.0105
18597SOL    HW157232   5.730   2.565   6.083 -0.7814  0.0457  0.1789
18597SOL    HW257233   5.794   2.694   6.039 -1.1211  0.3665  0.6158
18598SOL     OW57234   7.399   1.222   3.957  0.5224 -0.1863  0.2566
18598SOL    HW157235   7.474   1.270   3.922  1.5505 -0.2895  2.2107
18598SOL    HW257236   7.350   1.287   4.007  0.0448 -0.4313  0.1103
18599SOL     OW57237   1.968   7.976   8.186  0.2987 -0.4233 -0.0051
18599SOL    HW157238   1.991   8.028   8.109 -1.3940  0.6660  0.1779
18599SOL    HW257239   2.049   7.929   8.208  1.4282  0.8959 -1.1378
18600SOL     OW57240   1.982   1.209   5.415 -0.6172  0.4021  0.7453
18600SOL    HW157241   2.038   1.269   5.466 -2.1435  1.5067  1.1791
18600SOL    HW257242   1.998   1.234   5.324 -1.3851  1.6431  0.9269
18601SOL     OW57243   3.147   6.373   6.642  0.3490  0.1167  0.5501
18601SOL    HW157244   3.126   6.320   6.719 -0.8274  0.6373  0.6093
18601SOL    HW257245   3.085   6.344   6.575 -0.0612  1.1348  0.4711
18602SOL     OW57246   0.822   3.195   9.878 -0.3209  0.0681 -0.2180
18602SOL    HW157247   0.858   3.106   9.872 -0.5143  0.0480 -1.4234
18602SOL    HW257248   0.894   3.251   9.849 -0.3860  0.2531 -0.0180
18603SOL     OW57249   1.265   3.301   8.684 -0.0901 -0.3098  0.0388
18603SOL    HW157250   1.275   3.309   8.589 -1.3508  0.6841 -0.0363
18603SOL    HW257251   1.324   3.367   8.720 -0.9458  0.5789 -0.1408
18604SOL     OW57252   7.141   7.899   2.808 -0.3635 -0.3575  0.2641
18604SOL    HW157253   7.226   7.856   2.808 -0.7512 -1.1432  0.3367
18604SOL    HW257254   7.145   7.960   2.734  0.0950 -0.7148 -0.0116
18605SOL     OW57255   5.456   2.232   1.379  0.4120  0.0575 -0.4878
18605SOL    HW157256   5.493   2.150   1.410  1.1539  0.6756  0.2857
18605SOL    HW257257   5.364   2.211   1.362  0.8074 -1.1697 -1.2443
18606SOL     OW57258   7.804   1.292   3.632 -0.1541  0.0513 -0.1875
18606SOL    HW157259   7.841   1.204   3.631  0.2596  0.2026 -2.1337
18606SOL    HW257260   7.824   1.327   3.545 -2.2670  1.2429 -0.2623
18607SOL     OW57261   2.171   2.470   4.917 -0.2422  0.2948  0.4132
18607SOL    HW157262   2.186   2.546   4.973  0.6821  1.8244 -1.7818
18607SOL    HW257263   2.257   2.430   4.908 -0.6175 -0.7008  1.0635
18608SOL     OW57264   4.335   3.854   8.239  0.2003  0.1094  0.2142
18608SOL    HW157265   4.304   3.799   8.167  1.3050 -0.0576 -0.1490
18608SOL    HW257266   4.422   3.882   8.212  0.7271 -0.1408  1.5959
18609SOL     OW57267   4.149   6.769  10.622  0.3299  0.6117  0.3568
18609SOL    HW157268   4.201   6.725  10.554 -0.1078 -1.3972  1.2445
18609SOL    HW257269   4.060   6.735  10.609  0.4093 -0.5734  2.4548
18610SOL     OW57270   5.626   7.337   0.069  0.3811 -0.2045  0.2085
18610SOL    HW157271   5.699   7.387   0.032  0.4496  0.9533  1.8070
18610SOL    HW257272   5.635   7.348   0.164 -1.9270  0.0456  0.4426
18611SOL     OW57273   2.188   2.805   8.724 -0.4319 -0.5032 -0.3267
18611SOL    HW157274   2.152   2.813   8.636  0.6735  0.0150 -0.7523
18611SOL    HW257275   2.257   2.740   8.716 -0.5432 -0.6925  0.2298
18612SOL     OW57276   5.394   1.018   7.267  0.1883  0.1730 -0.0128
18612SOL    HW157277   5.482   1.035   7.300  0.0427 -0.0558  0.5003
18612SOL    HW257278   5.396   1.049   7.176  0.8859 -0.1185 -0.1021
18613SOL     OW57279   0.471   6.928   1.064 -0.4380 -0.2801 -0.0465
18613SOL    HW157280   0.449   7.001   1.006 -0.4547 -0.2140  0.0434
18613SOL    HW257281   0.540   6.881   1.017  0.2216  0.3124  0.2968
18614SOL     OW57282   2.377   5.464   6.534 -0.2196  0.1026 -0.2290
18614SOL    HW157283   2.398   5.376   6.567  4.0570  1.2209  0.7701
18614SOL    HW257284   2.409   5.464   6.444  1.7385  1.0974  0.4129
18615SOL     OW57285   4.882   3.856  10.031 -0.3266  0.2115 -0.6834
18615SOL    HW157286   4.860   3.909   9.954 -0.2375  0.6146 -0.4364
18615SOL    HW257287   4.893   3.920  10.101  0.3675 -0.0835 -0.5131
18616SOL     OW57288   2.558   4.174   5.080  0.5752 -0.4802  0.3634
18616SOL    HW157289   2.634   4.205   5.030 -0.3916  1.5080  0.0243
18616SOL    HW257290   2.494   4.149   5.012 -1.1727  3.2704  0.3600
18617SOL     OW57291   6.707   1.342   5.754 -0.2786  0.0032  0.1201
18617SOL    HW157292   6.660   1.264   5.725 -0.5769  0.3163 -0.2555
18617SOL    HW257293   6.799   1.317   5.751 -0.3989 -0.5062  0.5293
18618SOL     OW57294   2.531   3.181   0.094  0.1419 -0.2883 -0.2976
18618SOL    HW157295   2.587   3.241   0.144 -1.1295  1.5790 -0.9953
18618SOL    HW257296   2.496   3.235   0.023 -1.0234 -1.8964 -0.9955
18619SOL     OW57297   5.393   6.687   6.336  0.0145  0.3822  0.1024
18619SOL    HW157298   5.358   6.599   6.322 -1.2428  0.7327  0.8228
18619SOL    HW257299   5.474   6.673   6.384  0.4128 -0.4301 -0.7813
18620SOL     OW57300   5.452   1.672   5.999  0.7095 -0.3235 -0.0508
18620SOL    HW157301   5.454   1.696   5.907 -0.3938  0.3784  0.0862
18620SOL    HW257302   5.486   1.749   6.045 -1.3354  0.4190  0.2899
18621SOL     OW57303   1.950   1.874   4.059 -0.0199  0.4466 -0.6335
18621SOL    HW157304   2.016   1.936   4.030 -0.2478  0.0030 -2.1961
18621SOL    HW257305   1.909   1.843   3.978 -2.0318  0.5895  0.2580
18622SOL     OW57306   5.646   4.826   6.653  0.0873 -0.5087 -0.0562
18622SOL    HW157307   5.707   4.884   6.607  0.1432 -1.3036 -1.0142
18622SOL    HW257308   5.602   4.778   6.583 -1.3043 -0.2972  0.6353
18623SOL     OW57309   6.171   7.397   5.269  0.6006 -0.4321  0.2188
18623SOL    HW157310   6.081   7.426   5.256  0.9488  0.1761 -1.0554
18623SOL    HW257311   6.197   7.437   5.352 -0.3636 -0.8238  0.7321
18624SOL     OW57312   5.041   0.626   4.049 -0.4900 -0.0768  0.0295
18624SOL    HW157313   5.065   0.584   4.132 -1.6521  1.5260  1.2443
18624SOL    HW257314   5.116   0.683   4.029 -0.6810  0.3774  0.5878
18625SOL     OW57315   7.544   4.758   6.599 -0.2586 -0.0031  0.0030
18625SOL    HW157316   7.635   4.732   6.583 -0.7226 -1.5833 -0.2149
18625SOL    HW257317   7.499   4.676   6.619 -2.0694  0.4747 -1.8618
18626SOL     OW57318   0.660   7.352   0.372 -0.5145 -0.6606  0.2109
18626SOL    HW157319   0.599   7.399   0.429 -2.6927 -1.2458 -1.5052
18626SOL    HW257320   0.676   7.269   0.418 -3.5859 -1.8729 -0.6509
18627SOL     OW57321   6.418   3.808  11.998  0.3007 -0.2395 -0.2621
18627SOL    HW157322   6.396   3.783  11.909  1.3426  0.4937 -0.7482
18627SOL    HW257323   6.474   3.738  12.030 -1.5303 -1.4265  0.4993
18628SOL     OW57324   3.461   4.018   2.255 -0.0203  0.0786  0.2711
18628SOL    HW157325   3.419   4.104   2.256 -0.0834  0.0467  0.6516
18628SOL    HW257326   3.536   4.029   2.197 -0.6569  0.0836 -0.5595
18629SOL     OW57327   0.574   1.278   4.030  0.3878  0.2463 -0.3111
18629SOL    HW157328   0.606   1.190   4.013  1.2100  0.0497  1.9162
18629SOL    HW257329   0.653   1.330   4.046 -0.1718  0.3862  2.5081
18630SOL     OW57330   1.471   4.512   2.912 -0.3570 -0.5097  0.0260
18630SOL    HW157331   1.442   4.596   2.875 -1.1456 -0.7196  0.1500
18630SOL    HW257332   1.559   4.529   2.943  1.2791 -0.8358 -3.8434
18631SOL     OW57333   7.287   7.779   7.884 -0.2258 -0.0800 -0.4784
18631SOL    HW157334   7.256   7.844   7.822 -1.0929  0.1122  0.1395
18631SOL    HW257335   7.214   7.717   7.893  0.1388 -0.4720 -0.1573
18632SOL     OW57336   0.899   2.498   8.965  0.5716 -0.7111 -0.1430
18632SOL    HW157337   0.812   2.460   8.950 -0.2817  0.3980  1.5766
18632SOL    HW257338   0.918   2.548   8.885 -1.1965  0.4490  0.0987
18633SOL     OW57339   1.231   4.929   3.682 -0.2540 -0.0685 -0.0906
18633SOL    HW157340   1.253   4.951   3.592  1.9223  3.1842  1.0574
18633SOL    HW257341   1.148   4.973   3.698  1.2601  2.8283  0.4838
18634SOL     OW57342   1.970   7.726   6.461 -0.1385 -0.3821  0.4302
18634SOL    HW157343   1.916   7.700   6.386  0.6381  1.8513 -1.0181
18634SOL    HW257344   2.060   7.720   6.429  0.2425 -0.0736  1.4139
18635SOL     OW57345   1.101   5.677   3.841 -0.4654 -0.3756 -0.7566
18635SOL    HW157346   1.138   5.591   3.817  1.5391  0.1319  0.3072
18635SOL    HW257347   1.064   5.710   3.759 -0.8436 -2.0227 -1.3007
18636SOL     OW57348   0.931   2.792   7.010 -0.1822 -0.1220  0.0635
18636SOL    HW157349   0.873   2.782   6.934 -0.7474 -0.9262  0.5892
18636SOL    HW257350   0.993   2.719   7.003  0.5629  0.5257 -0.2966
18637SOL     OW57351   0.313   4.079  10.367 -0.1458  0.1619  0.3407
18637SOL    HW157352   0.404   4.105  10.381 -0.1174  0.7388 -0.8146
18637SOL    HW257353   0.266   4.161  10.353 -0.3260 -0.2465 -1.8555
18638SOL     OW57354   2.427   7.354   1.092  0.2608  0.4450  0.1266
18638SOL    HW157355   2.431   7.421   1.160  0.4914 -0.4883  1.0519
18638SOL    HW257356   2.516   7.318   1.087 -0.0363 -0.3313  0.2063
18639SOL     OW57357   2.997   0.774  11.400 -0.5675  0.2457  0.0420
18639SOL    HW157358   2.938   0.714  11.356 -0.0036 -0.1110 -0.2378
18639SOL    HW257359   2.970   0.861  11.370 -0.5650  0.0459 -0.5537
18640SOL     OW57360   4.212   0.383   7.076  0.3317  0.4397  0.1335
18640SOL    HW157361   4.130   0.382   7.026  0.1666 -0.5807  0.4046
18640SOL    HW257362   4.257   0.462   7.046 -1.2486  1.6588  0.8151
18641SOL     OW57363   0.068   2.359  12.202 -0.0392  0.3512 -0.2851
18641SOL    HW157364   0.118   2.439  12.218  0.5760 -0.1755  0.5148
18641SOL    HW257365   0.036   2.368  12.112 -0.8741  1.9684  0.1396
18642SOL     OW57366   4.506   7.659  12.313  0.7075  0.0685 -0.1704
18642SOL    HW157367   4.424   7.707  12.323  1.0956  1.0726 -1.5143
18642SOL    HW257368   4.526   7.665  12.219  1.7727 -1.0788 -0.0446
18643SOL     OW57369   1.760   5.032   5.426 -0.0330  0.1026  0.3581
18643SOL    HW157370   1.760   5.053   5.333 -0.8906  0.7621  0.4868
18643SOL    HW257371   1.788   5.114   5.469 -2.3237  0.7276  0.8110
18644SOL     OW57372   6.376   1.051   0.422  0.6652  0.0118 -0.2310
18644SOL    HW157373   6.352   1.095   0.504  1.1602  2.5666 -1.3435
18644SOL    HW257374   6.470   1.033   0.432  0.4778 -0.7968  0.1964
18645SOL     OW57375   7.497   5.733   5.089  0.5477 -0.6003  0.0723
18645SOL    HW157376   7.484   5.655   5.035 -2.3765 -0.6748  0.6966
18645SOL    HW257377   7.481   5.806   5.030 -0.3329 -0.6195  0.2676
18646SOL     OW57378   5.110   1.459   7.684 -0.2942 -0.2015  0.4720
18646SOL    HW157379   5.014   1.452   7.683 -0.3924  1.0590 -0.4586
18646SOL    HW257380   5.132   1.504   7.603  1.0819 -0.1982  0.8235
18647SOL     OW57381   3.721   1.411   9.185  0.0077 -0.4438 -0.6343
18647SOL    HW157382   3.670   1.368   9.117  1.9355 -1.4693 -1.4741
18647SOL    HW257383   3.683   1.378   9.267 -0.2125 -1.7435 -1.2350
18648SOL     OW57384   6.306   6.674   4.588 -0.1444 -0.1060 -0.0274
18648SOL    HW157385   6.290   6.684   4.494 -0.0174 -0.0529 -0.0429
18648SOL    HW257386   6.304   6.580   4.603  2.9537 -0.3649 -0.6262
18649SOL     OW57387   2.315   3.581   9.383 -0.6524  0.3085 -0.1151
18649SOL    HW157388   2.230   3.557   9.346 -0.9354 -0.0554  0.7579
18649SOL    HW257389   2.348   3.500   9.423  0.8484  0.0121 -1.8119
18650SOL     OW57390   7.106   1.726   9.198  0.0583 -0.0176 -0.7134
18650SOL    HW157391   7.062   1.737   9.114  0.5714  0.4773 -0.9227
18650SOL    HW257392   7.054   1.660   9.244 -0.6329  0.2266 -1.1354
18651SOL     OW57393   3.214   4.688   5.546 -0.4112  0.1085  0.1712
18651SOL    HW157394   3.183   4.675   5.635 -0.7894 -0.3994 -0.0319
18651SOL    HW257395   3.294   4.636   5.540 -0.5102 -0.0401  0.1443
18652SOL     OW57396   6.166   6.572   8.223 -0.7767 -0.6534 -0.2066
18652SOL    HW157397   6.156   6.662   8.191 -0.0392 -0.6244 -0.3710
18652SOL    HW257398   6.101   6.522   8.174 -0.8962 -0.2865 -0.4262
18653SOL     OW57399   1.007   0.778   6.976  0.5150  0.3442  0.3585
18653SOL    HW157400   1.091   0.785   6.930 -0.5546 -0.3693 -1.8610
18653SOL    HW257401   0.995   0.684   6.991 -0.1315  0.3799  0.1273
18654SOL     OW57402   2.439   2.276   0.236 -0.3962  0.1868 -0.2983
18654SOL    HW157403   2.396   2.320   0.309 -0.5598  0.5200 -0.5946
18654SOL    HW257404   2.506   2.337   0.207  0.9126 -0.6912  0.7415
18655SOL     OW57405   0.141   3.415   5.269 -0.5898  0.4561 -0.1609
18655SOL    HW157406   0.170   3.324   5.269 -2.2162 -0.0852 -0.0992
18655SOL    HW257407   0.220   3.465   5.291  0.6109 -0.8252 -1.3358
18656SOL     OW57408   5.116   4.475   2.701  0.3886  0.0012  0.6642
18656SOL    HW157409   5.049   4.413   2.731 -1.1778  1.4713  0.3611
18656SOL    HW257410   5.169   4.493   2.778  0.4082 -1.1521  0.9308
18657SOL     OW57411   4.537   7.138  11.073  0.2598  0.0637  0.0468
18657SOL    HW157412   4.589   7.077  11.020  0.0706  0.9892 -1.2749
18657SOL    HW257413   4.598   7.170  11.139  1.6129  1.5041 -1.7782
18658SOL     OW57414   7.145   5.181   8.620  0.1470 -0.4278 -0.3535
18658SOL    HW157415   7.182   5.121   8.685  0.5636  0.7234  0.4933
18658SOL    HW257416   7.207   5.253   8.614 -0.6914  0.2896 -0.8291
18659SOL     OW57417   6.491   5.833   5.243 -0.2311  0.4541  0.6686
18659SOL    HW157418   6.424   5.846   5.311  0.0813 -2.2318  1.6056
18659SOL    HW257419   6.443   5.842   5.161 -1.3391  0.5096  1.2887
18660SOL     OW57420   6.713   5.509   2.785 -0.2271 -0.4106  0.1607
18660SOL    HW157421   6.791   5.552   2.750 -1.0318 -0.1898 -1.4505
18660SOL    HW257422   6.724   5.417   2.764 -0.7953 -0.2531 -0.9263
18661SOL     OW57423   0.212   4.741   7.448  0.9714 -0.2953 -0.2760
18661SOL    HW157424   0.308   4.744   7.450  0.9645 -0.4146  0.8393
18661SOL    HW257425   0.189   4.676   7.514  0.0696  1.0376  0.7783
18662SOL     OW57426   4.722   0.992   3.000  0.0213  0.1809  0.2403
18662SOL    HW157427   4.698   0.927   2.934  0.9508  0.6120 -0.5451
18662SOL    HW257428   4.776   0.945   3.063  0.7055  0.1814 -0.3353
18663SOL     OW57429   7.073   7.773   3.886 -0.0632 -0.3406 -0.3014
18663SOL    HW157430   7.074   7.848   3.946 -0.8825  0.2706 -1.0237
18663SOL    HW257431   7.111   7.701   3.937  1.2059  0.6706  0.2387
18664SOL     OW57432   0.380   7.095   9.004 -0.2256  0.2269 -0.1339
18664SOL    HW157433   0.416   7.006   9.004 -0.3512  0.1200 -2.0375
18664SOL    HW257434   0.339   7.105   9.089  0.7823 -1.1240  0.5429
18665SOL     OW57435   6.581   3.371  11.459 -0.3634 -0.2322 -0.1448
18665SOL    HW157436   6.598   3.416  11.542 -2.2134 -2.2040  1.4235
18665SOL    HW257437   6.634   3.292  11.463 -1.2403 -0.8497 -0.3450
18666SOL     OW57438   1.009   2.330   0.874 -0.3642  0.5979  0.0645
18666SOL    HW157439   0.949   2.256   0.877  0.6825 -0.2777  2.3999
18666SOL    HW257440   1.075   2.305   0.810  0.1988 -0.7544  1.1096
18667SOL     OW57441   7.726   2.044  12.200  0.0538 -0.2086  0.0165
18667SOL    HW157442   7.704   2.115  12.141  1.1851 -0.3298 -0.5799
18667SOL    HW257443   7.656   1.980  12.189 -1.1524  0.9148  0.7945
18668SOL     OW57444   7.609   3.390  11.735 -0.5126  0.0843  0.8001
18668SOL    HW157445   7.687   3.339  11.716 -0.8555 -0.2968  0.4102
18668SOL    HW257446   7.564   3.397  11.651 -0.8267  0.4203  0.9956
18669SOL     OW57447   2.219   1.321   0.471 -0.4290  0.3936  0.2754
18669SOL    HW157448   2.168   1.400   0.488 -0.4240  1.1356 -2.6225
18669SOL    HW257449   2.171   1.251   0.515 -2.1910  1.5481  0.2862
18670SOL     OW57450   6.256   4.672   6.320 -0.8785  0.1231  0.1154
18670SOL    HW157451   6.290   4.631   6.240  0.7636 -3.9072  2.5674
18670SOL    HW257452   6.162   4.653   6.318 -1.0112  0.8068 -1.1775
18671SOL     OW57453   5.158   7.043   1.502 -0.1377  0.9124 -0.3045
18671SOL    HW157454   5.069   7.059   1.473  0.2933  2.1124 -1.0174
18671SOL    HW257455   5.187   7.126   1.539  0.6357  0.4880  0.0829
18672SOL     OW57456   6.701   1.222   1.666  0.4608 -0.1040  0.3282
18672SOL    HW157457   6.743   1.278   1.601  0.1814  1.8378  1.7241
18672SOL    HW257458   6.713   1.268   1.749 -0.0251 -2.0163  1.5309
18673SOL     OW57459   1.682   1.937   7.898  0.0317  0.1824  0.2024
18673SOL    HW157460   1.743   1.883   7.846 -0.7093 -0.3490 -0.1387
18673SOL    HW257461   1.639   1.874   7.956 -0.1151  0.5687  0.5073
18674SOL     OW57462   2.023   2.006   9.287 -0.4147 -0.7028 -0.0792
18674SOL    HW157463   1.967   1.928   9.286  0.6228 -1.5268  1.5568
18674SOL    HW257464   1.983   2.063   9.353  0.6771 -1.3613  1.2086
18675SOL     OW57465   2.587   3.264  10.218  0.3589 -0.0123 -0.1573
18675SOL    HW157466   2.553   3.269  10.307 -1.1848 -0.5090 -0.6875
18675SOL    HW257467   2.603   3.356  10.194 -0.9322  0.2881  0.0201
18676SOL     OW57468   2.629   2.919   2.582 -0.0348  0.8095 -0.7430
18676SOL    HW157469   2.600   2.892   2.495 -1.0629  0.2549 -0.2415
18676SOL    HW257470   2.707   2.973   2.566 -0.1789  0.6610 -1.9936
18677SOL     OW57471   6.327   4.783  12.251  0.2149  0.0333  0.3483
18677SOL    HW157472   6.341   4.734  12.332 -0.3538  0.5546  0.7788
18677SOL    HW257473   6.378   4.863  12.263 -2.4924  1.7235  1.7211
18678SOL     OW57474   6.545   3.153   9.271 -0.2920  0.1822 -0.4114
18678SOL    HW157475   6.531   3.242   9.237 -0.7499 -0.4744 -1.9985
18678SOL    HW257476   6.506   3.156   9.359  0.8210  1.8898  0.0888
18679SOL     OW57477   2.381   7.043   0.709  0.2672  0.3094 -0.6298
18679SOL    HW157478   2.356   6.990   0.785  0.3677 -1.1120 -1.5428
18679SOL    HW257479   2.324   7.119   0.713  0.2274  0.2303  0.8269
18680SOL     OW57480   0.842   1.682   8.584  0.3548  0.6773 -1.1216
18680SOL    HW157481   0.900   1.698   8.658  0.8737  1.3566 -1.6636
18680SOL    HW257482   0.890   1.714   8.508  0.0982 -0.5882 -1.8468
18681SOL     OW57483   5.425   0.272   8.432 -0.1431  0.3326 -0.1230
18681SOL    HW157484   5.339   0.250   8.395 -0.8301 -0.2207  1.6833
18681SOL    HW257485   5.477   0.298   8.356 -2.3326  2.1757 -1.1312
18682SOL     OW57486   2.863   6.886   2.237 -0.1675 -0.4890 -0.1449
18682SOL    HW157487   2.825   6.853   2.156 -0.3711  0.3275 -0.3926
18682SOL    HW257488   2.951   6.847   2.240  0.5698  0.8889 -1.7070
18683SOL     OW57489   6.258   6.952   1.040 -0.1478 -0.0493 -0.3038
18683SOL    HW157490   6.347   6.937   1.070 -0.0920  0.3355 -0.2816
18683SOL    HW257491   6.203   6.902   1.101 -0.0888  1.2083  0.8141
18684SOL     OW57492   3.942   0.196   5.712  0.0446  0.0389  0.3338
18684SOL    HW157493   3.938   0.283   5.752  1.2068  0.7992 -1.1351
18684SOL    HW257494   3.910   0.209   5.623 -2.5954 -1.6448  0.9223
18685SOL     OW57495   7.433   1.289  11.086  0.0098  0.1671  0.6169
18685SOL    HW157496   7.456   1.213  11.033  0.0798  1.0734 -0.7137
18685SOL    HW257497   7.406   1.253  11.170 -2.7694 -1.5779 -0.8752
18686SOL     OW57498   4.062   5.705   0.011  0.0740 -0.8691 -0.0889
18686SOL    HW157499   4.129   5.692  -0.056 -0.4422 -1.3941 -0.5140
18686SOL    HW257500   4.083   5.790   0.049 -0.0333 -0.2330 -1.3927
18687SOL     OW57501   5.538   6.027   1.318 -0.0130  0.1740 -0.0954
18687SOL    HW157502   5.526   5.978   1.236 -0.4017  1.9267 -1.1303
18687SOL    HW257503   5.619   5.991   1.355  1.3035  0.6809 -2.2774
18688SOL     OW57504   3.723   0.926  10.548  0.2929 -0.6164 -0.0423
18688SOL    HW157505   3.725   0.832  10.561  2.4545 -1.1089 -3.1095
18688SOL    HW257506   3.647   0.942  10.493 -0.1911 -0.4844  0.6423
18689SOL     OW57507   2.018   0.100   9.587 -0.3239  0.1515  0.0242
18689SOL    HW157508   1.968   0.182   9.577  0.8166  0.9914  0.9147
18689SOL    HW257509   2.052   0.082   9.500 -0.2559  0.8597 -0.1049
18690SOL     OW57510   6.487   2.590   8.312 -0.2239 -0.1454 -0.3162
18690SOL    HW157511   6.485   2.511   8.258 -2.0951 -0.1942 -0.2503
18690SOL    HW257512   6.426   2.650   8.268 -2.7296 -0.6014  2.2852
18691SOL     OW57513   2.714   2.395  12.361 -0.1210 -0.2219  1.0156
18691SOL    HW157514   2.659   2.357  12.293  1.7374  0.3764 -0.9562
18691SOL    HW257515   2.772   2.324  12.388 -0.1343 -0.1766  1.1627
18692SOL     OW57516   4.356   1.995   9.798 -0.4182 -0.0304  0.7038
18692SOL    HW157517   4.313   1.943   9.730  0.2731 -0.3642  0.5041
18692SOL    HW257518   4.293   2.000   9.869 -0.6243 -0.8768  0.5939
18693SOL     OW57519   2.084   6.860   5.382 -0.0310 -0.0328  0.3415
18693SOL    HW157520   2.103   6.941   5.430 -1.2702  1.9153 -2.1593
18693SOL    HW257521   2.150   6.856   5.313 -0.3193 -0.8444  0.0939
18694SOL     OW57522   4.966   7.443   9.784  0.0047  0.5071  0.6334
18694SOL    HW157523   4.895   7.393   9.746  0.2045  0.2877  0.5457
18694SOL    HW257524   4.980   7.516   9.723  0.9122 -0.3273 -0.1970
18695SOL     OW57525   3.908   7.740   9.341  0.2367  0.0088 -0.8252
18695SOL    HW157526   3.936   7.723   9.251  0.5049 -3.0507 -0.2887
18695SOL    HW257527   3.990   7.754   9.389  0.2595 -0.4836 -0.7135
18696SOL     OW57528   6.985   4.743   0.500 -0.2061 -0.2500  0.9652
18696SOL    HW157529   7.058   4.792   0.462 -0.1813 -0.1845  1.0952
18696SOL    HW257530   6.913   4.806   0.504 -0.5300 -0.5458  0.0575
18697SOL     OW57531   6.619   2.134  10.877  0.2501 -0.8216  0.0637
18697SOL    HW157532   6.660   2.080  10.945 -2.6008 -1.3984  1.4663
18697SOL    HW257533   6.597   2.072  10.808 -0.2421 -0.9278  0.3101
18698SOL     OW57534   6.574   1.679   0.092  0.5931 -0.1622 -0.2497
18698SOL    HW157535   6.513   1.746   0.060  1.0563 -0.2655 -1.3875
18698SOL    HW257536   6.656   1.696   0.044  1.4104 -0.1525  1.0959
18699SOL     OW57537   1.324   3.457   6.606 -0.3047  0.4389  0.5976
18699SOL    HW157538   1.273   3.472   6.527 -1.9869 -1.7083  1.1884
18699SOL    HW257539   1.270   3.495   6.676 -0.0084  0.1397  0.9875
18700SOL     OW57540   3.141   6.294   4.544  0.4864  0.8452  0.1679
18700SOL    HW157541   3.140   6.324   4.454  3.8280  0.7690 -0.0101
18700SOL    HW257542   3.188   6.362   4.592  0.0264  0.2031  1.5967
18701SOL     OW57543   7.073   5.493   8.555 -0.4168 -0.3320  0.3972
18701SOL    HW157544   7.162   5.459   8.568  0.0063  0.8023  0.5662
18701SOL    HW257545   7.063   5.498   8.460 -0.4838 -0.9123  0.3691
18702SOL     OW57546   3.162   2.772  10.502 -0.5499 -0.4037 -0.8961
18702SOL    HW157547   3.135   2.690  10.544  1.2976 -1.2470 -1.2437
18702SOL    HW257548   3.081   2.821  10.490 -1.5705 -1.7098  0.3173
18703SOL     OW57549   3.375   7.392  10.756 -0.4222 -0.4955  0.1033
18703SOL    HW157550   3.305   7.441  10.800 -0.0029  1.1003 -0.9186
18703SOL    HW257551   3.401   7.448  10.683  1.1424 -1.5866 -0.2210
18704SOL     OW57552   6.486   1.936   1.769 -0.3340 -0.2852 -0.1575
18704SOL    HW157553   6.420   1.866   1.777  1.9509 -2.6007 -0.3002
18704SOL    HW257554   6.446   2.000   1.710 -2.5224 -1.4693 -0.0629
18705SOL     OW57555   2.084   3.185  10.765 -0.7902 -0.8929  0.1131
18705SOL    HW157556   2.023   3.197  10.837 -0.9207 -0.5392 -0.0563
18705SOL    HW257557   2.053   3.243  10.696  0.4203  0.2101  0.4638
18706SOL     OW57558   7.247   1.294   5.961  1.0051  0.9719  0.1827
18706SOL    HW157559   7.335   1.315   5.994  2.4796 -1.0088 -2.1288
18706SOL    HW257560   7.205   1.247   6.032  1.7193  2.1085  1.4040
18707SOL     OW57561   0.263   3.409   4.753 -0.5682 -0.9271  0.1705
18707SOL    HW157562   0.242   3.469   4.825  1.3350  0.0462 -0.0240
18707SOL    HW257563   0.300   3.465   4.686  1.5624 -2.3377  0.0959
18708SOL     OW57564   7.603   3.900   7.891 -0.1067 -0.4126 -0.5880
18708SOL    HW157565   7.535   3.940   7.836 -2.4949 -1.4424  1.4077
18708SOL    HW257566   7.632   3.824   7.840  0.1305  0.4683 -1.8055
18709SOL     OW57567   2.677   7.617   6.842 -1.0051 -0.2296 -0.7856
18709SOL    HW157568   2.758   7.625   6.792 -0.3487 -1.3408  0.0650
18709SOL    HW257569   2.702   7.637   6.933 -1.8641  0.2526 -0.6395
18710SOL     OW57570   5.314   0.171   1.140 -1.0312  0.0497  0.1695
18710SOL    HW157571   5.322   0.236   1.069 -1.3182  0.2866  0.3525
18710SOL    HW257572   5.401   0.166   1.177 -0.2751 -1.7510 -1.6498
18711SOL     OW57573   0.689   6.975  10.226  0.3439 -0.3917 -0.2824
18711SOL    HW157574   0.755   6.957  10.159  0.4227  5.4306 -2.4093
18711SOL    HW257575   0.605   6.962  10.181  0.2878 -0.5296 -0.1355
18712SOL     OW57576   4.425   6.317  12.192  0.1237  0.4391 -0.2923
18712SOL    HW157577   4.414   6.275  12.277  0.2337 -0.4822 -0.7210
18712SOL    HW257578   4.356   6.280  12.137  0.4550  0.5404 -0.7842
18713SOL     OW57579   4.407   5.398   8.397  0.4075  0.2634 -0.3726
18713SOL    HW157580   4.395   5.344   8.319 -1.3255 -0.7817  0.5548
18713SOL    HW257581   4.476   5.354   8.447  0.3627  0.0097 -0.5354
18714SOL     OW57582   3.204   7.835   4.886  0.1472 -0.2488  0.1909
18714SOL    HW157583   3.133   7.820   4.948 -0.5900  0.2723 -0.5007
18714SOL    HW257584   3.192   7.767   4.819 -0.1160  0.2477 -0.2773
18715SOL     OW57585   4.301   1.484   6.208  0.0782 -0.3213 -0.5720
18715SOL    HW157586   4.380   1.528   6.177  1.2423 -0.8462  1.4800
18715SOL    HW257587   4.304   1.398   6.166  1.7424 -1.0991  0.9845
18716SOL     OW57588   2.883   0.461   7.462 -0.2366  0.2939 -0.2704
18716SOL    HW157589   2.843   0.490   7.544 -0.3536 -0.7844  0.0689
18716SOL    HW257590   2.921   0.376   7.483 -0.2181  0.0288 -1.3243
18717SOL     OW57591   3.138   4.280  11.186  0.4351  0.4271  0.0512
18717SOL    HW157592   3.065   4.313  11.238  0.8407 -0.0402  0.9370
18717SOL    HW257593   3.096   4.231  11.116 -0.1430 -1.9357  1.9195
18718SOL     OW57594   2.131   6.753   2.449  0.3686 -0.2892 -0.1680
18718SOL    HW157595   2.157   6.844   2.438  0.6064 -0.3472 -0.0790
18718SOL    HW257596   2.057   6.756   2.509  0.5579 -0.1820  0.0591
18719SOL     OW57597   1.402   4.532   9.846  0.4067 -0.0622  0.3813
18719SOL    HW157598   1.495   4.512   9.832 -0.0139 -2.3787  0.4731
18719SOL    HW257599   1.356   4.477   9.783 -0.9145  1.5571 -0.1363
18720SOL     OW57600   6.388   0.441   3.510 -0.0553  0.0324 -0.0669
18720SOL    HW157601   6.366   0.348   3.508 -1.0422  0.2429  0.5061
18720SOL    HW257602   6.484   0.443   3.507 -0.0134 -1.0125  0.2719
18721SOL     OW57603   0.905   0.029   3.117  0.6566 -0.1627  0.4886
18721SOL    HW157604   0.826  -0.022   3.136 -0.1336  0.4103 -1.1308
18721SOL    HW257605   0.976  -0.023   3.154 -0.5014 -0.4130  2.5117
18722SOL     OW57606   1.153   6.793   2.408 -0.6323 -0.1197 -0.5446
18722SOL    HW157607   1.199   6.873   2.432 -0.5062 -0.2398 -0.3786
18722SOL    HW257608   1.149   6.742   2.489 -2.0021  0.3489 -0.2882
18723SOL     OW57609   1.899   2.085  12.198 -0.7999  0.3127 -0.1947
18723SOL    HW157610   1.843   2.098  12.121 -0.1373  0.5499 -0.6522
18723SOL    HW257611   1.840   2.090  12.273 -2.0227 -2.9244 -0.7548
18724SOL     OW57612   7.136   3.707   1.650 -0.1081 -0.1593 -0.5570
18724SOL    HW157613   7.094   3.622   1.644  0.4053 -0.3768 -1.2541
18724SOL    HW257614   7.093   3.751   1.724 -0.0903 -1.1736  0.0688
18725SOL     OW57615   7.409   0.243  10.066 -0.1564 -0.1778 -0.0598
18725SOL    HW157616   7.486   0.275  10.114 -0.3067 -2.0044  1.5275
18725SOL    HW257617   7.444   0.208   9.985  0.4647  0.4491 -0.0800
18726SOL     OW57618   1.722   2.844   5.622 -0.2923 -0.4959  0.3150
18726SOL    HW157619   1.770   2.870   5.701  0.5964  1.2315 -0.7318
18726SOL    HW257620   1.780   2.782   5.578  0.0451 -0.0512  0.1224
18727SOL     OW57621   3.979   7.315   1.442 -0.4203  0.0406  0.0309
18727SOL    HW157622   3.964   7.293   1.350 -0.2625 -0.9906  0.2403
18727SOL    HW257623   3.893   7.340   1.476 -0.2227  2.0895 -0.7902
18728SOL     OW57624   3.454   2.512   0.492  0.2683 -0.2646 -0.1519
18728SOL    HW157625   3.510   2.579   0.453  0.9432  0.0098  1.2178
18728SOL    HW257626   3.495   2.429   0.469  0.1690 -0.1544 -0.7443
18729SOL     OW57627   1.867   4.674   3.840  0.4084  0.2773  0.3421
18729SOL    HW157628   1.805   4.630   3.783  2.0915  0.2166 -1.5694
18729SOL    HW257629   1.819   4.748   3.876 -0.8820  0.0240 -0.7921
18730SOL     OW57630   3.564   1.203   6.678  0.6949  0.2239 -0.0521
18730SOL    HW157631   3.529   1.122   6.714  1.4155 -0.1483 -0.1713
18730SOL    HW257632   3.575   1.260   6.754  0.9124 -0.0655  0.1326
18731SOL     OW57633   1.924   6.289   1.085 -0.2937 -0.6837 -0.4298
18731SOL    HW157634   1.835   6.319   1.066 -0.2165 -1.0156 -1.3284
18731SOL    HW257635   1.933   6.301   1.180 -2.0229 -2.5758  0.0345
18732SOL     OW57636   0.752   3.360   6.193  0.0216  0.7974  0.3496
18732SOL    HW157637   0.796   3.291   6.243 -0.8905  1.0137  1.4963
18732SOL    HW257638   0.747   3.325   6.104  0.3846 -0.2359  0.7151
18733SOL     OW57639   1.235   6.470   4.214  0.3079 -0.3223  0.5543
18733SOL    HW157640   1.201   6.558   4.203  0.2699 -0.5336 -1.3011
18733SOL    HW257641   1.158   6.415   4.225  0.0786 -0.5552 -1.8056
18734SOL     OW57642   2.493   0.503   3.948  0.2593  0.1740 -0.2758
18734SOL    HW157643   2.481   0.409   3.934 -1.3899  0.3570 -0.2558
18734SOL    HW257644   2.588   0.514   3.954  0.4714 -1.5541  0.2087
18735SOL     OW57645   1.134   7.130   4.422  0.2705 -0.1229  0.1494
18735SOL    HW157646   1.126   7.052   4.367 -1.4106 -0.1527  0.3802
18735SOL    HW257647   1.091   7.200   4.373  0.2377  0.2493  0.6931
18736SOL     OW57648   5.634   2.786   8.224  0.4783 -0.5405 -0.2012
18736SOL    HW157649   5.660   2.871   8.188  0.0564 -0.2196  0.2322
18736SOL    HW257650   5.646   2.795   8.318 -0.7520 -0.5221 -0.0262
18737SOL     OW57651   7.838   7.336   4.361 -0.0107 -0.1226  1.2132
18737SOL    HW157652   7.816   7.327   4.268 -1.1601  1.0434  1.3470
18737SOL    HW257653   7.899   7.409   4.364 -0.2289  0.0529  1.4053
18738SOL     OW57654   5.861   1.712   8.400  0.1303 -0.5725  0.4106
18738SOL    HW157655   5.920   1.637   8.402 -0.4624 -1.0760 -0.3976
18738SOL    HW257656   5.918   1.787   8.381  0.4171 -1.1788 -1.3583
18739SOL     OW57657   4.098   6.153   8.259 -0.0106  0.4506 -0.5819
18739SOL    HW157658   4.099   6.088   8.329 -0.2669  0.6711 -0.3713
18739SOL    HW257659   4.056   6.109   8.185 -0.4744  0.4822 -0.3367
18740SOL     OW57660   5.188   2.474   3.430  0.2330 -0.0884  0.2036
18740SOL    HW157661   5.127   2.539   3.467 -1.5096 -1.4404 -0.1390
18740SOL    HW257662   5.233   2.521   3.360 -2.2075  0.3788 -1.1749
18741SOL     OW57663   4.943   7.346   2.815  0.1052  0.0277  0.6112
18741SOL    HW157664   5.034   7.347   2.846  0.0918  0.1467  0.6468
18741SOL    HW257665   4.925   7.437   2.792 -0.2876  0.1592  1.4127
18742SOL     OW57666   1.317   1.475  11.688 -0.4870 -0.5485 -0.8027
18742SOL    HW157667   1.317   1.424  11.770 -2.3630 -1.2979 -1.2206
18742SOL    HW257668   1.409   1.498  11.675 -0.0977 -0.6502  1.3610
18743SOL     OW57669   6.612   1.048  11.104 -0.3174  0.0409  0.4824
18743SOL    HW157670   6.623   1.115  11.036 -2.0158 -1.5737 -1.5547
18743SOL    HW257671   6.700   1.030  11.135  0.2231  2.9470  0.9000
18744SOL     OW57672   3.374   3.569   1.511 -0.2748 -0.4108 -0.1168
18744SOL    HW157673   3.317   3.554   1.586  1.0862 -0.5440  0.9378
18744SOL    HW257674   3.451   3.514   1.528  0.9660  1.1102 -0.5511
18745SOL     OW57675   2.413   7.747  10.315 -0.7425  0.4979  0.0212
18745SOL    HW157676   2.334   7.734  10.366 -0.6577  0.9554  0.2785
18745SOL    HW257677   2.414   7.675  10.252 -1.6219  0.7603 -0.3103
18746SOL     OW57678   7.912   2.504   0.584  0.3727 -0.4267  0.0508
18746SOL    HW157679   7.943   2.414   0.588  0.0924 -0.5935 -1.1501
18746SOL    HW257680   7.932   2.532   0.495  1.7141  1.1756  0.7922
18747SOL     OW57681   5.547   1.468   6.942  0.2337  0.4307 -0.7163
18747SOL    HW157682   5.483   1.443   6.874  0.2602  0.5363 -0.7803
18747SOL    HW257683   5.562   1.561   6.927  1.1842  0.1929 -1.3622
18748SOL     OW57684   1.076   7.024   1.086  0.4485 -0.0928  0.2480
18748SOL    HW157685   0.987   7.044   1.116 -1.1176 -1.2039 -3.1619
18748SOL    HW257686   1.073   7.037   0.991  3.6969 -1.0917 -0.1198
18749SOL     OW57687   4.441   0.916   9.504  0.1998  0.5338 -0.2464
18749SOL    HW157688   4.525   0.924   9.459  1.4268 -0.1733  1.8151
18749SOL    HW257689   4.462   0.879   9.589 -2.3214 -0.6334 -0.0231
18750SOL     OW57690   0.753   5.167   1.251  0.0816  0.2826  0.3176
18750SOL    HW157691   0.760   5.206   1.164 -1.5984 -1.2498 -0.5666
18750SOL    HW257692   0.818   5.096   1.250 -0.4099 -0.1715  0.0398
18751SOL     OW57693   1.125   7.298  11.586  0.3081 -0.0436  0.0142
18751SOL    HW157694   1.070   7.222  11.608  0.3387 -0.3214 -0.8339
18751SOL    HW257695   1.062   7.364  11.557  0.4203 -0.5388 -1.4690
18752SOL     OW57696   2.757   7.731  10.573  0.3862 -0.2548 -0.5997
18752SOL    HW157697   2.725   7.745  10.484  0.2276  0.4086 -0.4484
18752SOL    HW257698   2.685   7.685  10.617  0.6121 -0.9065 -0.9111
18753SOL     OW57699   6.387   1.277   8.000 -0.6886  0.2208 -0.3644
18753SOL    HW157700   6.437   1.196   7.985  2.1897  1.5560  1.1191
18753SOL    HW257701   6.427   1.341   7.942 -2.0356  0.9316 -0.5467
18754SOL     OW57702   6.060   0.467   4.121  0.1754  0.5167 -0.1230
18754SOL    HW157703   6.087   0.559   4.126  1.6203  0.1124 -0.1833
18754SOL    HW257704   6.042   0.453   4.028  0.3293  0.6451 -0.1733
18755SOL     OW57705   2.773   0.563   2.398 -0.5697 -0.2312  0.5822
18755SOL    HW157706   2.753   0.627   2.329  2.9760 -0.5042 -0.8991
18755SOL    HW257707   2.707   0.495   2.386 -2.4711  1.5855  0.1012
18756SOL     OW57708   5.738   6.228   9.651 -0.4408 -0.3182 -0.2369
18756SOL    HW157709   5.796   6.292   9.609  2.0791 -2.1024  0.3104
18756SOL    HW257710   5.730   6.259   9.741 -1.3026  0.5416 -0.5963
18757SOL     OW57711   0.675   6.203   9.612  0.4338 -0.0244 -0.1464
18757SOL    HW157712   0.600   6.258   9.633 -1.3719 -1.0979 -3.1877
18757SOL    HW257713   0.743   6.265   9.583 -0.1371  0.7983  0.2247
18758SOL     OW57714   7.397   0.768   2.053 -0.0492  0.7370 -0.3269
18758SOL    HW157715   7.474   0.740   2.003 -0.1092  0.8844 -0.5009
18758SOL    HW257716   7.385   0.860   2.031  0.8247  1.2381  1.1222
18759SOL     OW57717   7.297   4.943   2.613 -0.2615 -0.1555 -0.1581
18759SOL    HW157718   7.302   4.984   2.526 -0.6954  0.8719  0.2915
18759SOL    HW257719   7.300   4.849   2.595 -1.7972 -0.0061 -1.3890
18760SOL     OW57720   7.602   3.258   8.637  0.2422  0.3370  0.7343
18760SOL    HW157721   7.595   3.244   8.542 -1.9357 -0.9962  1.0306
18760SOL    HW257722   7.685   3.216   8.660 -0.8009 -2.4865 -0.1470
18761SOL     OW57723   5.147   5.416   2.119 -0.4679 -0.3129 -0.9949
18761SOL    HW157724   5.232   5.459   2.124 -1.1258  0.9548 -0.2650
18761SOL    HW257725   5.148   5.350   2.188 -0.8482  1.1865  0.5066
18762SOL     OW57726   2.181   1.120   8.052  0.2235  0.5435  0.1028
18762SOL    HW157727   2.116   1.179   8.014  1.5838  0.8295 -1.9214
18762SOL    HW257728   2.134   1.038   8.066 -0.8972  1.1367 -0.0929
18763SOL     OW57729   5.244   7.968   0.662  0.4267 -0.0548 -0.6128
18763SOL    HW157730   5.235   7.990   0.755 -0.3206  0.9995 -0.9158
18763SOL    HW257731   5.297   7.889   0.662  2.0046  0.9197  0.6441
18764SOL     OW57732   3.622   6.966   6.124  0.1221 -0.3512 -0.4898
18764SOL    HW157733   3.670   7.042   6.091 -0.0013  0.2489  0.6511
18764SOL    HW257734   3.630   6.972   6.220 -1.6622 -0.5643 -0.2768
18765SOL     OW57735   0.416   4.585   5.112  0.3744 -0.3306  0.3076
18765SOL    HW157736   0.483   4.563   5.047 -1.3299 -2.4651 -0.8716
18765SOL    HW257737   0.456   4.562   5.196  1.1927 -1.4212 -0.3464
18766SOL     OW57738   0.244   3.143   2.076 -0.1010  0.5056  0.3603
18766SOL    HW157739   0.284   3.091   2.146 -1.1652  0.5281  1.0218
18766SOL    HW257740   0.297   3.124   1.999  0.7676  0.0406  1.0474
18767SOL     OW57741   3.089   0.911   9.156 -0.6516 -0.5187  0.5234
18767SOL    HW157742   3.012   0.954   9.193 -0.3254  0.8819 -0.3316
18767SOL    HW257743   3.157   0.923   9.222 -0.3278  1.1135 -0.0706
18768SOL     OW57744   0.692   5.689   1.303 -0.3199  0.4754 -0.4884
18768SOL    HW157745   0.677   5.716   1.394 -0.0496  2.1844 -0.9150
18768SOL    HW257746   0.730   5.601   1.310  3.0405  1.9009  1.2785
18769SOL     OW57747   2.550   7.336   9.729  0.0764  0.2971 -0.1722
18769SOL    HW157748   2.573   7.386   9.650  0.3803 -1.5675 -1.3329
18769SOL    HW257749   2.533   7.248   9.696  1.6267 -0.8997  2.0589
18770SOL     OW57750   3.197   6.574   6.787 -0.0180  0.1576  0.2169
18770SOL    HW157751   3.127   6.608   6.843  0.3157  0.7356  0.2925
18770SOL    HW257752   3.154   6.509   6.731  0.1469 -2.4804  2.9572
18771SOL     OW57753   1.726   4.706   1.525  0.2966 -0.6377  0.2803
18771SOL    HW157754   1.694   4.677   1.610  0.8086 -2.2851 -0.0515
18771SOL    HW257755   1.821   4.689   1.528  0.6397  1.1021  0.0796
18772SOL     OW57756   0.493   4.781   6.809 -0.2758  0.5258 -0.2374
18772SOL    HW157757   0.499   4.801   6.902 -0.2533 -0.7011  0.0394
18772SOL    HW257758   0.570   4.822   6.770 -0.6153  1.5794  0.1666
18773SOL     OW57759   6.794   6.729   2.356  0.0181  0.2936  0.0827
18773SOL    HW157760   6.827   6.710   2.268  0.6379 -0.9526  0.5552
18773SOL    HW257761   6.842   6.669   2.413 -4.0248 -2.9029  0.6842
18774SOL     OW57762   2.506   4.981   7.647 -0.1685  0.1423 -0.4477
18774SOL    HW157763   2.552   4.898   7.642  0.1391  0.3679 -1.5597
18774SOL    HW257764   2.525   5.025   7.565 -0.1067  1.4405  0.2279
18775SOL     OW57765   6.605   3.969   6.701  0.0702  0.1287 -0.2220
18775SOL    HW157766   6.658   3.989   6.778 -2.1761  0.5743  1.2900
18775SOL    HW257767   6.536   4.036   6.701  0.0390  0.1745 -2.6780
18776SOL     OW57768   0.684   6.493   3.836  0.1503 -0.4225 -0.2365
18776SOL    HW157769   0.762   6.506   3.782  0.2619  1.1173  0.2452
18776SOL    HW257770   0.719   6.467   3.922  0.0761 -0.8055 -0.3213
18777SOL     OW57771   6.921   2.029  10.007 -0.2521  0.0075 -0.1034
18777SOL    HW157772   6.953   2.009   9.919  0.2547  1.6530 -0.3134
18777SOL    HW257773   6.825   2.029   9.998 -0.2089 -0.0850 -0.5937
18778SOL     OW57774   1.170   6.018  10.316  0.4426  0.0661  0.6735
18778SOL    HW157775   1.120   6.027  10.397 -1.4225 -0.0345 -0.3958
18778SOL    HW257776   1.160   6.102  10.271  1.8618  0.2913  0.7346
18779SOL     OW57777   3.378   1.104   2.339  0.2818  0.4869  0.3294
18779SOL    HW157778   3.408   1.027   2.291  0.1822  0.8309 -0.3034
18779SOL    HW257779   3.304   1.074   2.391  0.5931  0.0337  0.5139
18780SOL     OW57780   3.204   1.080   8.930 -0.0537  0.2035 -0.4459
18780SOL    HW157781   3.280   1.051   8.881 -0.0277  0.0891 -0.3380
18780SOL    HW257782   3.211   1.037   9.015  0.6353  1.4697  0.1674
18781SOL     OW57783   7.828   7.588   7.541 -0.3948  0.2365 -0.2229
18781SOL    HW157784   7.753   7.574   7.599  0.6137 -0.8691  0.8748
18781SOL    HW257785   7.900   7.611   7.600  1.1872 -2.9210 -0.7112
18782SOL     OW57786   7.006   1.648   6.546 -0.5215  0.2669  0.1607
18782SOL    HW157787   7.031   1.734   6.512  1.4905 -1.0969 -2.1495
18782SOL    HW257788   6.943   1.614   6.482 -0.2048 -0.5008  0.2373
18783SOL     OW57789   4.717   3.771  12.281 -0.1336  0.6395  0.6136
18783SOL    HW157790   4.779   3.770  12.354  1.4960 -1.1710 -0.7150
18783SOL    HW257791   4.675   3.685  12.285  0.2901  0.3555 -0.8401
18784SOL     OW57792   5.080   0.761  12.375  0.5955  0.3753 -0.1554
18784SOL    HW157793   5.175   0.751  12.380  0.7395  0.8513 -1.4806
18784SOL    HW257794   5.066   0.827  12.306 -0.6917  0.2821 -0.0167
18785SOL     OW57795   2.416   7.933   9.374  0.1839  0.4876 -0.1251
18785SOL    HW157796   2.398   8.015   9.419  1.3568  1.2311 -0.9450
18785SOL    HW257797   2.442   7.873   9.444 -0.6512  0.8220  0.4776
18786SOL     OW57798   1.976   7.658  11.282 -0.6655 -0.1360  0.3179
18786SOL    HW157799   2.042   7.658  11.212 -0.1491  1.7126  0.7395
18786SOL    HW257800   1.913   7.724  11.255 -0.1541  1.0223  1.8318
18787SOL     OW57801   5.149   4.656   6.224 -0.0430 -0.1803 -0.0847
18787SOL    HW157802   5.202   4.686   6.297  2.9079 -1.5185 -1.4928
18787SOL    HW257803   5.064   4.636   6.262  1.2192 -0.3822  2.8977
18788SOL     OW57804   5.281   2.499  12.454  0.4027  0.1744 -0.7709
18788SOL    HW157805   5.210   2.515  12.516 -0.4574  1.4083 -2.0170
18788SOL    HW257806   5.353   2.555  12.484  0.3375  0.0402 -0.3570
18789SOL     OW57807   2.846   6.531   0.839 -0.1614  0.1181 -0.0735
18789SOL    HW157808   2.836   6.602   0.776 -0.9000  0.5488  0.5275
18789SOL    HW257809   2.779   6.546   0.905  0.6361 -0.2977  0.8638
18790SOL     OW57810   0.552   6.813   2.087 -0.1711  0.0648 -0.4944
18790SOL    HW157811   0.627   6.847   2.135 -0.9042 -1.0407  1.5586
18790SOL    HW257812   0.587   6.737   2.040  0.1786  0.0908 -0.2841
18791SOL     OW57813   3.489   4.211   4.164  0.0338  0.4677 -0.1635
18791SOL    HW157814   3.479   4.124   4.204  0.5360  1.3537  2.0543
18791SOL    HW257815   3.533   4.194   4.081  1.3118 -1.3101  0.7945
18792SOL     OW57816   5.424   0.555   3.881 -0.1491 -0.0498 -0.2189
18792SOL    HW157817   5.350   0.597   3.925  1.2460 -0.0028  2.2761
18792SOL    HW257818   5.482   0.627   3.857  1.8232 -0.2576  3.2659
18793SOL     OW57819   2.541   0.963   0.279  0.2395  0.5595  0.4516
18793SOL    HW157820   2.535   1.026   0.207 -1.0302  0.9686  0.8908
18793SOL    HW257821   2.617   0.993   0.330  0.9440  0.4573 -0.5142
18794SOL     OW57822   4.858   7.869   9.273  0.1851  0.1122 -0.0945
18794SOL    HW157823   4.909   7.926   9.216  0.5575 -0.4380 -0.3160
18794SOL    HW257824   4.804   7.818   9.214 -1.3738  1.3608  0.1693
18795SOL     OW57825   2.790   3.213   9.322  0.2154 -0.7771  0.5497
18795SOL    HW157826   2.774   3.195   9.415  1.5144 -1.6647  0.6233
18795SOL    HW257827   2.794   3.127   9.281  3.6837 -0.6729  0.3938
18796SOL     OW57828   5.206   6.184   3.242  0.5526  0.7265  0.4345
18796SOL    HW157829   5.120   6.224   3.225 -0.3387 -1.5307 -0.7876
18796SOL    HW257830   5.263   6.220   3.173 -0.7465 -1.4154 -1.9556
18797SOL     OW57831   6.865   6.597   8.684 -0.0815  0.5659  0.0852
18797SOL    HW157832   6.812   6.652   8.626  1.1006  1.4366 -0.2081
18797SOL    HW257833   6.851   6.508   8.652 -1.5638  0.7365  0.1897
18798SOL     OW57834   0.856   6.521   8.983  0.5457  0.3642 -0.3607
18798SOL    HW157835   0.789   6.566   8.931  1.8030  2.5977 -0.2038
18798SOL    HW257836   0.843   6.554   9.072  0.5937 -0.7519  0.0692
18799SOL     OW57837   4.550   6.075   1.107 -0.0729  0.3288 -0.1326
18799SOL    HW157838   4.520   6.095   1.196 -1.3771  0.3707 -0.5605
18799SOL    HW257839   4.478   6.102   1.051  0.2192 -0.8382 -1.1125
18800SOL     OW57840   2.474   3.967   8.355 -0.2126 -0.0085 -0.5342
18800SOL    HW157841   2.563   4.001   8.349 -0.0903 -0.2032  0.1093
18800SOL    HW257842   2.425   4.038   8.396 -0.0140 -0.4938  0.5649
18801SOL     OW57843   3.452   6.515   2.484  0.0160 -0.3221  0.0031
18801SOL    HW157844   3.537   6.471   2.496 -0.1854 -0.8122 -0.3367
18801SOL    HW257845   3.388   6.443   2.485 -0.3973  0.0503  0.2971
18802SOL     OW57846   5.127   1.328   6.787  0.7586  0.3664 -0.9083
18802SOL    HW157847   5.061   1.394   6.808  0.4313 -0.0613 -0.5589
18802SOL    HW257848   5.088   1.276   6.717  0.7857  0.2032 -0.8032
18803SOL     OW57849   5.895   7.154   9.189 -0.2066  0.6978 -0.0703
18803SOL    HW157850   5.895   7.089   9.260 -2.1947 -0.2390 -0.8355
18803SOL    HW257851   5.986   7.156   9.158 -0.2643 -2.7629 -0.8617
18804SOL     OW57852   3.600   6.703   7.201 -0.2776  0.0476 -0.0293
18804SOL    HW157853   3.507   6.690   7.185 -0.3023  0.6914 -0.4218
18804SOL    HW257854   3.625   6.774   7.142  0.5636 -0.4326 -0.2739
18805SOL     OW57855   4.701   4.310   9.496  0.4638  0.7107  0.0686
18805SOL    HW157856   4.795   4.328   9.496  0.5769  0.3397  2.0796
18805SOL    HW257857   4.681   4.290   9.404  1.7032  3.7698 -0.9930
18806SOL     OW57858   0.957   3.848   4.335 -0.2623 -0.5707  0.2749
18806SOL    HW157859   0.953   3.943   4.325  0.4796 -0.6722 -1.1675
18806SOL    HW257860   0.875   3.816   4.297 -0.8384 -0.4973  1.3897
18807SOL     OW57861   6.618   4.842   2.275  0.1011  0.3080  0.0331
18807SOL    HW157862   6.570   4.815   2.198  0.5651 -0.8382  0.1381
18807SOL    HW257863   6.709   4.816   2.259  0.8234  2.7312 -0.3110
18808SOL     OW57864   1.845   7.356   0.760 -0.0454 -0.1274  0.5058
18808SOL    HW157865   1.856   7.387   0.670  0.2776 -2.2585 -0.2268
18808SOL    HW257866   1.752   7.331   0.765 -0.2708  0.7817  1.0479
18809SOL     OW57867   4.472   1.954   8.227 -0.1678  0.2211  0.1830
18809SOL    HW157868   4.456   1.865   8.258  1.3153  0.4662  1.8276
18809SOL    HW257869   4.384   1.991   8.214 -0.8082 -1.6206 -1.1158
18810SOL     OW57870   5.740   1.386   0.553  0.7708 -0.3711  0.2578
18810SOL    HW157871   5.671   1.321   0.542 -1.2497  1.3503  1.8330
18810SOL    HW257872   5.699   1.469   0.528  1.9564  0.8185  2.0431
18811SOL     OW57873   6.721   6.305   5.646  0.2243 -0.1847 -0.7405
18811SOL    HW157874   6.633   6.293   5.682  0.1699 -0.4150 -0.9391
18811SOL    HW257875   6.725   6.397   5.622 -0.3093 -0.3690 -1.6002
18812SOL     OW57876   1.005   5.165   1.548  0.2495 -0.1131  0.4528
18812SOL    HW157877   0.988   5.083   1.594 -0.4701 -1.4021 -1.9757
18812SOL    HW257878   0.930   5.220   1.568  0.1252 -0.5009  1.0798
18813SOL     OW57879   2.025   2.590  10.827  0.2923  0.4508 -0.6311
18813SOL    HW157880   2.102   2.552  10.869 -0.2943  0.5743  0.6224
18813SOL    HW257881   1.956   2.524  10.838 -0.3325  1.2023  0.2113
18814SOL     OW57882   2.123   3.938   5.658  0.5825  0.0639  0.0986
18814SOL    HW157883   2.072   3.920   5.737 -0.5684  0.3401 -0.5653
18814SOL    HW257884   2.118   3.857   5.607  0.1274  0.3599 -0.3330
18815SOL     OW57885   2.687   2.682   3.216  0.2124  0.1237 -0.2016
18815SOL    HW157886   2.625   2.726   3.159 -1.2434 -0.0639  1.1746
18815SOL    HW257887   2.755   2.650   3.157 -0.3602  1.3674 -1.6113
18816SOL     OW57888   7.478   7.311   8.628 -0.1156 -0.2811  0.6554
18816SOL    HW157889   7.539   7.386   8.632 -1.1371  0.5208  1.8377
18816SOL    HW257890   7.403   7.344   8.580 -0.6211 -0.5118  1.2808
18817SOL     OW57891   7.697   7.852   3.245  0.0981  0.2899 -0.6618
18817SOL    HW157892   7.610   7.892   3.248 -0.1685 -0.3294  0.3607
18817SOL    HW257893   7.680   7.758   3.249  0.8213  0.1640 -0.4348
18818SOL     OW57894   0.901   5.622   9.589  0.1608  0.0655  0.0350
18818SOL    HW157895   0.850   5.686   9.639 -0.9657 -2.6888  2.7276
18818SOL    HW257896   0.987   5.622   9.629 -0.0964 -0.6331  0.6162
18819SOL     OW57897   0.518   2.498  12.218 -0.3073 -0.1291 -0.5096
18819SOL    HW157898   0.467   2.573  12.189 -1.8184 -1.3099 -1.0128
18819SOL    HW257899   0.454   2.428  12.232  1.0510 -1.3566 -0.1170
18820SOL     OW57900   5.180   1.555   5.828 -0.3623  0.0582 -0.1814
18820SOL    HW157901   5.167   1.482   5.888 -0.5746 -0.3140 -0.6798
18820SOL    HW257902   5.273   1.552   5.807 -0.2330  0.3479  0.3252
18821SOL     OW57903   4.517   7.112   9.291  0.2005  0.2015  0.0647
18821SOL    HW157904   4.459   7.068   9.352  1.0540  0.4172  1.0714
18821SOL    HW257905   4.569   7.171   9.346  0.0882  1.3906 -1.0482
18822SOL     OW57906   1.796   6.640   6.226 -0.2022 -0.4586 -0.1655
18822SOL    HW157907   1.885   6.660   6.197 -0.4315 -1.8371 -1.9474
18822SOL    HW257908   1.806   6.612   6.317  1.0280  0.3998 -0.0141
18823SOL     OW57909   0.024   3.788   8.071 -0.1610  0.5950  0.2871
18823SOL    HW157910   0.076   3.854   8.117 -1.0395  1.3531  0.2065
18823SOL    HW257911  -0.048   3.837   8.031 -2.0567 -0.6376  1.9741
18824SOL     OW57912   2.651   5.246   2.311  0.0250  0.6380 -0.0269
18824SOL    HW157913   2.741   5.279   2.307 -0.3654  1.7578  0.1516
18824SOL    HW257914   2.597   5.324   2.317 -0.9199 -0.0604  0.8158
18825SOL     OW57915   6.972   5.849   5.534  0.4085 -0.0434 -0.5379
18825SOL    HW157916   7.026   5.866   5.612 -2.5257  2.0640  1.2380
18825SOL    HW257917   7.023   5.885   5.461  2.8536 -1.2706  0.4580
18826SOL     OW57918   2.743   5.890   9.749  0.0549  0.3390  0.3133
18826SOL    HW157919   2.772   5.805   9.781 -2.4949 -1.6819 -2.1421
18826SOL    HW257920   2.795   5.905   9.670 -0.8027  0.0382 -0.3304
18827SOL     OW57921   0.495   6.507  10.313 -0.3885 -0.2957 -0.6147
18827SOL    HW157922   0.469   6.463  10.231 -0.0658 -0.4476 -0.6358
18827SOL    HW257923   0.443   6.588  10.313 -0.0605 -0.0751 -1.1933
18828SOL     OW57924   1.800   6.285  11.685 -0.0048 -0.1052 -0.1058
18828SOL    HW157925   1.771   6.371  11.717  0.8333  0.5503 -1.0275
18828SOL    HW257926   1.855   6.250  11.755  1.1769  0.9568 -0.4696
18829SOL     OW57927   1.319   7.530   1.094  0.1153  0.8639  0.5387
18829SOL    HW157928   1.234   7.574   1.097  0.3404  1.3402  0.0586
18829SOL    HW257929   1.323   7.482   1.176 -1.3104 -0.4992 -0.1476
18830SOL     OW57930   3.197   0.542   8.499 -0.4444  0.1873  0.3703
18830SOL    HW157931   3.229   0.629   8.477 -0.7291  0.5548  1.3919
18830SOL    HW257932   3.139   0.519   8.426  1.0158  0.0758 -0.8209
18831SOL     OW57933   3.318   1.300  11.566  0.0884 -0.1696  0.3114
18831SOL    HW157934   3.307   1.266  11.477 -0.4906  2.6177 -0.8055
18831SOL    HW257935   3.248   1.258  11.616 -1.3810  0.2271 -1.2729
18832SOL     OW57936   1.633   0.242  10.409 -0.9916  0.4675  0.1671
18832SOL    HW157937   1.643   0.150  10.385  1.1339  0.4571  0.8926
18832SOL    HW257938   1.698   0.288  10.356 -0.4129  1.2233  1.4952
18833SOL     OW57939   1.911   0.413   9.111 -0.2247 -0.5386  0.3556
18833SOL    HW157940   1.844   0.350   9.140 -0.2684 -1.4977 -1.6590
18833SOL    HW257941   1.960   0.366   9.044  0.5750  1.1695 -0.3096
18834SOL     OW57942   0.243   3.090   5.903  0.3767  0.8269 -0.0756
18834SOL    HW157943   0.257   3.071   5.996  1.1341 -0.8684 -0.5017
18834SOL    HW257944   0.161   3.140   5.901 -0.2083 -0.0063  1.4039
18835SOL     OW57945   6.298   5.869   7.384 -0.3612  0.0300 -0.0455
18835SOL    HW157946   6.312   5.963   7.372  1.5877  0.3585  3.4869
18835SOL    HW257947   6.218   5.863   7.437  0.3039 -0.1324  0.9774
18836SOL     OW57948   6.649   2.542   0.706 -0.0299 -0.0955  0.3724
18836SOL    HW157949   6.675   2.554   0.615 -0.2682 -1.6377  0.0714
18836SOL    HW257950   6.724   2.498   0.746 -0.9243 -1.9030  0.2117
18837SOL     OW57951   6.147   5.365   8.688  0.3877 -0.4144  0.7210
18837SOL    HW157952   6.059   5.392   8.661  0.5191 -0.8920 -0.2165
18837SOL    HW257953   6.160   5.280   8.647  0.6330 -1.1599  2.2523
18838SOL     OW57954   3.229   6.497   7.908  0.0318 -0.2278 -0.1945
18838SOL    HW157955   3.313   6.536   7.883  0.3585 -1.3355 -0.9486
18838SOL    HW257956   3.239   6.477   8.001  0.4605 -0.0045 -0.1891
18839SOL     OW57957   0.110   1.454  10.055 -0.3006 -0.4475  0.2662
18839SOL    HW157958   0.018   1.444  10.031  0.3825 -2.0842 -2.0270
18839SOL    HW257959   0.139   1.366  10.078  0.9697 -0.1649 -0.1783
18840SOL     OW57960   0.829   6.030   3.110  0.2577 -0.1836  0.4128
18840SOL    HW157961   0.818   6.120   3.079 -1.6076 -0.8925 -1.2180
18840SOL    HW257962   0.908   5.999   3.066 -0.8972 -0.3122 -1.7280
18841SOL     OW57963   0.825   2.478   1.604  0.2744 -0.1560 -0.1676
18841SOL    HW157964   0.871   2.561   1.594 -2.3349  1.1060 -4.1883
18841SOL    HW257965   0.821   2.442   1.515  0.6832 -4.3432  1.2882
18842SOL     OW57966   7.555   0.523   2.365  0.0554  0.1312 -0.4734
18842SOL    HW157967   7.480   0.559   2.318  0.0504  0.2588 -0.3679
18842SOL    HW257968   7.629   0.576   2.335 -0.3293  1.9928  1.6272
18843SOL     OW57969   4.329   1.191   8.520  0.4485 -0.3207 -0.0739
18843SOL    HW157970   4.399   1.243   8.482 -0.0792 -0.9825 -2.0526
18843SOL    HW257971   4.248   1.236   8.495  0.0403 -1.4221 -0.8216
18844SOL     OW57972   6.581   5.414  10.947  0.0020 -0.3983  0.3015
18844SOL    HW157973   6.632   5.339  10.978 -1.8318 -1.4229  0.9334
18844SOL    HW257974   6.605   5.422  10.855  1.6997 -0.4869  0.6924
18845SOL     OW57975   0.538   2.053  11.732 -0.3749 -0.1162 -0.2319
18845SOL    HW157976   0.618   2.015  11.695 -0.5548 -0.1595 -0.5823
18845SOL    HW257977   0.525   2.134  11.682  0.1830  0.5833  0.7235
18846SOL     OW57978   4.153   5.137  11.748 -0.7468  0.2953 -0.4661
18846SOL    HW157979   4.125   5.208  11.806  0.1598  1.4434 -1.3764
18846SOL    HW257980   4.244   5.159  11.727  0.1749 -2.1112  0.6472
18847SOL     OW57981   3.934   1.029   3.479 -0.1838  0.0514 -0.0599
18847SOL    HW157982   3.984   0.962   3.525  0.8619  1.4263  0.8750
18847SOL    HW257983   3.899   1.085   3.548 -0.5442  0.8097 -0.8333
18848SOL     OW57984   7.793   3.213   6.803  0.0374  0.0339 -0.1013
18848SOL    HW157985   7.858   3.251   6.862  0.0758 -0.5159  0.2216
18848SOL    HW257986   7.823   3.123   6.789 -0.5978 -0.1963 -0.0267
18849SOL     OW57987   6.664   0.113   9.237 -0.3362  0.5522 -0.3798
18849SOL    HW157988   6.594   0.172   9.266 -0.7097  0.1613 -0.4805
18849SOL    HW257989   6.646   0.098   9.144 -1.2309 -1.0625  0.0235
18850SOL     OW57990   2.915   7.385  12.279  0.3800 -0.4229  0.2857
18850SOL    HW157991   2.928   7.303  12.231 -1.5481 -0.0993 -0.8947
18850SOL    HW257992   2.886   7.447  12.212 -1.1477  0.4009  1.6470
18851SOL     OW57993   2.388   0.808   8.201 -0.0072  0.7199  0.4675
18851SOL    HW157994   2.426   0.895   8.205 -0.7398  1.0417  0.6827
18851SOL    HW257995   2.303   0.822   8.159 -0.7527  0.3365  1.8060
18852SOL     OW57996   4.767   7.702   1.461  0.0441  0.3925 -0.1056
18852SOL    HW157997   4.765   7.630   1.524  4.5565  0.2740  0.2210
18852SOL    HW257998   4.717   7.670   1.386 -1.7892 -1.2146  1.6738
18853SOL     OW57999   2.601   7.008  11.228  0.3806  0.2534  0.3535
18853SOL    HW158000   2.568   6.985  11.315 -0.4362  0.9626  0.2494
18853SOL    HW258001   2.524   7.041  11.181  0.6665 -0.7117 -0.8597
18854SOL     OW58002   2.706   2.012  10.689  0.3899  0.1116  0.0828
18854SOL    HW158003   2.695   2.082  10.624  0.3049  1.2249  1.2392
18854SOL    HW258004   2.637   1.950  10.671  0.1327  0.6040 -0.6517
18855SOL     OW58005   0.797   4.502   5.338  0.3085 -0.0832 -0.0354
18855SOL    HW158006   0.702   4.502   5.347  0.2848  0.8137 -0.2161
18855SOL    HW258007   0.831   4.499   5.427  0.1072  0.0440  0.0444
18856SOL     OW58008   1.929   6.007   5.095  0.8670  0.7575  0.1053
18856SOL    HW158009   1.932   6.023   5.190  1.0312  1.6074 -0.0304
18856SOL    HW258010   2.017   5.975   5.074  0.2991 -1.1692  0.5091
18857SOL     OW58011   1.686   1.845   0.499  0.1444  0.9267  0.2147
18857SOL    HW158012   1.665   1.837   0.406  0.4559  2.3325  0.0008
18857SOL    HW258013   1.780   1.831   0.503 -0.0900 -0.6931  0.5463
18858SOL     OW58014   7.423   7.600   4.010  0.3919 -0.0439 -0.4267
18858SOL    HW158015   7.447   7.607   3.918  0.7734 -0.6301 -0.3743
18858SOL    HW258016   7.331   7.626   4.013  0.0496 -1.1260 -1.1451
18859SOL     OW58017   1.000   3.359   8.157  0.5062 -0.6246  0.3876
18859SOL    HW158018   1.030   3.282   8.108  1.0678 -0.3885  0.3494
18859SOL    HW258019   0.914   3.334   8.190  0.1940 -0.8591 -0.5636
18860SOL     OW58020   0.225   0.478   3.317 -0.2496  0.1491 -0.6488
18860SOL    HW158021   0.154   0.519   3.269 -1.6844 -0.7393  0.6454
18860SOL    HW258022   0.247   0.540   3.386  1.9493  1.5177 -2.4035
18861SOL     OW58023   0.649   5.856   9.837  0.4701  0.6322 -0.0094
18861SOL    HW158024   0.678   5.880   9.749 -0.8771 -1.4718 -1.1141
18861SOL    HW258025   0.730   5.858   9.889  2.2543 -2.1499 -2.2956
18862SOL     OW58026   7.870   7.629   2.459  0.0683  0.0411 -0.3333
18862SOL    HW158027   7.939   7.639   2.526  0.6614  0.3162 -0.9718
18862SOL    HW258028   7.832   7.716   2.451  0.5577  0.2064 -0.9376
18863SOL     OW58029   7.278   0.911   6.928 -0.6631 -0.3722  0.2689
18863SOL    HW158030   7.302   1.001   6.949  0.6694 -0.3509 -1.1437
18863SOL    HW258031   7.326   0.858   6.992 -1.0551 -0.1203  0.7837
18864SOL     OW58032   3.834   7.551  11.880  0.6628  0.3432 -0.3209
18864SOL    HW158033   3.852   7.458  11.864 -0.3829  0.0331  0.1472
18864SOL    HW258034   3.750   7.550  11.926  0.1537  1.5828 -1.1867
18865SOL     OW58035   5.806   3.341   1.185  0.1988  1.0788  0.4826
18865SOL    HW158036   5.731   3.397   1.206 -1.6634 -0.8623 -0.6667
18865SOL    HW258037   5.829   3.365   1.096  0.5995  1.2784  0.6382
18866SOL     OW58038   2.459   4.386   4.635  0.1424 -0.7286 -0.3065
18866SOL    HW158039   2.413   4.462   4.670  1.2606  0.9432 -2.2320
18866SOL    HW258040   2.391   4.335   4.590 -0.5166 -0.5813  0.4918
18867SOL     OW58041   5.034   4.969   4.804  0.0127 -0.0918  0.6359
18867SOL    HW158042   5.124   4.937   4.806  0.7407  1.8775  1.7004
18867SOL    HW258043   5.016   4.995   4.894 -1.7744 -0.7591  0.5076
18868SOL     OW58044   0.161   6.001   9.329  0.7547  0.7092  0.5172
18868SOL    HW158045   0.232   5.985   9.391  1.1344 -0.3695 -0.1637
18868SOL    HW258046   0.096   6.051   9.379  1.7911  1.3351  1.2718
18869SOL     OW58047   3.987   4.031   5.793  0.1133 -0.3987  0.5726
18869SOL    HW158048   3.893   4.047   5.787  0.0823 -1.2379 -2.1589
18869SOL    HW258049   3.994   3.943   5.832 -0.2647 -0.7113 -0.0603
18870SOL     OW58050   7.654   6.744   1.435  0.6334 -0.2757  0.6099
18870SOL    HW158051   7.729   6.757   1.377  1.3296  0.8579  1.6985
18870SOL    HW258052   7.648   6.826   1.484 -1.0319 -0.5403  0.8902
18871SOL     OW58053   6.956   4.197   4.098  0.1618 -0.0425  0.3079
18871SOL    HW158054   6.942   4.265   4.163  1.2660  0.1076  0.4115
18871SOL    HW258055   7.031   4.227   4.047 -2.8527  1.7719 -3.6529
18872SOL     OW58056   6.447   5.594   9.620 -0.0864  0.5776  0.2278
18872SOL    HW158057   6.351   5.598   9.625 -0.1783  0.8591 -1.3497
18872SOL    HW258058   6.466   5.592   9.526  1.4157 -0.8598  0.5171
18873SOL     OW58059   1.470   7.922  10.941  0.3602 -0.2201  0.1419
18873SOL    HW158060   1.389   7.874  10.955  0.9112 -0.9990  0.7929
18873SOL    HW258061   1.483   7.971  11.022 -0.0130  0.7651 -0.3800
18874SOL     OW58062   2.123   3.910   8.834  0.3126 -0.3603 -0.1970
18874SOL    HW158063   2.176   3.918   8.913 -0.9590 -0.5167  0.6881
18874SOL    HW258064   2.177   3.951   8.766  1.0069  0.6829  0.9296
18875SOL     OW58065   1.192   3.312  12.088 -0.2125 -0.4256  0.1778
18875SOL    HW158066   1.166   3.337  12.176  1.1655  0.5563  0.3332
18875SOL    HW258067   1.115   3.330  12.034 -0.5044  0.5742  0.9068
18876SOL     OW58068   5.629   7.544  11.519 -0.0038  0.2879 -0.2327
18876SOL    HW158069   5.606   7.633  11.491  1.2048  0.2271 -1.5232
18876SOL    HW258070   5.653   7.499  11.439  1.6103 -0.5285  0.6649
18877SOL     OW58071   1.127   7.012  11.021 -0.0783 -0.1670 -0.4352
18877SOL    HW158072   1.079   7.016  11.104 -0.1931  2.6210 -0.5396
18877SOL    HW258073   1.068   6.965  10.962  0.2575 -2.7402  1.1389
18878SOL     OW58074   0.616   2.239  11.289 -0.5591 -0.6723 -0.7862
18878SOL    HW158075   0.529   2.253  11.250 -1.0998  2.4694  1.1436
18878SOL    HW258076   0.609   2.156  11.336 -2.8581 -0.1031  0.0110
18879SOL     OW58077   4.646   1.651   5.492 -0.0899 -0.8823 -0.3993
18879SOL    HW158078   4.646   1.626   5.400  0.2879  3.2972 -1.7274
18879SOL    HW258079   4.557   1.683   5.509  0.7912  1.9197 -0.5632
18880SOL     OW58080   6.333   2.950   0.638  0.2131  0.0988 -0.4172
18880SOL    HW158081   6.394   2.919   0.705  1.8887  0.3115 -1.7512
18880SOL    HW258082   6.388   2.963   0.560 -1.2618  1.8050 -1.2640
18881SOL     OW58083   1.694   0.249   4.361  0.0466 -0.1234  0.7208
18881SOL    HW158084   1.677   0.193   4.286  1.3421 -1.2440  1.2278
18881SOL    HW258085   1.657   0.202   4.435  0.2943  0.1522  1.0227
18882SOL     OW58086   3.264   6.928   8.018 -0.7795  0.1194 -0.0422
18882SOL    HW158087   3.248   6.894   8.106  0.1076  3.1027  1.3944
18882SOL    HW258088   3.358   6.945   8.016 -1.1026  2.1343 -0.7013
18883SOL     OW58089   0.458   6.324   6.890  0.1531 -0.2016 -0.5845
18883SOL    HW158090   0.512   6.385   6.938 -0.3233  0.5820 -1.0262
18883SOL    HW258091   0.454   6.246   6.945  0.2395  0.4015  0.2850
18884SOL     OW58092   3.447   1.372  11.010 -0.0167 -0.1040 -0.3405
18884SOL    HW158093   3.442   1.450  10.955 -0.4578 -0.0874 -0.2781
18884SOL    HW258094   3.467   1.300  10.949  0.0306 -0.0012 -0.4456
18885SOL     OW58095   0.313   1.221   2.353  0.7011  0.2417 -0.1098
18885SOL    HW158096   0.322   1.128   2.331  1.4006  0.2472  0.1220
18885SOL    HW258097   0.370   1.233   2.429  0.5547  0.8443 -0.0913
18886SOL     OW58098   1.891   0.633   0.846  0.0648 -0.2090  0.4611
18886SOL    HW158099   1.939   0.644   0.928 -0.6997  1.2229  0.7406
18886SOL    HW258100   1.905   0.716   0.799  0.1303 -0.8435 -0.6718
18887SOL     OW58101   1.667   5.687   6.551 -0.5285  0.0160  0.6791
18887SOL    HW158102   1.598   5.626   6.526 -0.7591  0.3581  0.4804
18887SOL    HW258103   1.715   5.704   6.470 -0.2262 -0.2034  0.8116
18888SOL     OW58104   4.840   5.950   8.144 -0.3476 -0.1667 -0.9188
18888SOL    HW158105   4.818   5.879   8.204  1.3640  1.6141  2.0631
18888SOL    HW258106   4.755   5.987   8.118 -1.1852  0.3179  2.1862
18889SOL     OW58107   6.526   0.061   1.736  0.9930 -0.2256 -0.4877
18889SOL    HW158108   6.587   0.023   1.800 -0.1414  0.6994  1.2242
18889SOL    HW258109   6.580   0.119   1.683  1.6456  0.5836  1.0015
18890SOL     OW58110   0.778   4.793   3.186  0.1906  0.4749  0.0100
18890SOL    HW158111   0.803   4.882   3.165  0.7720 -0.1027 -1.9867
18890SOL    HW258112   0.857   4.753   3.221 -0.3995  1.0388  2.1173
18891SOL     OW58113   6.406   6.189   0.227 -0.0610  0.6241  0.1617
18891SOL    HW158114   6.440   6.236   0.151  0.6106  0.1328  0.1413
18891SOL    HW258115   6.314   6.175   0.208 -0.7907  3.6344  1.0455
18892SOL     OW58116   4.748   0.979   7.847 -0.0833  0.4162 -0.7167
18892SOL    HW158117   4.722   1.033   7.772  2.8661  0.7062 -1.6737
18892SOL    HW258118   4.748   0.890   7.812  0.3116  0.4391 -0.7820
18893SOL     OW58119   3.084   3.504   8.641  0.3556  0.4666  0.4440
18893SOL    HW158120   3.115   3.415   8.625  0.3804  0.6516 -0.5928
18893SOL    HW258121   3.147   3.540   8.704  1.2608  0.2684 -0.3297
18894SOL     OW58122   2.767   3.549   7.982  0.3116  0.2583  0.0940
18894SOL    HW158123   2.826   3.604   7.931  0.5024 -0.0265  0.0071
18894SOL    HW258124   2.797   3.560   8.073  1.3382 -0.8830 -0.0699
18895SOL     OW58125   5.934   2.357   8.224 -0.1118  0.4396  0.4493
18895SOL    HW158126   5.962   2.305   8.148 -1.6139  1.3687 -0.8059
18895SOL    HW258127   5.839   2.343   8.228 -0.7905  3.9049 -0.6591
18896SOL     OW58128   7.313   4.160   5.678 -0.0669 -0.0666 -0.5123
18896SOL    HW158129   7.293   4.137   5.587  0.9490  0.3577 -0.8685
18896SOL    HW258130   7.236   4.134   5.727 -0.3755 -0.9115 -1.4045
18897SOL     OW58131   0.950   7.094  11.619 -0.1461 -0.2059 -0.2050
18897SOL    HW158132   0.857   7.090  11.642  0.5985 -1.3966  3.2832
18897SOL    HW258133   0.985   7.009  11.647  2.1033  0.4602 -0.7846
18898SOL     OW58134   2.510   2.476   2.439 -0.1838  0.1145 -0.4336
18898SOL    HW158135   2.582   2.471   2.377  0.1211  0.4417 -0.1095
18898SOL    HW258136   2.488   2.569   2.444 -1.1697 -0.0687 -1.1385
18899SOL     OW58137   6.055   1.831   0.555 -0.4229 -0.1447  0.2575
18899SOL    HW158138   6.053   1.906   0.496 -0.7815  0.8232  1.4624
18899SOL    HW258139   6.122   1.853   0.619  0.1868 -1.3264  0.0437
18900SOL     OW58140   2.458   6.178   7.887 -0.2191  0.3508 -0.3961
18900SOL    HW158141   2.458   6.112   7.957 -0.0006 -0.6588 -1.3259
18900SOL    HW258142   2.372   6.168   7.845 -0.6582  1.4787  0.1830
18901SOL     OW58143   3.558   6.925   8.060  0.1769  0.5583 -0.8440
18901SOL    HW158144   3.578   6.831   8.065 -1.8584  0.0891 -0.5838
18901SOL    HW258145   3.634   6.963   8.016  1.3332 -1.1103 -0.4020
18902SOL     OW58146   1.511   2.403   1.015 -0.2032  0.1052 -0.4502
18902SOL    HW158147   1.549   2.457   1.084  2.3532 -0.0468 -1.6373
18902SOL    HW258148   1.421   2.435   1.007  0.1813  1.7875  1.2470
18903SOL     OW58149   3.074   5.642   8.290  0.5296 -0.1868  0.7888
18903SOL    HW158150   3.102   5.727   8.327  1.0947  0.0938 -0.2574
18903SOL    HW258151   3.154   5.589   8.290  1.2719  0.7352 -2.5561
18904SOL     OW58152   2.319   5.628  11.535  0.1972  0.2678 -0.1970
18904SOL    HW158153   2.348   5.537  11.530  0.4831  0.4182 -1.8477
18904SOL    HW258154   2.241   5.625  11.591  0.9487 -0.7725  0.8478
18905SOL     OW58155   4.809   5.992   6.158 -0.1466  0.0837  0.2589
18905SOL    HW158156   4.826   5.914   6.104 -1.1984 -1.1003  1.5446
18905SOL    HW258157   4.859   6.062   6.116 -1.5349 -0.5410 -2.7257
18906SOL     OW58158   7.448   0.890   4.337 -0.0585 -0.2842 -0.0627
18906SOL    HW158159   7.446   0.794   4.337 -0.8225 -0.3090  2.0607
18906SOL    HW258160   7.429   0.914   4.246 -0.0564 -2.1285 -0.5872
18907SOL     OW58161   6.750   2.520   4.561 -0.2743 -0.1899  0.3157
18907SOL    HW158162   6.788   2.446   4.514 -1.8709 -0.3317 -0.8385
18907SOL    HW258163   6.714   2.482   4.641  1.0765 -0.2094  0.9460
18908SOL     OW58164   7.720   1.591   3.763 -0.2024  0.1396  0.1779
18908SOL    HW158165   7.792   1.613   3.822  0.0251  1.5728 -0.5895
18908SOL    HW258166   7.753   1.517   3.711  0.4031  0.2528  0.3964
18909SOL     OW58167   7.091   1.846   8.200  0.3045 -0.5657  0.1154
18909SOL    HW158168   7.042   1.789   8.260 -2.9797  1.4140 -0.4605
18909SOL    HW258169   7.095   1.796   8.118 -2.1115 -0.2803 -0.2425
18910SOL     OW58170   2.654   7.443   5.728 -0.3978 -0.3002 -0.3802
18910SOL    HW158171   2.590   7.514   5.719 -0.0435 -0.1296 -1.7075
18910SOL    HW258172   2.651   7.398   5.644  1.7244  0.1290 -0.7377
18911SOL     OW58173   7.415   2.075   3.468 -0.2282 -0.0472  0.2408
18911SOL    HW158174   7.495   2.052   3.421 -0.0649 -0.1842  0.5738
18911SOL    HW258175   7.414   2.014   3.543  1.7238  2.8033  2.8356
18912SOL     OW58176   3.918   3.339  11.762 -0.0176  0.2283  0.5192
18912SOL    HW158177   3.997   3.289  11.741  0.3867  0.7416  0.7889
18912SOL    HW258178   3.928   3.421  11.715  0.0245  0.6466  1.2513
18913SOL     OW58179   7.534   0.550   7.368  0.4184 -0.3413 -0.3902
18913SOL    HW158180   7.548   0.644   7.354 -0.2619 -0.4035 -1.6221
18913SOL    HW258181   7.442   0.535   7.347  0.2675 -1.1424  0.7177
18914SOL     OW58182   3.980   2.056   1.656 -0.3960  0.2706 -0.2560
18914SOL    HW158183   4.010   1.970   1.627  2.2468  0.9715  0.1268
18914SOL    HW258184   3.897   2.068   1.611  0.7088 -1.1506 -2.9294
18915SOL     OW58185   0.166   3.999   5.269  0.3478  0.3269 -0.1005
18915SOL    HW158186   0.133   4.081   5.231 -0.1570  0.4782  0.6363
18915SOL    HW258187   0.098   3.934   5.248  0.3962  0.2607 -0.0531
18916SOL     OW58188   4.396   6.309   6.773  0.3420  0.0924 -0.2029
18916SOL    HW158189   4.480   6.306   6.819  0.2289  2.1481  0.2324
18916SOL    HW258190   4.370   6.217   6.764  1.7353 -0.4996  1.3226
18917SOL     OW58191   7.096   2.057  12.238 -0.3340 -0.3469 -0.0340
18917SOL    HW158192   7.186   2.038  12.262 -0.0850  0.6990 -0.0774
18917SOL    HW258193   7.058   1.972  12.215  0.6162 -0.8013  0.0479
18918SOL     OW58194   5.870   3.043   5.152 -0.3393 -0.2005  0.1322
18918SOL    HW158195   5.857   3.026   5.246  0.5491  2.4065  0.8180
18918SOL    HW258196   5.788   3.016   5.111 -0.9203 -0.9769  1.6965
18919SOL     OW58197   4.392   4.462   0.651 -0.0876 -0.4692  0.1423
18919SOL    HW158198   4.432   4.549   0.652 -1.1268  0.0208  0.3500
18919SOL    HW258199   4.314   4.471   0.706 -1.7195 -0.7770 -1.9938
18920SOL     OW58200   6.493   4.469   7.975 -0.0548 -0.1579 -0.1519
18920SOL    HW158201   6.510   4.401   8.041  0.3904  0.1858  0.0916
18920SOL    HW258202   6.456   4.542   8.025 -0.0141 -0.0160 -0.3261
18921SOL     OW58203   6.615   0.099   3.596  0.3822  0.3694  0.4469
18921SOL    HW158204   6.648   0.100   3.686  0.8380  1.4774  0.2840
18921SOL    HW258205   6.523   0.123   3.604 -0.0954 -1.4326  0.7788
18922SOL     OW58206   2.480   1.049   8.189  0.1070 -0.5339  0.1581
18922SOL    HW158207   2.492   1.114   8.120  0.6095 -1.7705 -0.9738
18922SOL    HW258208   2.568   1.031   8.221  0.4501 -2.9010 -1.7576
18923SOL     OW58209   3.044   4.566   1.136  0.1394 -0.4565  0.0036
18923SOL    HW158210   2.970   4.539   1.189  0.8159 -0.1087  1.1632
18923SOL    HW258211   3.062   4.656   1.165 -1.1352  0.7913 -2.7030
18924SOL     OW58212   6.095   3.770   4.170  0.9097 -0.3372 -0.3406
18924SOL    HW158213   6.040   3.827   4.116 -0.4037 -1.1313  0.1345
18924SOL    HW258214   6.156   3.831   4.213 -0.2709  0.6852 -0.0606
18925SOL     OW58215   6.050   1.301   1.758 -0.5286  0.1906 -0.3648
18925SOL    HW158216   6.091   1.227   1.803  1.4465  1.5106  0.1332
18925SOL    HW258217   6.066   1.285   1.665 -2.3032 -1.2045 -0.4835
18926SOL     OW58218   6.860   1.930   2.983 -0.2597 -0.1891  0.2770
18926SOL    HW158219   6.893   1.895   2.901 -1.6648  0.8454 -0.7718
18926SOL    HW258220   6.914   1.888   3.050  0.5567 -1.4751 -1.1181
18927SOL     OW58221   3.616   1.419   1.358  0.2027 -0.1961  0.2443
18927SOL    HW158222   3.549   1.353   1.338 -0.7170  0.5094  0.9038
18927SOL    HW258223   3.656   1.388   1.439  0.8860 -0.7751 -0.3122
18928SOL     OW58224   4.024   4.672   6.893 -0.3422 -0.3676 -0.4957
18928SOL    HW158225   4.059   4.652   6.806 -0.0571 -1.6630 -0.1024
18928SOL    HW258226   3.996   4.763   6.887  1.7358  0.2724 -1.2774
18929SOL     OW58227   2.092   0.853   8.132 -0.4847  0.4526  0.2332
18929SOL    HW158228   2.082   0.818   8.043 -1.0539  0.2525  0.3716
18929SOL    HW258229   2.031   0.801   8.185  2.2101 -1.7977  1.4092
18930SOL     OW58230   4.478   2.989  11.791 -0.3802  0.1341 -0.7135
18930SOL    HW158231   4.433   2.955  11.869  0.8708 -0.6166 -0.2880
18930SOL    HW258232   4.570   2.988  11.815 -0.1103  1.5467 -1.6094
18931SOL     OW58233   1.508   5.306  11.323  0.0975  0.0006  0.1317
18931SOL    HW158234   1.454   5.269  11.254  0.1004  0.6031 -0.2036
18931SOL    HW258235   1.530   5.232  11.380 -1.6677 -0.1396  0.6708
18932SOL     OW58236   4.025   0.083  10.169 -0.7827  1.3888 -0.1922
18932SOL    HW158237   3.998   0.172  10.195 -3.5360  1.1088 -1.6731
18932SOL    HW258238   4.006   0.079  10.075 -2.5028 -1.2683  0.1440
18933SOL     OW58239   0.453   3.793   1.777  0.1919 -0.5502 -0.3179
18933SOL    HW158240   0.422   3.737   1.848  0.3378  1.7415  1.6894
18933SOL    HW258241   0.378   3.846   1.753  0.8429  0.5321 -0.0037
18934SOL     OW58242   0.713   5.049   0.760 -0.1421 -0.0552 -0.4568
18934SOL    HW158243   0.630   5.069   0.717 -0.5625 -2.2314 -0.7447
18934SOL    HW258244   0.703   4.959   0.792  1.4894  0.2297  1.0277
18935SOL     OW58245   5.614   0.070   9.700  0.7549 -0.6525 -0.1535
18935SOL    HW158246   5.562   0.096   9.777  3.3511  0.8991  1.1972
18935SOL    HW258247   5.565   0.104   9.626 -0.2866  0.5774  1.0390
18936SOL     OW58248   4.644   2.108   9.754  0.6538  0.0479  0.3808
18936SOL    HW158249   4.620   2.199   9.739  0.1383 -0.2687 -0.8738
18936SOL    HW258250   4.564   2.067   9.788  0.8046  0.0064  0.6892
18937SOL     OW58251   6.190   3.994   2.638 -1.1733 -0.0927  0.1267
18937SOL    HW158252   6.231   3.966   2.720 -3.1117 -1.3008  0.7334
18937SOL    HW258253   6.111   4.040   2.665 -1.4513  0.1609 -1.0673
18938SOL     OW58254   2.037   6.401  11.232 -0.4673  0.1331 -0.1323
18938SOL    HW158255   2.055   6.353  11.314  1.2018  1.0957  0.0912
18938SOL    HW258256   1.944   6.426  11.240 -0.3820  0.0898  1.4097
18939SOL     OW58257   4.221   7.020   2.651  0.2741  0.1645 -0.1035
18939SOL    HW158258   4.221   6.927   2.632 -0.2573  0.6409 -2.8156
18939SOL    HW258259   4.132   7.039   2.681 -0.5302  0.2401 -2.3831
18940SOL     OW58260   2.830   4.384   1.716  0.2523 -0.0080 -0.5750
18940SOL    HW158261   2.763   4.409   1.779  0.3622 -1.6763  0.2543
18940SOL    HW258262   2.913   4.402   1.761  0.3308 -1.4467 -0.1186
18941SOL     OW58263   3.490   1.886   7.634  0.0868  0.1757 -0.2118
18941SOL    HW158264   3.576   1.854   7.661  0.2440  0.2626 -0.6041
18941SOL    HW258265   3.488   1.871   7.539 -0.4238 -0.0468 -0.1643
18942SOL     OW58266   3.573   2.396   1.236 -0.4028  0.0562 -0.0495
18942SOL    HW158267   3.568   2.458   1.309  0.6764  1.2645 -0.9545
18942SOL    HW258268   3.496   2.417   1.182 -0.6546 -0.1685  0.2171
18943SOL     OW58269   3.229   2.161   5.398 -0.3525 -0.2550  0.1079
18943SOL    HW158270   3.192   2.209   5.472 -0.7312 -0.5941  0.1414
18943SOL    HW258271   3.175   2.187   5.324  0.2105  0.3128 -0.1145
18944SOL     OW58272   4.106   6.378  11.986 -0.5850  0.1280 -0.4779
18944SOL    HW158273   4.162   6.301  11.974  0.0559  0.8594 -2.5877
18944SOL    HW258274   4.158   6.437  12.041  0.0753  0.1498 -1.1052
18945SOL     OW58275   5.222   7.125   0.280 -0.3324  0.1408 -0.2645
18945SOL    HW158276   5.207   7.085   0.366  0.2173 -0.9704 -0.6722
18945SOL    HW258277   5.302   7.084   0.248  0.5071  1.8813 -0.5372
18946SOL     OW58278   5.581   5.658   4.390  0.4763 -0.3508  0.0485
18946SOL    HW158279   5.517   5.705   4.338 -1.7823 -1.7198  1.4312
18946SOL    HW258280   5.535   5.579   4.420  1.7904  0.0365  3.5520
18947SOL     OW58281   1.850   2.613   0.436 -0.8096 -0.0295 -0.1008
18947SOL    HW158282   1.821   2.658   0.357 -1.1852 -0.0262  0.0370
18947SOL    HW258283   1.773   2.565   0.467 -0.5444 -0.3889  0.0184
18948SOL     OW58284   4.067   5.979   0.545  0.3389 -0.3463  0.1918
18948SOL    HW158285   4.059   6.062   0.592 -1.6339 -0.0621 -0.5576
18948SOL    HW258286   4.160   5.973   0.522  0.5201  1.6588  0.2303
18949SOL     OW58287   5.324   0.656  12.421  0.4054 -0.1809 -0.3478
18949SOL    HW158288   5.331   0.591  12.351 -1.0950 -0.2126 -0.4893
18949SOL    HW258289   5.366   0.614  12.496 -0.9043 -1.5260 -0.3152
18950SOL     OW58290   0.184   1.032   3.190 -0.0142  0.7118  1.0293
18950SOL    HW158291   0.257   1.084   3.156 -0.0215  1.1703  1.7060
18950SOL    HW258292   0.133   1.092   3.243 -0.8323  0.3623  0.6684
18951SOL     OW58293   3.195   0.706   9.573  0.0705  0.0767 -0.0654
18951SOL    HW158294   3.239   0.785   9.541  0.0682 -0.1550 -0.6538
18951SOL    HW258295   3.240   0.686   9.655  0.9898 -0.0742 -0.5850
18952SOL     OW58296   0.124   7.131   7.925  0.4235  0.2087 -0.2140
18952SOL    HW158297   0.101   7.214   7.967 -1.6532 -0.5595  0.2674
18952SOL    HW258298   0.177   7.085   7.990  1.9794  1.2944 -0.6554
18953SOL     OW58299   7.339   3.487   1.319  0.2337  0.3434  0.0174
18953SOL    HW158300   7.332   3.577   1.287 -0.0107 -0.3073 -1.8727
18953SOL    HW258301   7.271   3.480   1.386 -0.6840  1.1648 -0.7947
18954SOL     OW58302   4.661   6.711   0.465  0.4395 -0.2764  0.2876
18954SOL    HW158303   4.580   6.674   0.430  0.5692 -0.7554  0.4851
18954SOL    HW258304   4.632   6.783   0.520  0.2407  0.5970 -0.9125
18955SOL     OW58305   2.970   7.412   5.022 -0.1082 -0.0467 -0.5962
18955SOL    HW158306   3.058   7.379   5.040 -0.5365  0.0628  2.1289
18955SOL    HW258307   2.914   7.334   5.028 -0.4585  0.2529  0.1897
18956SOL     OW58308   2.540   6.108   5.059 -0.0530  0.1234 -0.2785
18956SOL    HW158309   2.594   6.077   4.986  1.6324  1.2687  0.4464
18956SOL    HW258310   2.461   6.143   5.016  0.4005 -0.2521 -1.4682
18957SOL     OW58311   4.662   4.389  12.395  0.6385 -0.3856  0.1442
18957SOL    HW158312   4.583   4.348  12.360 -0.9385  0.7153  2.1567
18957SOL    HW258313   4.681   4.460  12.334 -1.4229  0.8506  0.8274
18958SOL     OW58314   5.483   0.040   5.500  0.3271 -0.5319 -0.2500
18958SOL    HW158315   5.498   0.119   5.552  0.3053  0.8140 -2.1824
18958SOL    HW258316   5.405   0.059   5.449 -0.4161 -2.3280  0.1520
18959SOL     OW58317   2.620   0.419   8.193  0.1753 -0.0510 -0.4082
18959SOL    HW158318   2.619   0.346   8.256  0.0704  0.8036  0.6037
18959SOL    HW258319   2.639   0.496   8.246  1.2943  0.5410 -1.6191
18960SOL     OW58320   0.754   4.434   2.541 -0.6050 -0.0701 -0.3834
18960SOL    HW158321   0.672   4.457   2.585 -1.5331  0.5237 -2.3222
18960SOL    HW258322   0.732   4.435   2.448  1.4075 -0.7753 -0.9054
18961SOL     OW58323   4.930   5.238   7.043  0.5111  0.7839  0.7324
18961SOL    HW158324   5.023   5.215   7.051  0.3929 -0.4564 -0.7478
18961SOL    HW258325   4.918   5.252   6.949 -0.8019  0.9078  0.9104
18962SOL     OW58326   0.794   2.880   9.343 -0.1605  0.7737  0.1415
18962SOL    HW158327   0.832   2.828   9.272  0.6541  0.2191  0.9576
18962SOL    HW258328   0.868   2.898   9.401 -0.9814  0.3793  1.3479
18963SOL     OW58329   1.183   6.726   7.709 -0.5366  0.6807 -0.0952
18963SOL    HW158330   1.223   6.670   7.776  1.0926  1.4380 -0.3859
18963SOL    HW258331   1.212   6.688   7.626 -1.6083  0.4207 -0.3639
18964SOL     OW58332   6.263   3.074   4.126  0.8193  0.5288 -0.0797
18964SOL    HW158333   6.204   3.148   4.111  2.1923  1.7161  0.0714
18964SOL    HW258334   6.342   3.097   4.076  1.7176 -0.2705  0.9229
18965SOL     OW58335   1.169   3.756   0.887 -0.0286 -0.3775  0.3428
18965SOL    HW158336   1.194   3.666   0.865  0.0593 -0.6183  1.3595
18965SOL    HW258337   1.164   3.756   0.983  1.2938  1.0391  0.4419
18966SOL     OW58338   7.880   5.772   7.132  1.1135 -0.5659 -0.8121
18966SOL    HW158339   7.835   5.727   7.060  2.0789 -0.1306 -1.7219
18966SOL    HW258340   7.839   5.738   7.211 -1.0084  0.0397 -1.5929
18967SOL     OW58341   7.883   2.794   3.001 -0.4511 -0.1572 -0.1244
18967SOL    HW158342   7.870   2.701   3.018 -1.1993  0.1540  1.1676
18967SOL    HW258343   7.975   2.801   2.976  0.0551 -1.0571  1.3341
18968SOL     OW58344   5.992   4.837   3.629  0.2820 -0.2998  0.7565
18968SOL    HW158345   6.036   4.799   3.705  1.0330 -1.5844 -0.2717
18968SOL    HW258346   5.900   4.842   3.655  0.6348  0.0595  2.0281
18969SOL     OW58347   7.852   1.823  10.394  0.4189 -0.3541 -0.3862
18969SOL    HW158348   7.797   1.896  10.421 -1.9563 -2.5961  1.3822
18969SOL    HW258349   7.811   1.790  10.314  2.8355  1.4607 -2.5633
18970SOL     OW58350   2.369   0.723   0.272 -0.1564 -0.1849 -0.6846
18970SOL    HW158351   2.391   0.811   0.302 -1.3416 -0.0237 -0.2435
18970SOL    HW258352   2.409   0.665   0.338  0.2484  0.0273 -0.7390
18971SOL     OW58353   7.087   3.959  11.767  0.1092  0.3264 -0.6530
18971SOL    HW158354   7.096   3.965  11.862  1.3217  0.2414 -0.7573
18971SOL    HW258355   7.005   3.911  11.754  0.6397 -0.9158  0.3725
18972SOL     OW58356   2.490   7.242   5.056  0.5062  0.3799  0.3966
18972SOL    HW158357   2.502   7.329   5.018  0.0680  0.1272 -0.3387
18972SOL    HW258358   2.477   7.259   5.149 -2.6550  1.4201 -0.0919
18973SOL     OW58359   4.548   1.917   0.629 -0.6233 -0.0668  0.6334
18973SOL    HW158360   4.597   1.996   0.608 -0.8578  0.6012  2.4600
18973SOL    HW258361   4.559   1.861   0.551  3.3195 -0.1183  0.9904
18974SOL     OW58362   5.486   0.784   5.453 -0.0550  0.2605  0.5458
18974SOL    HW158363   5.465   0.799   5.545 -0.6693 -0.0796  0.4643
18974SOL    HW258364   5.513   0.692   5.449 -2.1453 -0.3704  0.0336
18975SOL     OW58365   7.201   2.765   4.423 -0.9460 -0.2697 -0.0842
18975SOL    HW158366   7.242   2.696   4.370 -0.2558  1.3625 -1.7977
18975SOL    HW258367   7.227   2.744   4.513  0.3218 -1.5253 -0.6939
18976SOL     OW58368   2.632   6.678   3.204  0.9273  0.6432  0.2073
18976SOL    HW158369   2.605   6.590   3.231 -0.3779  1.0008  0.1237
18976SOL    HW258370   2.726   6.680   3.222  0.6303 -0.1016  2.0680
18977SOL     OW58371   7.741   6.043  11.900 -0.1185 -0.1323  0.4192
18977SOL    HW158372   7.747   6.126  11.949  0.2468 -0.3678  0.7854
18977SOL    HW258373   7.648   6.033  11.881 -0.0885  0.7066 -0.2329
18978SOL     OW58374   2.990   5.186   6.008  0.0477 -0.4241  0.1049
18978SOL    HW158375   2.955   5.099   6.024 -0.0959 -0.0560  1.9542
18978SOL    HW258376   3.049   5.175   5.933 -0.2699 -2.0042  0.0636
18979SOL     OW58377   6.979   2.097   0.580 -0.2289 -0.4564  0.6336
18979SOL    HW158378   7.074   2.095   0.594 -0.2858 -1.6254  0.9281
18979SOL    HW258379   6.965   2.175   0.526  1.1897 -1.4929 -1.3773
18980SOL     OW58380   5.569   3.003   2.816 -0.1476  0.2418  0.1798
18980SOL    HW158381   5.586   3.038   2.728 -3.1493 -0.0755 -0.6186
18980SOL    HW258382   5.608   2.915   2.814 -0.0158  0.3060 -0.7486
18981SOL     OW58383   4.519   6.629   6.265 -0.2907 -0.4720  0.1075
18981SOL    HW158384   4.485   6.718   6.251 -0.4292 -0.6308 -0.6066
18981SOL    HW258385   4.611   6.635   6.241  0.3484  0.0564  2.4281
18982SOL     OW58386   2.011   1.831   2.011  0.2344 -0.7264  0.0098
18982SOL    HW158387   1.930   1.840   2.061  0.9102  0.5618  0.9166
18982SOL    HW258388   2.032   1.920   1.982  0.3845 -1.2884 -1.7771
18983SOL     OW58389   3.910   2.591   7.548 -0.3694  0.1708  0.1288
18983SOL    HW158390   3.931   2.631   7.463 -1.6605 -0.6188 -0.5933
18983SOL    HW258391   3.993   2.559   7.580  0.2163  0.8596 -0.6462
18984SOL     OW58392   2.880   3.294   8.540 -0.1602  0.0559 -0.3125
18984SOL    HW158393   2.803   3.345   8.515 -0.7011 -0.2123  0.7123
18984SOL    HW258394   2.886   3.305   8.635  0.7673 -0.3483 -0.3115
18985SOL     OW58395   5.605   2.624   1.250  0.2853  0.0489  0.3491
18985SOL    HW158396   5.590   2.570   1.328  1.3432 -0.6162  0.1072
18985SOL    HW258397   5.576   2.569   1.177  0.5797  0.1376  0.1654
18986SOL     OW58398   5.422   5.240   4.786  0.2217  0.3419 -0.1765
18986SOL    HW158399   5.414   5.201   4.873  0.4039 -0.7735 -0.6437
18986SOL    HW258400   5.395   5.171   4.726  1.4404  0.6129 -1.0813
18987SOL     OW58401   5.775   0.664   0.372 -0.0729 -0.0553  0.0976
18987SOL    HW158402   5.826   0.626   0.443 -0.3609 -1.4051 -0.3806
18987SOL    HW258403   5.829   0.736   0.339 -0.1319  0.8896  1.9416
18988SOL     OW58404   2.625   5.334   1.739 -0.1479 -0.7836  0.3978
18988SOL    HW158405   2.553   5.306   1.796  0.6130 -1.1469  1.2013
18988SOL    HW258406   2.703   5.292   1.776  0.6618  0.4711  0.1885
18989SOL     OW58407   7.821   0.134   1.529 -0.4087  0.1140 -0.1910
18989SOL    HW158408   7.828   0.229   1.531  0.2995  0.0727 -0.3286
18989SOL    HW258409   7.887   0.103   1.591 -1.1233 -0.2783  0.3926
18990SOL     OW58410   2.441   4.676  10.842 -0.0445 -0.2930  0.9429
18990SOL    HW158411   2.433   4.730  10.921  0.7580 -0.3403  1.0585
18990SOL    HW258412   2.504   4.608  10.864 -0.7599 -1.0576  0.6638
18991SOL     OW58413   3.445   2.676   2.984  0.6228 -0.0952 -0.0225
18991SOL    HW158414   3.351   2.667   2.967  0.3727 -0.7286  1.5718
18991SOL    HW258415   3.486   2.660   2.899 -0.6960 -0.0102 -0.7017
18992SOL     OW58416   1.456   0.510   9.528  0.1422  0.1089 -1.0278
18992SOL    HW158417   1.375   0.496   9.480  0.5080 -0.3884 -1.5016
18992SOL    HW258418   1.526   0.496   9.464  0.6672 -1.4878 -0.1598
18993SOL     OW58419   4.492   3.745   1.011 -0.3673 -0.0757 -0.2385
18993SOL    HW158420   4.447   3.817   0.967 -0.9347 -0.9193 -1.0718
18993SOL    HW258421   4.555   3.789   1.069  1.3512  1.1198 -2.7934
18994SOL     OW58422   6.383   3.642   4.001  0.2346 -0.4970  0.3081
18994SOL    HW158423   6.369   3.735   4.021  0.9281 -0.1317 -0.7897
18994SOL    HW258424   6.419   3.605   4.082  0.8134  0.3933  0.4699
18995SOL     OW58425   5.855   0.324  10.824 -0.6377 -0.8708  0.4155
18995SOL    HW158426   5.803   0.244  10.814 -0.8883 -0.6998  0.3268
18995SOL    HW258427   5.872   0.353  10.734  0.8765 -1.7229  0.3921
18996SOL     OW58428   7.586   0.754   9.805  0.1429  0.0999 -0.2841
18996SOL    HW158429   7.535   0.691   9.856  0.2812 -0.8299 -1.2735
18996SOL    HW258430   7.526   0.781   9.735  0.4745  0.2125 -0.5242
18997SOL     OW58431   2.298   3.116   1.573  0.1437 -0.2203  0.1784
18997SOL    HW158432   2.286   3.177   1.646 -0.2468 -0.2450  0.1377
18997SOL    HW258433   2.298   3.029   1.613 -2.2167 -0.3919 -0.0419
18998SOL     OW58434   3.330   3.862   2.759  0.1711 -0.4829 -0.1110
18998SOL    HW158435   3.269   3.861   2.833  0.9379 -1.4845  0.5421
18998SOL    HW258436   3.330   3.952   2.729 -1.0527 -0.3085  0.3573
18999SOL     OW58437   2.572   1.236  10.678  0.0231 -0.4773  0.7162
18999SOL    HW158438   2.610   1.161  10.633  0.3138 -0.4427  0.9047
18999SOL    HW258439   2.540   1.293  10.608  1.7043  0.2427  0.4893
19000SOL     OW58440   0.227   6.635  10.986 -0.4198  0.0651  0.0748
19000SOL    HW158441   0.315   6.605  10.963  0.1046  2.5348 -1.4285
19000SOL    HW258442   0.242   6.700  11.055 -1.0956  0.3987 -0.0930
19001SOL     OW58443   5.364   5.462  11.898 -0.3629 -0.0752  0.0386
19001SOL    HW158444   5.384   5.484  11.808 -1.1511  2.1468  0.3568
19001SOL    HW258445   5.310   5.383  11.892  0.0156 -0.2482 -1.3889
19002SOL     OW58446   0.816   0.762  12.422 -0.2737  0.1118  0.2346
19002SOL    HW158447   0.751   0.832  12.409  0.9275  1.0803 -0.7973
19002SOL    HW258448   0.798   0.700  12.351  0.5724  0.9237 -0.7267
19003SOL     OW58449   6.656   2.605   2.821  0.2016  0.4750  0.1318
19003SOL    HW158450   6.721   2.584   2.754  0.7214 -2.2265  1.3429
19003SOL    HW258451   6.699   2.586   2.904 -1.0194  2.0137  1.1821
19004SOL     OW58452   7.570   2.113   1.013 -0.4622  0.3468  0.1029
19004SOL    HW158453   7.552   2.197   1.055 -0.6068  0.4565 -0.1770
19004SOL    HW258454   7.640   2.075   1.065  0.6249  1.2834 -0.6335
19005SOL     OW58455   7.945   4.212   0.271 -0.1085  0.0775 -0.6041
19005SOL    HW158456   7.970   4.120   0.258  2.9665  0.9342 -1.5358
19005SOL    HW258457   7.878   4.229   0.205  0.8196 -0.9608 -1.8524
19006SOL     OW58458   7.437   3.191  10.716  0.3519 -0.5389 -0.0383
19006SOL    HW158459   7.401   3.279  10.711  1.2551 -0.0722  1.1840
19006SOL    HW258460   7.481   3.178  10.632 -0.0762  0.0311 -0.3583
19007SOL     OW58461   4.378   5.443  10.781 -0.1186  0.3634  0.0296
19007SOL    HW158462   4.337   5.376  10.836  0.3020 -0.8392 -1.0719
19007SOL    HW258463   4.462   5.406  10.755  1.3403  2.4184  1.5101
19008SOL     OW58464   4.644   2.061   1.088 -0.2187  0.0176  0.0790
19008SOL    HW158465   4.575   2.008   1.049  1.5088 -2.0356 -0.4130
19008SOL    HW258466   4.668   2.014   1.168  0.7904  0.5327  0.0969
19009SOL     OW58467   3.571   3.651   1.199  0.6565  0.4128 -0.5722
19009SOL    HW158468   3.596   3.589   1.130  0.5888 -0.3857  0.1074
19009SOL    HW258469   3.645   3.649   1.260  0.4811  0.7207 -0.3466
19010SOL     OW58470   2.125   6.636   5.561 -0.1311 -0.2165  0.1715
19010SOL    HW158471   2.132   6.720   5.606 -0.0816  1.0021 -1.9436
19010SOL    HW258472   2.035   6.635   5.527  0.2113 -0.4682 -0.7669
19011SOL     OW58473   3.473   0.084   0.360  0.1473 -0.1348  0.8156
19011SOL    HW158474   3.499   0.176   0.351 -0.9497  0.1822  0.7102
19011SOL    HW258475   3.396   0.076   0.304  1.0956 -1.5071 -0.3576
19012SOL     OW58476   6.429   6.883   7.063  0.1671  0.5354  0.1066
19012SOL    HW158477   6.509   6.831   7.060  0.8014  1.5449 -1.7573
19012SOL    HW258478   6.458   6.973   7.045 -1.0153  1.4611  2.3274
19013SOL     OW58479   7.080   0.493  12.265 -0.4521  0.0826  0.6267
19013SOL    HW158480   7.163   0.461  12.230 -0.4427 -0.7650  1.3849
19013SOL    HW258481   7.014   0.432  12.232 -0.5366 -0.2927  1.4594
19014SOL     OW58482   3.640   3.606   7.846  0.2207 -0.0074  0.8551
19014SOL    HW158483   3.579   3.532   7.850  0.9015 -0.6037  0.6122
19014SOL    HW258484   3.585   3.682   7.831 -0.3159 -0.7853 -1.4659
19015SOL     OW58485   4.786   6.836   4.110  0.6817  0.2336 -0.6217
19015SOL    HW158486   4.844   6.763   4.131  0.7443  0.4468 -0.0316
19015SOL    HW258487   4.767   6.876   4.194  0.0788  0.4708 -0.8660
19016SOL     OW58488   2.232   1.481  11.611  0.3516 -0.0414  0.4124
19016SOL    HW158489   2.324   1.477  11.640  0.2183 -0.0553  0.8364
19016SOL    HW258490   2.181   1.472  11.692 -0.0230  0.8209  0.2801
19017SOL     OW58491   3.796   4.230   6.058 -0.1027  0.0029  0.5146
19017SOL    HW158492   3.732   4.272   6.001 -0.6869 -0.3688  0.8777
19017SOL    HW258493   3.875   4.223   6.005 -0.6234 -0.3056 -0.2409
19018SOL     OW58494   2.075   7.353   8.017 -0.3664  0.2176 -0.5244
19018SOL    HW158495   2.128   7.303   8.079 -0.2053 -0.0243 -0.8542
19018SOL    HW258496   2.110   7.442   8.023  0.3160 -0.0052 -0.9843
19019SOL     OW58497   5.031   2.898  10.968  0.1008 -0.6418 -0.3100
19019SOL    HW158498   5.095   2.908  10.897 -0.0220 -0.6870 -0.4281
19019SOL    HW258499   4.998   2.808  10.958  0.4842 -0.8362  0.1441
19020SOL     OW58500   6.143   5.685   6.526  0.2242  0.3413  0.0773
19020SOL    HW158501   6.227   5.646   6.504  0.4988 -0.3153  2.0771
19020SOL    HW258502   6.106   5.627   6.592 -2.1050  0.2884 -1.1630
19021SOL     OW58503   6.778   3.112   7.903 -0.3806 -0.0740  0.5420
19021SOL    HW158504   6.814   3.200   7.897 -0.1625 -0.2808 -2.0409
19021SOL    HW258505   6.711   3.118   7.972  0.6122  1.7124  1.4106
19022SOL     OW58506   2.873   1.551  12.221  0.2215  0.3387  0.2529
19022SOL    HW158507   2.860   1.510  12.306 -0.3276 -1.1412 -0.4950
19022SOL    HW258508   2.964   1.532  12.199  0.4006  0.8308  0.5483
19023SOL     OW58509   1.750   6.018   5.457  0.0419  0.4897 -0.7229
19023SOL    HW158510   1.748   5.926   5.429 -1.9526  0.3532 -0.2292
19023SOL    HW258511   1.838   6.048   5.431  1.3574 -1.9696  0.5193
19024SOL     OW58512   3.086   7.041   1.514 -0.1334 -0.0858 -0.3815
19024SOL    HW158513   3.001   7.082   1.497  0.3866  0.7268 -1.0751
19024SOL    HW258514   3.150   7.112   1.505  0.5166 -0.3788  1.5203
19025SOL     OW58515   4.825   2.275   3.295  0.3607  0.1201 -0.0338
19025SOL    HW158516   4.744   2.276   3.245 -0.1217  0.3387  0.7493
19025SOL    HW258517   4.865   2.190   3.274 -0.6545 -0.5113  0.4963
19026SOL     OW58518   4.530   7.021  10.713  0.4259  0.4672 -0.0608
19026SOL    HW158519   4.483   7.037  10.795  1.2326 -0.0566  0.5293
19026SOL    HW258520   4.538   6.925  10.709 -0.1297  0.4581 -1.0657
19027SOL     OW58521   2.243   1.955   8.904  0.2686 -0.6040 -0.6147
19027SOL    HW158522   2.307   1.884   8.897 -0.2220 -0.9361 -2.2679
19027SOL    HW258523   2.168   1.917   8.948  0.9786 -0.3611  0.8503
19028SOL     OW58524   5.915   0.771   9.521  0.8855 -0.1958  0.2867
19028SOL    HW158525   5.868   0.832   9.578  1.0721  0.4321 -0.2147
19028SOL    HW258526   6.008   0.787   9.540  0.9208 -1.6255  1.4755
19029SOL     OW58527   0.061   7.188  10.490  0.0433  0.2349 -0.1800
19029SOL    HW158528   0.142   7.147  10.459 -0.1326  0.2638 -0.6925
19029SOL    HW258529  -0.008   7.143  10.441 -0.2070  0.6166 -0.1791
19030SOL     OW58530   7.286   5.391   5.308 -0.2096  0.2036 -0.3389
19030SOL    HW158531   7.357   5.436   5.355 -0.0827  0.0547 -0.3877
19030SOL    HW258532   7.286   5.302   5.344 -1.5937  0.7155  1.0002
19031SOL     OW58533   1.237   3.942   0.422  0.1031 -0.0176 -0.5116
19031SOL    HW158534   1.167   4.007   0.429  1.6030  1.6080  0.0538
19031SOL    HW258535   1.210   3.885   0.350 -2.3512 -0.1903  0.4212
19032SOL     OW58536   4.943   7.766   6.407  0.0313 -0.6753 -0.4265
19032SOL    HW158537   4.984   7.849   6.434 -0.7708 -0.2704 -0.4287
19032SOL    HW258538   5.012   7.721   6.359  0.2068  0.4003 -1.2279
19033SOL     OW58539   4.557   3.274  10.127  0.5262  0.4169 -0.4141
19033SOL    HW158540   4.578   3.362  10.095  1.1763  0.0803 -0.9465
19033SOL    HW258541   4.462   3.276  10.141  0.4264  1.0028 -1.0735
19034SOL     OW58542   4.970   7.336   5.799 -0.3447  0.2369 -0.2175
19034SOL    HW158543   4.996   7.254   5.757 -0.1970  0.2403 -0.1347
19034SOL    HW258544   4.878   7.325   5.820 -0.2000 -0.1029  0.2487
19035SOL     OW58545   1.652   3.649  11.494 -0.5975  0.0012 -0.3139
19035SOL    HW158546   1.685   3.560  11.507 -0.4172  0.2787  1.4613
19035SOL    HW258547   1.720   3.694  11.445 -1.2223 -1.1323 -2.3362
19036SOL     OW58548   4.029   5.688   3.503  0.1649 -0.8040  0.1090
19036SOL    HW158549   3.973   5.707   3.578  0.6949  0.6754  0.1521
19036SOL    HW258550   3.977   5.714   3.427  0.0104 -1.3865  0.0046
19037SOL     OW58551   2.016   5.428   2.129  0.3969 -0.0494  0.0725
19037SOL    HW158552   1.945   5.376   2.168  2.3193 -2.3988  0.7495
19037SOL    HW258553   1.972   5.492   2.074 -2.2496 -0.9011  1.0254
19038SOL     OW58554   0.937   5.827   2.889  0.2922 -0.3406 -0.2402
19038SOL    HW158555   0.895   5.906   2.856  2.1769  1.5716  1.5880
19038SOL    HW258556   0.948   5.772   2.811 -2.2561  0.5698 -1.3454
19039SOL     OW58557   1.773   0.452  10.269  0.2517 -0.0108  0.2456
19039SOL    HW158558   1.770   0.499  10.186  3.0003 -0.2034 -0.0367
19039SOL    HW258559   1.758   0.519  10.335 -2.9189  0.0024 -0.3183
19040SOL     OW58560   3.983   0.760   5.020  0.3237  0.4443  0.2496
19040SOL    HW158561   3.897   0.782   5.057 -0.5571  0.0238 -1.4404
19040SOL    HW258562   3.964   0.696   4.951  2.0981 -0.2869  0.3852
19041SOL     OW58563   0.385   7.347  10.601  0.2073  0.4811 -0.1584
19041SOL    HW158564   0.347   7.432  10.580 -0.2209 -0.0844 -1.8697
19041SOL    HW258565   0.467   7.345  10.551 -0.1828 -0.4083 -0.7893
19042SOL     OW58566   0.534   4.734   9.697  0.8710 -0.0478  0.2507
19042SOL    HW158567   0.456   4.679   9.696  1.0648 -0.3147 -0.5644
19042SOL    HW258568   0.525   4.787   9.776 -1.1815  1.4045 -0.8554
19043SOL     OW58569   4.163   5.407   6.450 -0.0279 -0.0160  0.1412
19043SOL    HW158570   4.246   5.360   6.436 -0.6345 -0.9508 -0.4886
19043SOL    HW258571   4.098   5.337   6.460 -0.8808  0.6970 -0.3001
19044SOL     OW58572   1.015   0.968   5.216 -0.0920 -0.2192  0.2226
19044SOL    HW158573   0.929   1.004   5.236 -0.7067 -2.0221  0.9907
19044SOL    HW258574   1.057   0.957   5.301 -0.2082 -1.9292  0.0891
19045SOL     OW58575   3.702   7.492  10.922 -0.3107 -0.2647  0.5643
19045SOL    HW158576   3.625   7.435  10.924 -2.2238  2.1685  2.3191
19045SOL    HW258577   3.675   7.566  10.868  0.3856  1.1140  2.0340
19046SOL     OW58578   7.088   6.303   4.621 -0.2512 -0.2480  0.3588
19046SOL    HW158579   7.126   6.295   4.533 -0.0654  0.2399  0.3867
19046SOL    HW258580   7.111   6.222   4.665 -1.6975 -1.1869 -0.5420
19047SOL     OW58581   0.403   5.605  10.329 -0.7403 -0.2009 -0.4256
19047SOL    HW158582   0.375   5.649  10.248 -1.8561  0.9029  0.5201
19047SOL    HW258583   0.325   5.558  10.358 -1.2444  1.6026  1.3891
19048SOL     OW58584   1.296   4.835   9.213  0.0503  0.2659  0.3028
19048SOL    HW158585   1.219   4.781   9.233 -1.5315  2.6292  1.0320
19048SOL    HW258586   1.295   4.842   9.117  0.4820 -1.1883  0.1615
19049SOL     OW58587   1.496   2.049   0.334 -0.0411 -0.6974 -0.3669
19049SOL    HW158588   1.569   2.111   0.340  0.2643 -1.2047  3.0708
19049SOL    HW258589   1.527   1.983   0.272  0.8601  0.9544 -1.7779
19050SOL     OW58590   7.101   3.482   9.389  0.4533 -0.0558 -0.3532
19050SOL    HW158591   7.157   3.423   9.339 -0.0599 -0.7617 -0.1146
19050SOL    HW258592   7.013   3.444   9.382  0.6197 -1.3091  2.6063
19051SOL     OW58593   6.537   5.706   1.178 -0.3639 -0.2204  0.4802
19051SOL    HW158594   6.482   5.678   1.252 -1.1753 -0.7012 -0.2899
19051SOL    HW258595   6.601   5.635   1.168 -0.7741 -0.5548  0.2010
19052SOL     OW58596   3.970   2.764   2.614 -0.0128 -0.4774 -0.2767
19052SOL    HW158597   4.044   2.721   2.657 -0.1419 -0.9552 -0.5285
19052SOL    HW258598   4.011   2.822   2.549  0.1449 -2.4155 -2.0284
19053SOL     OW58599   6.742   7.841   7.755 -0.3266  0.2394 -0.6961
19053SOL    HW158600   6.766   7.750   7.736  0.8466  0.2974  0.3843
19053SOL    HW258601   6.669   7.835   7.816 -1.2152  0.0494 -1.7459
19054SOL     OW58602   1.070   6.098   3.804 -0.1604  0.3133 -0.0631
19054SOL    HW158603   1.075   6.142   3.719 -2.1038  0.0024 -0.3900
19054SOL    HW258604   0.976   6.087   3.820  0.1933 -0.7416  1.5618
19055SOL     OW58605   5.288   3.007   3.374  0.4923 -0.1812  0.0507
19055SOL    HW158606   5.308   3.084   3.426  3.0887 -0.7366 -0.0039
19055SOL    HW258607   5.361   2.999   3.313 -1.2317 -0.9619 -2.0570
19056SOL     OW58608   0.510   7.345   1.410 -0.1676 -0.1459  0.2399
19056SOL    HW158609   0.537   7.276   1.349 -2.9431 -0.8488 -0.3393
19056SOL    HW258610   0.437   7.388   1.366 -0.0891  1.5505  1.6784
19057SOL     OW58611   6.341   1.436   0.152 -0.0369 -0.1819  0.6052
19057SOL    HW158612   6.253   1.444   0.191 -0.9371 -2.1208 -0.8375
19057SOL    HW258613   6.336   1.487   0.071  0.9616  1.5932  1.5969
19058SOL     OW58614   6.870   7.888  10.657  0.5770  0.0652 -0.1697
19058SOL    HW158615   6.827   7.807  10.629 -0.9357  0.9062 -0.3728
19058SOL    HW258616   6.879   7.878  10.752 -2.7118  1.0104  0.3346
19059SOL     OW58617   5.658   5.467   8.835 -0.2310 -0.5750 -0.1075
19059SOL    HW158618   5.661   5.436   8.926 -0.5385  0.1048  0.1422
19059SOL    HW258619   5.744   5.446   8.799  0.4853  0.6341  0.8438
19060SOL     OW58620   4.093   5.872   1.190  0.2240  0.5111 -0.2640
19060SOL    HW158621   4.041   5.803   1.232  0.8790  0.3207  0.2573
19060SOL    HW258622   4.040   5.901   1.116 -0.6459  0.3609  0.2905
19061SOL     OW58623   7.299   0.593   1.693 -0.5022 -0.3430  0.5125
19061SOL    HW158624   7.240   0.605   1.619  1.2142  1.3271 -0.6886
19061SOL    HW258625   7.330   0.682   1.714  1.4221 -1.1152  1.1881
19062SOL     OW58626   1.612   3.715   7.115  0.1660 -0.1417  0.4040
19062SOL    HW158627   1.522   3.715   7.148 -0.1621  1.3430 -0.3800
19062SOL    HW258628   1.623   3.628   7.076 -0.8904 -0.3952  0.6275
19063SOL     OW58629   0.231   7.479   3.178 -0.3020 -0.0880  0.3037
19063SOL    HW158630   0.166   7.443   3.117  0.1465 -2.9457  1.3797
19063SOL    HW258631   0.192   7.468   3.264  0.0657  1.7390  0.7397
19064SOL     OW58632   6.755   5.228   2.732 -0.1608 -0.0175 -0.3870
19064SOL    HW158633   6.699   5.153   2.712  0.8669 -0.8861 -0.1411
19064SOL    HW258634   6.844   5.193   2.725  0.3217  0.8046  1.2298
19065SOL     OW58635   0.484   7.534   9.613 -0.2432  0.0805  0.0691
19065SOL    HW158636   0.407   7.584   9.641  0.8809  1.5698  0.6517
19065SOL    HW258637   0.517   7.495   9.694 -0.6639 -1.0241 -0.2656
19066SOL     OW58638   0.705   0.663   4.086  0.1476  0.2186 -0.5096
19066SOL    HW158639   0.775   0.727   4.104 -0.5591  0.5587  1.1881
19066SOL    HW258640   0.627   0.716   4.072 -0.5257 -0.2427  1.2754
19067SOL     OW58641   6.414   6.206   2.293  0.0696 -0.4825  0.1078
19067SOL    HW158642   6.343   6.142   2.289 -1.8410  1.5389  0.0931
19067SOL    HW258643   6.438   6.221   2.201 -1.0208  0.4119 -0.0505
19068SOL     OW58644   3.584   1.550   6.053  0.2434  0.2746 -0.1861
19068SOL    HW158645   3.617   1.521   6.138 -0.1991 -0.7563 -0.3569
19068SOL    HW258646   3.662   1.577   6.004  0.5818  0.0499  0.2327
19069SOL     OW58647   4.529   7.918   5.551  0.1537 -0.0193 -0.2207
19069SOL    HW158648   4.536   7.946   5.642  1.5858 -0.1414 -0.2767
19069SOL    HW258649   4.510   7.825   5.556  1.1360 -0.2185 -0.0328
19070SOL     OW58650   3.071   4.802   1.284 -1.0671 -0.2093 -0.3796
19070SOL    HW158651   3.151   4.779   1.330 -1.2556 -4.2541 -1.6843
19070SOL    HW258652   3.002   4.793   1.350 -0.8141 -0.6593 -0.1708
19071SOL     OW58653   7.906   4.319   9.232 -0.0766 -0.2560 -0.3805
19071SOL    HW158654   7.868   4.366   9.158 -0.3016  1.8120  0.9859
19071SOL    HW258655   7.999   4.312   9.210  0.7850  4.2444  0.8996
19072SOL     OW58656   4.060   2.406   4.405 -0.0124  0.3156  0.4319
19072SOL    HW158657   4.091   2.442   4.322 -0.9944  1.8385  0.6850
19072SOL    HW258658   4.016   2.325   4.381  0.3284  0.3805 -0.4478
19073SOL     OW58659   6.615   7.699   0.111  0.0982  0.1823 -0.0980
19073SOL    HW158660   6.636   7.658   0.194 -0.7151 -1.5512 -0.6884
19073SOL    HW258661   6.616   7.627   0.048  1.5188  1.5664 -1.7681
19074SOL     OW58662   1.803   1.505   8.050  0.0187  0.5670  0.0778
19074SOL    HW158663   1.718   1.462   8.059 -0.8112  1.2993 -3.0615
19074SOL    HW258664   1.863   1.435   8.023 -0.0994  0.4687  0.0732
19075SOL     OW58665   4.304   0.348  10.032 -0.2033 -0.3277  0.3129
19075SOL    HW158666   4.231   0.371   9.975  0.1775 -0.0256 -0.0529
19075SOL    HW258667   4.315   0.254  10.020 -0.6632 -0.4155  0.5298
19076SOL     OW58668   3.849   2.242  11.113  0.0200 -0.6185 -0.2572
19076SOL    HW158669   3.844   2.256  11.207  0.2527  1.1713 -0.4693
19076SOL    HW258670   3.777   2.295  11.077  1.4962  0.8610 -1.2219
19077SOL     OW58671   0.602   0.535   1.403 -0.3284  0.8274 -0.2479
19077SOL    HW158672   0.652   0.593   1.347  0.8470  0.4810  0.4006
19077SOL    HW258673   0.653   0.453   1.404 -1.4517  0.1108 -0.3990
19078SOL     OW58674   4.034   5.371  12.432  0.0958  0.0553 -0.1949
19078SOL    HW158675   3.962   5.432  12.415  0.6581  0.5674 -0.8018
19078SOL    HW258676   3.994   5.300  12.481 -0.9889 -0.0247 -1.1516
19079SOL     OW58677   3.293   0.462   5.900  0.1934  0.2583 -0.1343
19079SOL    HW158678   3.261   0.437   5.813  0.5558  0.1379 -0.2349
19079SOL    HW258679   3.318   0.554   5.890 -1.6983  0.8736  0.3929
19080SOL     OW58680   2.483   4.655   7.225 -0.1845 -0.1363 -0.0223
19080SOL    HW158681   2.399   4.697   7.207 -1.4939 -0.5453  4.0540
19080SOL    HW258682   2.461   4.577   7.277  2.5227 -2.8983 -2.5840
19081SOL     OW58683   6.908   4.068   0.664  0.2428 -0.6163  1.1755
19081SOL    HW158684   6.954   3.984   0.673 -2.3537 -2.0651  2.1277
19081SOL    HW258685   6.818   4.043   0.642 -0.0081  2.0816 -1.3300
19082SOL     OW58686   5.453   0.928   5.980  0.0902 -0.3220  0.0968
19082SOL    HW158687   5.480   0.848   6.024 -0.0571 -0.2367  0.3451
19082SOL    HW258688   5.363   0.943   6.010 -0.1967 -0.5424 -0.6259
19083SOL     OW58689   0.382   5.132  11.320  0.1030  0.1670 -0.3261
19083SOL    HW158690   0.347   5.213  11.282  0.3892  0.9317  0.9635
19083SOL    HW258691   0.381   5.148  11.414  2.2291 -0.4611 -0.1384
19084SOL     OW58692   1.364   7.977  10.225 -0.1350  0.2748  0.3472
19084SOL    HW158693   1.367   7.895  10.176  0.0772 -0.5389  1.6809
19084SOL    HW258694   1.449   7.983  10.268  0.1934  1.6566 -0.4180
19085SOL     OW58695   1.218   3.147   5.965 -0.4994  0.4607 -0.5258
19085SOL    HW158696   1.272   3.161   5.888 -1.4741  1.0552 -1.1267
19085SOL    HW258697   1.171   3.230   5.976  1.8360  1.5815  2.5380
19086SOL     OW58698   5.839   4.757   6.452  0.8109 -0.2513 -0.2948
19086SOL    HW158699   5.823   4.850   6.437  1.0851 -0.0472  0.5770
19086SOL    HW258700   5.753   4.717   6.447  0.2855  0.4548  1.8606
19087SOL     OW58701   6.825   3.950  10.643  0.8453  0.0787 -0.0075
19087SOL    HW158702   6.859   3.935  10.731  1.3459  1.2961  0.0364
19087SOL    HW258703   6.762   3.879  10.628  0.1979  0.2668  1.6242
19088SOL     OW58704   4.771   2.992  11.036  0.3020 -0.2994 -0.0761
19088SOL    HW158705   4.838   2.938  10.996  0.8283  0.8226 -0.7728
19088SOL    HW258706   4.808   3.081  11.035 -0.8017  0.1919  0.4012
19089SOL     OW58707   0.190   4.808   3.394 -0.0954 -0.0329 -0.6029
19089SOL    HW158708   0.279   4.783   3.419  0.4359  0.4087 -1.9581
19089SOL    HW258709   0.145   4.825   3.477  0.3823 -2.4801  0.2422
19090SOL     OW58710   2.212   1.678   1.689  0.0911  0.6686 -0.1872
19090SOL    HW158711   2.158   1.647   1.762 -1.4853  0.3480 -1.4418
19090SOL    HW258712   2.268   1.603   1.668 -1.9345 -0.5573 -1.5525
19091SOL     OW58713   7.820   1.041   9.340 -0.1255  0.2862  0.6270
19091SOL    HW158714   7.904   1.013   9.302 -1.0786 -1.8386 -0.0889
19091SOL    HW258715   7.797   1.120   9.291  1.1869  0.5942  0.4571
19092SOL     OW58716   6.708   7.473   8.890  0.0583  0.0577  0.2780
19092SOL    HW158717   6.634   7.519   8.929 -0.7980 -1.2049  0.1735
19092SOL    HW258718   6.683   7.381   8.890  0.9497 -0.2302 -1.2363
19093SOL     OW58719   5.102   2.630   2.818 -0.6532  0.8413  0.0743
19093SOL    HW158720   5.152   2.665   2.892 -0.0254  1.9764 -0.8665
19093SOL    HW258721   5.038   2.699   2.798 -0.6765  0.6371 -0.5782
19094SOL     OW58722   2.261   0.500   6.556 -0.3354 -0.4074  0.3597
19094SOL    HW158723   2.314   0.446   6.614 -0.0330  0.3119  0.7679
19094SOL    HW258724   2.284   0.471   6.468 -0.4737 -1.2075  0.5796
19095SOL     OW58725   1.523   2.859   7.065  0.0902 -0.4461 -0.1019
19095SOL    HW158726   1.591   2.899   7.011 -0.3087 -0.8129 -0.8945
19095SOL    HW258727   1.571   2.815   7.136  0.9056 -2.7184 -1.9158
19096SOL     OW58728   0.208   2.741   6.564  0.4089 -0.0650  0.0188
19096SOL    HW158729   0.195   2.658   6.519  1.1696  0.4810 -1.2542
19096SOL    HW258730   0.281   2.782   6.519  0.5438  0.9656  1.1208
19097SOL     OW58731   1.961   1.482  12.109 -0.9782 -0.0917  0.1553
19097SOL    HW158732   1.914   1.565  12.102  0.8946  0.9183 -1.4177
19097SOL    HW258733   2.020   1.494  12.184  0.7385  0.8484 -1.2752
19098SOL     OW58734   3.595   4.763   1.698  0.2832 -0.1047 -0.1930
19098SOL    HW158735   3.595   4.798   1.609 -1.5696 -0.4459 -0.3602
19098SOL    HW258736   3.684   4.780   1.730  0.8889  0.3290 -1.9694
19099SOL     OW58737   7.568   1.963   8.544  0.0534 -0.3894 -0.3971
19099SOL    HW158738   7.515   1.949   8.466  1.4251 -0.3899 -1.3664
19099SOL    HW258739   7.567   1.878   8.589 -2.1772  0.0729  0.5799
19100SOL     OW58740   2.216   2.672   5.115 -0.0680 -0.5809  0.0024
19100SOL    HW158741   2.274   2.691   5.189 -0.2704  3.6776 -0.6675
19100SOL    HW258742   2.129   2.668   5.154  0.0837 -0.9017  0.3105
19101SOL     OW58743   0.565   5.949  10.797 -0.0931 -0.2535  0.4182
19101SOL    HW158744   0.649   5.985  10.770  1.0689 -2.4588  0.8146
19101SOL    HW258745   0.532   5.905  10.719 -1.1365  0.9696  0.1413
19102SOL     OW58746   5.729   4.155   5.028 -0.2035 -0.3582 -0.6633
19102SOL    HW158747   5.738   4.136   4.935  1.8767  1.0489 -0.8178
19102SOL    HW258748   5.685   4.240   5.032  0.5833  0.0469 -0.4132
19103SOL     OW58749   7.878   3.977  11.159 -0.6422 -0.0034  0.0439
19103SOL    HW158750   7.799   3.930  11.133 -0.0242 -0.7919 -0.4332
19103SOL    HW258751   7.860   4.068  11.135 -1.7200 -0.0370  0.6838
19104SOL     OW58752   3.312   7.725   2.263 -0.2800 -0.0961  0.3860
19104SOL    HW158753   3.341   7.772   2.185  0.7619  0.6323  1.1717
19104SOL    HW258754   3.222   7.753   2.277  0.0317  0.9656  0.3132
19105SOL     OW58755   1.497   6.326   3.156 -0.3541 -0.9679  0.1616
19105SOL    HW158756   1.434   6.303   3.087  0.9720  0.4336 -1.5890
19105SOL    HW258757   1.563   6.257   3.151  0.6625  0.0427 -1.2481
19106SOL     OW58758   5.161   1.148   6.299 -0.7837  0.4265 -0.9708
19106SOL    HW158759   5.208   1.230   6.288 -0.3781  0.3560  0.0751
19106SOL    HW258760   5.230   1.081   6.303 -1.0761  0.1073 -1.1987
19107SOL     OW58761   0.668   4.449   9.343 -0.2985  0.1679  0.1332
19107SOL    HW158762   0.722   4.383   9.385  3.0285  2.5389 -0.0037
19107SOL    HW258763   0.667   4.522   9.405 -3.1763  0.3751 -0.0500
19108SOL     OW58764   6.323   6.899  11.887 -0.0595  0.2093  0.2005
19108SOL    HW158765   6.396   6.858  11.841  0.9541  2.5546 -0.4592
19108SOL    HW258766   6.260   6.920  11.818 -0.5655 -0.2168  0.5260
19109SOL     OW58767   1.127   4.777   1.013  0.5206 -0.1382 -0.3021
19109SOL    HW158768   1.149   4.738   0.928 -1.1206  0.1231 -0.8832
19109SOL    HW258769   1.150   4.709   1.077 -0.1542 -1.1846 -1.1335
19110SOL     OW58770   7.018   1.086   8.581 -0.4810 -0.1142 -0.2486
19110SOL    HW158771   6.968   1.108   8.659 -1.3887 -0.0561 -0.8215
19110SOL    HW258772   7.094   1.038   8.613 -0.2625  0.8644  0.7492
19111SOL     OW58773   6.913   3.462  12.054  0.0158  0.1669  0.1085
19111SOL    HW158774   6.887   3.552  12.033 -1.8732  0.1981  2.1726
19111SOL    HW258775   7.008   3.464  12.053  0.0080  1.9542 -0.8315
19112SOL     OW58776   0.990   4.247   7.863  0.3860 -0.2212 -0.3485
19112SOL    HW158777   0.965   4.334   7.895  0.4988  0.9036 -3.0542
19112SOL    HW258778   1.080   4.258   7.833  0.9696 -1.7561  0.7554
19113SOL     OW58779   4.353   7.124   7.476  0.4171 -0.3606 -0.2913
19113SOL    HW158780   4.349   7.208   7.521 -2.3274 -0.5348 -0.0492
19113SOL    HW258781   4.392   7.064   7.539  0.3038  0.2464  0.3641
19114SOL     OW58782   4.721   1.589   5.240  0.1135 -0.2679  0.1025
19114SOL    HW158783   4.813   1.580   5.267  0.6992  2.7829 -0.4850
19114SOL    HW258784   4.718   1.547   5.154  1.7679  1.9676 -1.1627
19115SOL     OW58785   0.957   2.806   6.146  0.1362 -0.0015 -0.4414
19115SOL    HW158786   0.987   2.809   6.237  1.5416 -0.3386 -0.8623
19115SOL    HW258787   0.959   2.897   6.118  0.1314  0.0554 -0.2637
19116SOL     OW58788   7.155   3.214   8.082 -0.3708  0.2053 -0.7597
19116SOL    HW158789   7.233   3.160   8.099 -0.9218 -0.3201  0.1822
19116SOL    HW258790   7.103   3.163   8.021 -1.2310 -0.7115  0.6747
19117SOL     OW58791   7.165   3.643  10.162 -0.6668  0.1560 -0.5472
19117SOL    HW158792   7.089   3.611  10.113  0.4216 -0.5790 -1.8119
19117SOL    HW258793   7.222   3.567  10.170 -0.2132  0.6035  0.7287
19118SOL     OW58794   0.347   2.686  11.123  0.3189 -0.5511  0.1809
19118SOL    HW158795   0.437   2.717  11.139  0.7602 -1.0982 -1.0928
19118SOL    HW258796   0.348   2.656  11.032 -0.6650 -2.2439  0.6730
19119SOL     OW58797   1.520   4.267   6.614  0.3185 -0.2005 -0.2400
19119SOL    HW158798   1.594   4.306   6.661  0.5004 -0.7886 -0.0297
19119SOL    HW258799   1.534   4.173   6.621 -0.8487 -0.3389  0.4256
19120SOL     OW58800   5.621   3.010   5.040  0.2299  0.3667 -0.1192
19120SOL    HW158801   5.535   3.024   5.000  0.5215 -0.4591 -1.0916
19120SOL    HW258802   5.618   2.921   5.075  1.2751 -0.3969 -1.8310
19121SOL     OW58803   5.620   4.912   9.943 -0.0973 -0.3432  0.2710
19121SOL    HW158804   5.565   4.946   9.872 -0.1122 -1.4606 -0.2742
19121SOL    HW258805   5.623   4.818   9.928  2.0315 -0.3253  0.2476
19122SOL     OW58806   1.224   6.518  10.889 -0.3831 -0.1177 -0.3367
19122SOL    HW158807   1.228   6.474  10.804 -0.2281  1.2511 -1.0564
19122SOL    HW258808   1.178   6.456  10.946  0.3114 -1.4305 -1.1674
19123SOL     OW58809   2.043   5.940   8.977  0.3344  0.0533  0.0979
19123SOL    HW158810   2.034   5.881   9.051  0.1648  0.7000  0.5984
19123SOL    HW258811   2.120   5.993   8.997 -0.3953  1.0422  0.4057
19124SOL     OW58812   2.086   4.319   0.582  0.7974  0.4399 -0.4372
19124SOL    HW158813   2.032   4.379   0.633 -1.5472 -0.7554 -1.3534
19124SOL    HW258814   2.125   4.260   0.647 -0.3669  0.3169  0.1849
19125SOL     OW58815   4.938   4.286   7.205 -0.2433  0.6492  0.2163
19125SOL    HW158816   4.868   4.234   7.246  0.0040  1.1317  1.3002
19125SOL    HW258817   4.909   4.377   7.217  0.9558  0.9086  1.4870
19126SOL     OW58818   6.523   4.157   4.579  0.2218  0.0611 -0.4351
19126SOL    HW158819   6.433   4.142   4.552 -0.2784 -1.1002  1.6707
19126SOL    HW258820   6.527   4.250   4.599 -0.4300  0.1621 -0.7429
19127SOL     OW58821   7.885   2.635   2.752  0.2036 -0.3318 -0.3886
19127SOL    HW158822   7.945   2.595   2.688  1.4650 -0.8456  1.0612
19127SOL    HW258823   7.892   2.729   2.735  2.8161 -0.2136  0.8342
19128SOL     OW58824   6.322   4.544   3.204  0.1399  0.2713  0.1488
19128SOL    HW158825   6.409   4.554   3.243  1.0637 -1.4330 -1.3149
19128SOL    HW258826   6.327   4.462   3.155 -1.4094  1.4787 -2.2505
19129SOL     OW58827   2.518   5.574   4.625  0.1344 -0.4533 -0.1773
19129SOL    HW158828   2.564   5.490   4.626  2.4153  0.7142  0.2337
19129SOL    HW258829   2.588   5.639   4.621 -1.4105  1.5357  2.1829
19130SOL     OW58830   7.007   6.170  12.361 -0.1522 -0.0576 -0.3066
19130SOL    HW158831   6.967   6.083  12.357  2.7215 -1.4627 -0.7721
19130SOL    HW258832   6.995   6.198  12.451 -0.3067 -1.3699  0.1034
19131SOL     OW58833   3.073   5.454   0.290  0.1602  0.1959  0.0891
19131SOL    HW158834   3.154   5.504   0.282  0.3958 -0.2747 -0.5449
19131SOL    HW258835   3.050   5.461   0.382  0.7287  0.6316  0.2070
19132SOL     OW58836   1.052   3.898  10.706  0.4580  0.0107  0.1424
19132SOL    HW158837   1.112   3.937  10.642  1.0361 -0.7125  0.2312
19132SOL    HW258838   1.080   3.807  10.713  1.6283  0.5092  2.8378
19133SOL     OW58839   5.712   6.994   1.780  0.2519  0.2940  0.1593
19133SOL    HW158840   5.729   7.059   1.712  3.1201  1.4482  1.8017
19133SOL    HW258841   5.638   7.028   1.830  0.3415  1.1819 -0.3090
19134SOL     OW58842   1.955   0.273   1.268  0.1688  0.2430 -0.0395
19134SOL    HW158843   1.952   0.209   1.340 -0.0822  0.0226 -0.2432
19134SOL    HW258844   1.956   0.220   1.189  0.1208  0.4912 -0.2066
19135SOL     OW58845   6.848   6.586   5.843 -0.2731  1.0939 -0.2610
19135SOL    HW158846   6.830   6.556   5.754 -1.4092 -0.1948  0.3652
19135SOL    HW258847   6.764   6.620   5.874  0.0192  1.2035  0.4392
19136SOL     OW58848   1.004   4.354   0.203 -0.0176 -0.4622  0.3452
19136SOL    HW158849   0.924   4.384   0.248  0.8573  0.3278  1.4507
19136SOL    HW258850   1.044   4.435   0.171  0.2200 -0.8791 -0.4081
19137SOL     OW58851   7.300   3.768  12.084  0.3028  0.2424 -0.2214
19137SOL    HW158852   7.381   3.798  12.125  0.2564  1.5211 -1.0038
19137SOL    HW258853   7.323   3.754  11.992 -0.3397  0.5778 -0.4441
19138SOL     OW58854   4.057   6.439  10.173  0.3069  0.3383 -0.1423
19138SOL    HW158855   4.076   6.424  10.080  1.7355  0.1160  0.1505
19138SOL    HW258856   4.011   6.523  10.175 -0.7518 -0.2039 -1.1398
19139SOL     OW58857   1.559   0.682   3.693  0.9867 -0.0275 -0.4240
19139SOL    HW158858   1.520   0.658   3.609  2.9747 -2.0430 -0.8910
19139SOL    HW258859   1.595   0.770   3.679 -0.0587  0.2937 -1.1677
19140SOL     OW58860   6.012   1.607   8.114  0.3130  0.1371  0.4503
19140SOL    HW158861   5.922   1.627   8.088  1.0545  0.0827 -2.5028
19140SOL    HW258862   6.060   1.689   8.103  0.8368 -0.0917  0.9576
19141SOL     OW58863   2.443   2.636  10.497 -0.1838  0.3799 -0.1029
19141SOL    HW158864   2.412   2.726  10.504 -0.6464  0.2112  0.0436
19141SOL    HW258865   2.434   2.601  10.586  2.1780  0.8758  0.4004
19142SOL     OW58866   2.176   3.898   4.720 -0.2964 -0.0506 -0.0978
19142SOL    HW158867   2.190   3.976   4.666 -0.7465  1.9952  2.5344
19142SOL    HW258868   2.122   3.841   4.665  1.3737  0.7305 -2.7166
19143SOL     OW58869   3.499   1.802   2.270  0.3258  0.0659  0.0730
19143SOL    HW158870   3.478   1.896   2.272 -0.7906 -0.1783  0.3138
19143SOL    HW258871   3.487   1.777   2.179 -1.6531 -0.3143  0.3929
19144SOL     OW58872   7.622   6.313   0.492  0.0065  0.3143 -0.0338
19144SOL    HW158873   7.605   6.399   0.531  1.5987  0.3554  0.6558
19144SOL    HW258874   7.655   6.333   0.405  0.3526  0.4023  0.1171
19145SOL     OW58875   3.526   2.357   7.249  0.9523  0.3427  0.3718
19145SOL    HW158876   3.595   2.373   7.313  0.6754 -0.1953  0.8144
19145SOL    HW258877   3.444   2.370   7.297  0.7302 -1.0832  0.4250
19146SOL     OW58878   6.947   6.422   6.266 -0.0038  0.2215 -0.7170
19146SOL    HW158879   7.042   6.421   6.260  0.1067  0.4674  0.7336
19146SOL    HW258880   6.928   6.393   6.355 -1.2425  1.2821 -0.6021
19147SOL     OW58881   2.072   2.880   8.440  0.2505  0.5793 -0.1643
19147SOL    HW158882   2.029   2.962   8.417  1.9185  1.7768  0.7721
19147SOL    HW258883   2.114   2.851   8.359  0.0612  0.9165 -0.3830
19148SOL     OW58884   0.440   3.070   8.418 -0.0671 -0.6505 -0.1569
19148SOL    HW158885   0.375   3.044   8.352 -1.2004  0.6325  0.3902
19148SOL    HW258886   0.397   3.052   8.502  1.3152 -2.1627  0.2733
19149SOL     OW58887   5.543   4.587   4.610  0.1297  0.0391  0.4571
19149SOL    HW158888   5.501   4.673   4.605 -0.3504 -0.2543 -1.2949
19149SOL    HW258889   5.490   4.537   4.671  0.0905  0.8079  1.0661
19150SOL     OW58890   7.595   6.043   3.523 -0.3149  0.1822 -0.1169
19150SOL    HW158891   7.518   6.058   3.467  0.7491  2.0096 -1.2068
19150SOL    HW258892   7.637   6.129   3.528  1.4371 -0.6865  0.8045
19151SOL     OW58893   0.602   2.861   6.000  0.4803 -0.4026  0.2537
19151SOL    HW158894   0.544   2.804   5.950  0.7755  1.0525 -1.9029
19151SOL    HW258895   0.688   2.848   5.962  1.0951 -0.5871  1.6497
19152SOL     OW58896   5.365   7.760   0.399  0.0951  0.0581  0.1602
19152SOL    HW158897   5.384   7.848   0.366  0.9221  0.2610  1.1253
19152SOL    HW258898   5.272   7.762   0.421 -0.8701 -0.4772 -3.2140
19153SOL     OW58899   7.522   1.972   7.618  0.1029  0.2551 -0.3796
19153SOL    HW158900   7.532   1.934   7.705 -2.9692  1.2899  0.5464
19153SOL    HW258901   7.596   2.032   7.610  0.0665  0.6919  1.8674
19154SOL     OW58902   7.444   6.541  10.864 -0.6948 -0.3772 -0.4952
19154SOL    HW158903   7.378   6.492  10.914 -0.5190  0.7267  0.8547
19154SOL    HW258904   7.528   6.505  10.894 -0.5078  1.4527  1.3602
19155SOL     OW58905   6.165   4.613   9.247  0.6153  0.4908  0.3704
19155SOL    HW158906   6.145   4.580   9.335  1.2307  0.3368  0.4528
19155SOL    HW258907   6.247   4.661   9.257  0.3495  1.0333  0.0058
19156SOL     OW58908   7.984   7.844   6.449  0.2929  0.0447 -0.4759
19156SOL    HW158909   8.072   7.876   6.470  1.1573 -1.4580 -1.5652
19156SOL    HW258910   7.944   7.824   6.534  1.7110 -0.9588 -0.0056
19157SOL     OW58911   5.334   4.457  10.369  0.0817 -0.6202 -0.2001
19157SOL    HW158912   5.380   4.465  10.286  1.5718  4.4681  0.8215
19157SOL    HW258913   5.253   4.507  10.357  0.3439  0.2503  1.3498
19158SOL     OW58914   7.050   4.799   6.450  0.1236  0.0553  0.0482
19158SOL    HW158915   7.021   4.840   6.531  0.0004  2.5582 -1.1819
19158SOL    HW258916   7.124   4.744   6.476 -0.9486 -0.5111  2.0706
19159SOL     OW58917   5.561   0.123   4.677  0.0162  0.2830 -0.0356
19159SOL    HW158918   5.492   0.175   4.636 -0.7685 -1.1689 -0.6410
19159SOL    HW258919   5.637   0.181   4.680 -1.0852  1.7660  0.2103
19160SOL     OW58920   2.324   7.433   3.448  0.0770  0.1195  0.8889
19160SOL    HW158921   2.250   7.441   3.508 -2.2438  0.4562 -1.8000
19160SOL    HW258922   2.314   7.345   3.411 -0.0112  0.7534 -0.6750
19161SOL     OW58923   5.646   2.636   2.587  0.1276  0.1676 -0.3906
19161SOL    HW158924   5.616   2.691   2.515 -0.2199  1.2343  0.5310
19161SOL    HW258925   5.712   2.690   2.632  1.0305 -0.8489 -0.4527
19162SOL     OW58926   2.490   7.573   6.638  0.1788  0.5192 -0.0978
19162SOL    HW158927   2.527   7.503   6.584 -1.9429  0.4202 -1.4989
19162SOL    HW258928   2.559   7.592   6.702  2.2032 -0.3653 -1.9071
19163SOL     OW58929   0.644   7.958   4.207  0.3377  0.0376  0.2919
19163SOL    HW158930   0.554   7.983   4.228 -0.3115 -1.7200 -0.2851
19163SOL    HW258931   0.648   7.961   4.112 -0.0698 -2.8706  0.1131
19164SOL     OW58932   5.590   4.361   5.429 -0.2335 -0.5100 -0.1623
19164SOL    HW158933   5.643   4.302   5.376  0.1042 -1.6460  1.3654
19164SOL    HW258934   5.509   4.313   5.444 -1.1728  0.6443 -1.3112
19165SOL     OW58935   1.958   0.590   5.217 -0.3726  0.1649 -0.4014
19165SOL    HW158936   1.863   0.601   5.218 -0.4221  0.0607  2.2033
19165SOL    HW258937   1.971   0.499   5.188 -1.2168 -0.4926  1.1518
19166SOL     OW58938   3.902   5.403   8.842  0.1302  0.8058 -0.7769
19166SOL    HW158939   3.949   5.323   8.820 -1.3481  0.0909 -1.4693
19166SOL    HW258940   3.814   5.390   8.806 -0.2510  2.5880 -0.5799
19167SOL     OW58941   0.472   3.693   8.704 -0.7745 -0.3669  0.5598
19167SOL    HW158942   0.530   3.618   8.717 -2.2440 -1.8723 -1.0447
19167SOL    HW258943   0.516   3.765   8.749  1.7105 -1.7028  0.4575
19168SOL     OW58944   0.738   3.293   5.097 -0.8638  0.0953 -0.5129
19168SOL    HW158945   0.718   3.239   5.174 -1.0663 -0.2340 -0.7954
19168SOL    HW258946   0.834   3.290   5.090 -0.6032  1.9628  1.0532
19169SOL     OW58947   3.698   6.264   1.721  0.0315 -0.3908 -0.3365
19169SOL    HW158948   3.620   6.210   1.708  0.3532 -0.9394 -0.0487
19169SOL    HW258949   3.664   6.352   1.738 -0.5514 -0.7735  0.5499
19170SOL     OW58950   1.605   5.527   5.010 -0.5616 -0.4153  0.0973
19170SOL    HW158951   1.539   5.590   4.982  1.0091  0.9335 -0.6858
19170SOL    HW258952   1.554   5.453   5.044 -2.4873  0.1369 -1.3950
19171SOL     OW58953   6.060   2.054   8.770  0.2206 -0.1256 -0.3429
19171SOL    HW158954   5.988   1.991   8.766  1.0905 -1.2574  0.9896
19171SOL    HW258955   6.017   2.139   8.763 -1.0391 -0.8112 -1.5769
19172SOL     OW58956   4.187   4.988   2.093  0.9035 -0.1134  0.2879
19172SOL    HW158957   4.177   4.895   2.113 -1.0062 -0.0229 -0.0711
19172SOL    HW258958   4.280   4.998   2.072  1.0441 -2.0330 -0.1721
19173SOL     OW58959   4.479   6.761   3.680 -0.2477 -0.1442  0.4254
19173SOL    HW158960   4.542   6.812   3.731 -0.0877  1.0120 -0.8996
19173SOL    HW258961   4.460   6.814   3.603  0.0837 -2.1571 -1.1376
19174SOL     OW58962   5.529   5.922   0.739  0.3915 -0.0636 -0.1085
19174SOL    HW158963   5.615   5.952   0.710 -0.5627  1.6345 -1.4002
19174SOL    HW258964   5.518   5.837   0.698  0.4814  0.7924 -2.0183
19175SOL     OW58965   0.479   1.200   7.111 -0.1631 -0.2963  0.4592
19175SOL    HW158966   0.404   1.222   7.166 -0.4137  0.2173 -0.0787
19175SOL    HW258967   0.453   1.226   7.022 -0.7727 -3.3944 -0.4045
19176SOL     OW58968   0.812   3.892  10.908 -0.2435 -0.3075  0.1223
19176SOL    HW158969   0.824   3.987  10.914 -2.0812  0.0092 -0.6775
19176SOL    HW258970   0.877   3.864  10.844  1.8157  0.0395  1.9492
19177SOL     OW58971   4.940   5.721   3.316 -0.6037 -0.0405 -0.3252
19177SOL    HW158972   4.920   5.799   3.367  0.6347 -1.0787  1.8986
19177SOL    HW258973   4.857   5.674   3.309 -0.7222 -0.1119  1.2294
19178SOL     OW58974   5.446   1.278   3.971 -0.3264  0.0611 -0.4112
19178SOL    HW158975   5.537   1.274   4.000 -0.7499 -0.6134  0.9198
19178SOL    HW258976   5.395   1.267   4.052 -1.6140  2.4723 -0.8168
19179SOL     OW58977   5.269   7.943   0.150  0.6650 -0.6515  0.1988
19179SOL    HW158978   5.306   7.870   0.101 -0.4327 -1.4669  0.5712
19179SOL    HW258979   5.180   7.953   0.116  0.5117 -0.0424  0.7493
19180SOL     OW58980   1.467   1.134   2.643 -0.0007 -0.3539  0.1505
19180SOL    HW158981   1.397   1.132   2.578  0.1619 -0.9486 -0.0103
19180SOL    HW258982   1.534   1.191   2.604 -0.5378  0.4982  0.4583
19181SOL     OW58983   4.635   4.968  10.110  0.6635  0.1706 -0.4180
19181SOL    HW158984   4.668   5.042  10.059  4.1424 -0.7344  0.2293
19181SOL    HW258985   4.668   4.983  10.199 -1.4609 -0.5056  0.5529
19182SOL     OW58986   1.129   1.227  10.444  0.3072  0.4663 -0.4136
19182SOL    HW158987   1.081   1.154  10.404 -0.1273  0.4268  0.1661
19182SOL    HW258988   1.130   1.207  10.537 -0.5480  1.5905 -0.1335
19183SOL     OW58989   5.756   2.085   7.889 -0.3501 -0.5403  0.2067
19183SOL    HW158990   5.692   2.148   7.855  0.4914 -0.4982 -1.3911
19183SOL    HW258991   5.817   2.138   7.941 -0.1893 -0.1737 -0.3432
19184SOL     OW58992   0.154   6.223   3.674 -0.0186 -0.0119 -0.3057
19184SOL    HW158993   0.138   6.157   3.607 -0.2922 -0.6447  0.3606
19184SOL    HW258994   0.140   6.177   3.757  1.3021  0.4787  0.2220
19185SOL     OW58995   2.499   3.862   5.030  0.1036  0.1317  0.2817
19185SOL    HW158996   2.447   3.829   5.103  0.6829  0.6865  0.9612
19185SOL    HW258997   2.452   3.941   5.001 -1.5612 -1.4238 -1.6670
19186SOL     OW58998   0.027   5.401   1.464 -0.3881 -0.1905  0.0084
19186SOL    HW158999   0.103   5.454   1.440 -0.6738  0.5589  0.6781
19186SOL    HW259000  -0.020   5.388   1.382 -0.2563  0.5273 -0.1913
19187SOL     OW59001   2.711   7.246  11.135 -0.2453 -0.1441  0.2348
19187SOL    HW159002   2.701   7.175  11.199 -0.7908 -0.6942 -0.4516
19187SOL    HW259003   2.645   7.228  11.068  0.0121  0.6824 -0.2566
19188SOL     OW59004   7.603   0.473   8.882 -0.1685 -0.3001 -0.4845
19188SOL    HW159005   7.614   0.389   8.927  0.9746  1.6366  3.3613
19188SOL    HW259006   7.514   0.500   8.903 -0.2568 -0.1835 -0.9959
19189SOL     OW59007   2.272   0.631   3.922 -0.4480  0.2088  0.8898
19189SOL    HW159008   2.345   0.570   3.930 -1.8392 -2.0044 -1.6831
19189SOL    HW259009   2.235   0.635   4.010  2.6660  1.4339  2.2805
19190SOL     OW59010   7.325   5.071   4.450 -0.2504  0.0540  0.0914
19190SOL    HW159011   7.286   5.086   4.536  0.1490 -0.7382  0.4228
19190SOL    HW259012   7.371   5.153   4.430 -0.2921  0.2246  0.6641
19191SOL     OW59013   7.438   5.720   0.732  0.3863  0.0102  0.7742
19191SOL    HW159014   7.421   5.813   0.719  1.6426 -0.1066 -2.8936
19191SOL    HW259015   7.514   5.717   0.789  0.4763  1.2544  0.7454
19192SOL     OW59016   4.132   7.414   7.249 -0.3933 -0.4177 -0.7713
19192SOL    HW159017   4.091   7.390   7.332 -1.6693 -1.0941 -1.5627
19192SOL    HW259018   4.065   7.396   7.183  0.4409  0.4981 -1.9188
19193SOL     OW59019   3.300   0.845   7.897 -0.1486 -0.5142 -0.3200
19193SOL    HW159020   3.338   0.761   7.871 -1.1788 -0.8863 -0.6883
19193SOL    HW259021   3.234   0.863   7.829  1.5192  1.6650 -1.4614
19194SOL     OW59022   0.660   5.385  11.593 -0.1893  0.0711  0.8299
19194SOL    HW159023   0.593   5.452  11.599 -0.7348 -0.3324 -0.4127
19194SOL    HW259024   0.726   5.422  11.535 -0.6288 -0.5608 -0.0926
19195SOL     OW59025   3.259   0.945   2.704  0.4231  0.0065  0.4829
19195SOL    HW159026   3.218   0.940   2.617 -0.1321  0.8098  0.6804
19195SOL    HW259027   3.219   0.875   2.754  0.3193 -0.0966  0.2570
19196SOL     OW59028   0.437   0.450   4.017 -0.7726  0.0659  0.1372
19196SOL    HW159029   0.481   0.434   4.100 -2.8952 -2.7753  0.9135
19196SOL    HW259030   0.503   0.431   3.950  0.6554  1.3380  1.1277
19197SOL     OW59031   0.147   7.754  10.649 -0.0183  0.8570  0.8294
19197SOL    HW159032   0.172   7.817  10.717 -3.0720  0.1802  2.7973
19197SOL    HW259033   0.136   7.671  10.696  3.3395 -1.1650 -1.5951
19198SOL     OW59034   5.546   1.388   1.753  0.0067  0.5882  0.6982
19198SOL    HW159035   5.586   1.434   1.680  1.8415 -0.9424  0.6606
19198SOL    HW259036   5.469   1.344   1.715  2.1621 -2.0635 -1.0022
19199SOL     OW59037   1.990   7.564   5.523 -0.2195  0.2295 -0.2068
19199SOL    HW159038   1.972   7.625   5.594 -2.1328 -0.6460  0.1180
19199SOL    HW259039   2.030   7.488   5.566 -1.5478 -0.3762 -0.0186
19200SOL     OW59040   6.569   2.380  10.797 -0.0885  0.1004  0.4172
19200SOL    HW159041   6.544   2.350  10.710  0.5953  0.4484  0.0994
19200SOL    HW259042   6.601   2.301  10.841 -0.5449 -0.0990  0.4010
19201SOL     OW59043   6.743   6.564   3.140 -0.3476  0.4841  0.5266
19201SOL    HW159044   6.805   6.628   3.108 -0.1646  0.0525  0.0036
19201SOL    HW259045   6.788   6.521   3.214  0.0883 -0.0057 -0.0119
19202SOL     OW59046   0.778   0.646  10.656 -0.0661  0.7938 -0.1738
19202SOL    HW159047   0.854   0.608  10.611  0.3937 -0.0560  1.2381
19202SOL    HW259048   0.703   0.601  10.617  0.2661  0.6166 -0.6192
19203SOL     OW59049   1.287   0.204   9.199  0.4400 -0.1829  0.2744
19203SOL    HW159050   1.290   0.116   9.235 -0.6668  0.0716  1.0295
19203SOL    HW259051   1.284   0.191   9.104  1.8400 -0.8937  0.2967
19204SOL     OW59052   7.262   4.164   4.955 -0.7281 -0.2310 -0.2539
19204SOL    HW159053   7.246   4.174   4.861 -2.8135  0.0380  0.0797
19204SOL    HW259054   7.179   4.130   4.990 -0.3756  0.7366  1.6599
19205SOL     OW59055   6.429   5.071   5.240  0.1336  0.3862  0.1892
19205SOL    HW159056   6.391   4.985   5.226 -0.4417  0.5801  0.5427
19205SOL    HW259057   6.431   5.082   5.335  1.7871  0.0654  0.2275
19206SOL     OW59058   6.965   4.811   4.515 -0.4388 -0.1851 -0.4803
19206SOL    HW159059   7.002   4.815   4.603 -1.0597  2.1226 -0.2628
19206SOL    HW259060   7.037   4.838   4.457 -0.2107 -1.1007 -0.6368
19207SOL     OW59061   7.727   6.561   1.096 -0.1348 -0.2780  0.4228
19207SOL    HW159062   7.784   6.513   1.157 -0.5520 -5.7788 -2.8759
19207SOL    HW259063   7.639   6.549   1.131 -0.0028  1.1746  1.3253
19208SOL     OW59064   4.065   1.252   5.822 -0.2405  0.6282  0.3576
19208SOL    HW159065   3.999   1.274   5.888  0.7428 -0.8267  1.9092
19208SOL    HW259066   4.051   1.159   5.804  1.1953  0.3504  0.5416
19209SOL     OW59067   6.906   0.030   3.603 -0.0615 -0.0777  0.8063
19209SOL    HW159068   6.824   0.080   3.606 -0.8622 -1.3884  3.3628
19209SOL    HW259069   6.879  -0.061   3.612  1.6519 -0.6267  0.7541
19210SOL     OW59070   5.367   6.999   3.293 -0.4277 -0.2161 -0.0936
19210SOL    HW159071   5.448   6.950   3.309  0.4465  1.0709 -0.4541
19210SOL    HW259072   5.391   7.065   3.227 -1.0931  1.8091  1.5731
19211SOL     OW59073   3.169   3.437  10.017  0.7806 -0.9635 -0.1411
19211SOL    HW159074   3.177   3.517   9.965  0.9397 -0.7908  0.1446
19211SOL    HW259075   3.256   3.397  10.014  0.2668 -2.0350 -1.7156
19212SOL     OW59076   4.923   5.743   1.186 -0.3898 -0.7547  0.1662
19212SOL    HW159077   4.892   5.808   1.250 -0.6651 -1.5069  0.8043
19212SOL    HW259078   5.004   5.781   1.152  0.1925 -0.7059  1.5572
19213SOL     OW59079   0.714   4.475   1.812 -0.0234 -0.0446  0.0454
19213SOL    HW159080   0.752   4.507   1.894 -1.0422  1.6740 -0.1061
19213SOL    HW259081   0.658   4.547   1.782  0.0579 -0.7660 -1.9876
19214SOL     OW59082   2.870   5.521   1.930  0.3996 -0.7496 -0.4094
19214SOL    HW159083   2.802   5.515   1.862  0.0353  2.2345 -0.4504
19214SOL    HW259084   2.936   5.579   1.892  2.1888 -2.2085  0.3181
19215SOL     OW59085   7.101   1.081   1.619  0.1137  0.1648 -0.0698
19215SOL    HW159086   7.140   1.056   1.535  0.9692 -0.6516  0.5529
19215SOL    HW259087   7.086   1.175   1.612  1.3878  0.3399 -0.6592
19216SOL     OW59088   6.733   6.772   1.051 -0.0351 -0.4152  0.7851
19216SOL    HW159089   6.693   6.784   0.964  0.6580  0.7674  0.6141
19216SOL    HW259090   6.724   6.678   1.068  0.0436 -0.7164 -0.6832
19217SOL     OW59091   1.524   1.815  11.535 -0.1570 -0.6217 -0.6146
19217SOL    HW159092   1.536   1.809  11.630  1.1063  0.3976 -0.6910
19217SOL    HW259093   1.591   1.758  11.498  0.8920  0.7468 -0.9158
19218SOL     OW59094   0.963   5.231   4.625  0.0397 -0.5421  0.1352
19218SOL    HW159095   0.885   5.215   4.679  0.2336 -2.2509 -0.0310
19218SOL    HW259096   0.988   5.321   4.645  1.2459 -1.6075  4.4522
19219SOL     OW59097   5.507   1.981  10.643 -0.0638  0.0225 -0.0217
19219SOL    HW159098   5.421   2.019  10.660  0.8876  1.7493  1.2440
19219SOL    HW259099   5.528   1.933  10.723  0.8430  1.0714  0.4021
19220SOL     OW59100   4.815   7.502   4.440  0.7547  0.0016 -0.1612
19220SOL    HW159101   4.845   7.587   4.474  2.6218 -0.8201  0.3484
19220SOL    HW259102   4.861   7.437   4.493  0.9106 -1.3221 -1.8328
19221SOL     OW59103   1.082   7.075   3.271 -0.0372 -0.4329  0.9296
19221SOL    HW159104   1.046   7.132   3.339 -1.0356  0.6041 -0.4175
19221SOL    HW259105   1.149   7.128   3.228 -0.6810 -0.3844 -0.0566
19222SOL     OW59106   1.224   5.233   9.265 -0.2937  0.0173  0.0386
19222SOL    HW159107   1.233   5.272   9.352 -0.0212 -0.3198  0.1595
19222SOL    HW259108   1.140   5.186   9.269 -1.3056  1.6724 -0.5286
19223SOL     OW59109   5.668   2.989   9.156 -0.0384 -0.1249 -0.3266
19223SOL    HW159110   5.688   2.895   9.152  0.9527  0.0859 -0.5846
19223SOL    HW259111   5.576   2.995   9.130 -0.1527 -1.0366 -0.1788
19224SOL     OW59112   1.792   5.764  10.576 -0.5062  0.1790 -0.4860
19224SOL    HW159113   1.736   5.752  10.500 -1.1469  1.9312 -0.3264
19224SOL    HW259114   1.764   5.697  10.638 -0.8039 -0.4726 -1.3140
19225SOL     OW59115   0.402   5.863   2.176 -0.0909 -0.2276 -0.0028
19225SOL    HW159116   0.417   5.780   2.223 -1.2453  0.2756  1.3004
19225SOL    HW259117   0.452   5.928   2.225  0.3274 -0.0209 -0.6776
19226SOL     OW59118   6.079   5.088   6.350 -0.5997  0.1935 -0.5626
19226SOL    HW159119   6.006   5.092   6.288 -0.9007  1.0221 -0.1676
19226SOL    HW259120   6.068   5.166   6.405  1.1955  0.9089 -1.1666
19227SOL     OW59121   7.147   0.072   7.853 -0.7929 -0.2719 -0.3910
19227SOL    HW159122   7.149   0.045   7.761 -1.6913  0.1614 -0.5463
19227SOL    HW259123   7.055   0.065   7.878 -1.2142  3.0813 -0.5676
19228SOL     OW59124   1.421   7.526   0.050  0.1739  0.0588  0.1633
19228SOL    HW159125   1.342   7.505   0.001 -0.5590  1.0006  0.8909
19228SOL    HW259126   1.492   7.482   0.003 -0.4429  1.1367 -1.9057
19229SOL     OW59127   1.948   4.016   0.450 -0.0652  0.4190 -0.5535
19229SOL    HW159128   2.010   4.077   0.488 -0.7334  0.6122  0.2481
19229SOL    HW259129   2.000   3.964   0.389  1.0990 -0.0757  0.8041
19230SOL     OW59130   6.404   7.452   4.875 -0.4029 -0.0988 -0.0961
19230SOL    HW159131   6.330   7.498   4.835 -1.1893  0.8922  2.3255
19230SOL    HW259132   6.369   7.419   4.958  1.9805  0.8554  1.3835
19231SOL     OW59133   0.096   1.627   8.669 -0.0783 -0.4736  0.0530
19231SOL    HW159134   0.133   1.544   8.641  0.8426  1.3163 -4.9761
19231SOL    HW259135   0.171   1.685   8.679 -0.8785  0.5861  0.1771
19232SOL     OW59136   7.091   0.073   1.142 -0.5680  0.3488 -0.3453
19232SOL    HW159137   7.163   0.039   1.088 -2.3907 -2.8222 -0.9917
19232SOL    HW259138   7.056   0.146   1.091 -0.2672 -0.5897 -1.9566
19233SOL     OW59139   7.878   1.291  10.601 -0.0545 -0.1167  0.2793
19233SOL    HW159140   7.872   1.342  10.521 -0.0789 -0.5065  0.0308
19233SOL    HW259141   7.940   1.339  10.656  0.9494 -0.5286 -0.4820
19234SOL     OW59142   5.112   7.491  11.292 -0.8382 -0.5102  0.1202
19234SOL    HW159143   5.033   7.454  11.332 -0.4030 -0.2166  1.3095
19234SOL    HW259144   5.123   7.576  11.335  0.2874 -0.6754  0.1936
19235SOL     OW59145   1.639   1.413   5.399 -0.4550 -0.2191 -0.2932
19235SOL    HW159146   1.599   1.397   5.314 -1.7733  1.0027  0.0549
19235SOL    HW259147   1.583   1.480   5.439  0.9836  0.3066  0.9232
19236SOL     OW59148   0.115   6.090   1.138 -0.6051  0.0725 -0.3066
19236SOL    HW159149   0.096   6.022   1.203 -0.7495  0.1936 -0.2202
19236SOL    HW259150   0.123   6.171   1.190  1.3589 -0.1459 -0.1716
19237SOL     OW59151   6.175   0.414   5.596 -0.1709  0.2174 -0.3245
19237SOL    HW159152   6.233   0.473   5.546 -1.3714  0.7331 -1.1647
19237SOL    HW259153   6.130   0.363   5.529 -0.8829  0.0225  0.2948
19238SOL     OW59154   3.410   6.152   0.506  0.2321  0.1015 -0.2470
19238SOL    HW159155   3.370   6.235   0.531 -0.2307 -0.0551 -0.4593
19238SOL    HW259156   3.385   6.139   0.414  0.3306 -0.2505 -0.2272
19239SOL     OW59157   4.730   5.403  10.458 -0.2648 -0.0406  0.2793
19239SOL    HW159158   4.796   5.421  10.391 -0.7558  1.3974  0.1417
19239SOL    HW259159   4.743   5.470  10.524  1.7605 -2.7763  2.9487
19240SOL     OW59160   1.359   6.251   8.356  0.3134 -0.3833  0.3401
19240SOL    HW159161   1.345   6.335   8.400 -1.5133 -0.1250 -0.6293
19240SOL    HW259162   1.438   6.216   8.395  2.7758  3.0326 -1.0996
19241SOL     OW59163   6.211   6.953   0.025  0.3632  0.6910 -0.0879
19241SOL    HW159164   6.179   7.040   0.000  1.1797  1.5868  1.7771
19241SOL    HW259165   6.276   6.970   0.094 -0.0966 -1.4339  0.9666
19242SOL     OW59166   1.881   5.625   5.564 -0.2768  0.8521  0.7372
19242SOL    HW159167   1.798   5.580   5.543 -0.7387  1.9198  0.2005
19242SOL    HW259168   1.919   5.645   5.478  1.3092 -0.9278  0.9508
19243SOL     OW59169   2.599   4.957   6.600  0.4529  0.2560  0.6026
19243SOL    HW159170   2.593   4.927   6.690 -2.3183  1.1841  0.8060
19243SOL    HW259171   2.545   5.035   6.596 -0.3352 -0.3080 -2.0667
19244SOL     OW59172   4.126   4.191   0.749  0.0107  0.1163 -0.3098
19244SOL    HW159173   4.102   4.210   0.658  0.9129 -0.6414 -0.7251
19244SOL    HW259174   4.043   4.191   0.796 -0.8255 -2.0258 -1.6023
19245SOL     OW59175   4.236   4.209   5.216 -0.2018  0.5507  0.2294
19245SOL    HW159176   4.249   4.275   5.147  0.3623 -0.1978 -0.3973
19245SOL    HW259177   4.259   4.254   5.297 -1.9412  1.7944  0.1021
19246SOL     OW59178   7.329   0.760   3.922  0.1145  0.0293  0.0563
19246SOL    HW159179   7.352   0.750   3.829 -0.4784 -1.1605  0.0130
19246SOL    HW259180   7.347   0.674   3.960 -1.1888  0.0221  0.6945
19247SOL     OW59181   4.217   7.467  10.125  0.0903 -0.4857 -1.0602
19247SOL    HW159182   4.226   7.371  10.120 -0.1524 -0.7907  2.4231
19247SOL    HW259183   4.127   7.481  10.154  0.7912  0.6483  0.7007
19248SOL     OW59184   3.080   7.889   5.816 -0.4950  0.5092 -0.4170
19248SOL    HW159185   3.087   7.837   5.736 -1.4446  0.9770 -0.8149
19248SOL    HW259186   3.162   7.872   5.863 -0.3603 -0.5472 -1.0119
19249SOL     OW59187   7.764   7.667  10.920  0.3739 -0.0613  0.5151
19249SOL    HW159188   7.714   7.607  10.865 -1.7399  0.7761  1.4021
19249SOL    HW259189   7.821   7.610  10.972 -1.6180 -1.3904  1.3885
19250SOL     OW59190   1.941   1.652   7.853 -0.0297  0.4326 -0.6043
19250SOL    HW159191   2.026   1.607   7.855  1.0928  2.4241  1.1987
19250SOL    HW259192   1.877   1.582   7.864  1.6397 -0.8297  2.7946
19251SOL     OW59193   1.155   6.176   2.772  0.1940  0.0818 -0.5118
19251SOL    HW159194   1.203   6.220   2.702  0.4372 -0.5253 -0.7344
19251SOL    HW259195   1.077   6.140   2.730  0.6498 -0.8178 -0.6132
19252SOL     OW59196   2.684   0.807   2.627 -0.4752  0.0530 -0.4419
19252SOL    HW159197   2.667   0.785   2.535 -0.6095 -2.2057  0.0466
19252SOL    HW259198   2.603   0.783   2.672 -2.0746  4.9541 -0.1021
19253SOL     OW59199   6.035   5.366  11.169  0.0388  0.5524 -0.5430
19253SOL    HW159200   6.105   5.366  11.104 -0.6359  0.8885 -1.2731
19253SOL    HW259201   5.988   5.285  11.153  0.1826  0.3815 -0.1225
19254SOL     OW59202   2.828   6.860   4.609  0.2379  0.0579 -0.3527
19254SOL    HW159203   2.793   6.942   4.573  0.9496  0.5842  0.1210
19254SOL    HW259204   2.820   6.797   4.538  1.7770  1.1098 -1.5265
19255SOL     OW59205   7.860   6.874   8.035 -0.0464 -0.2485 -0.3603
19255SOL    HW159206   7.817   6.791   8.015 -0.3617 -0.0967 -0.3213
19255SOL    HW259207   7.871   6.917   7.950  0.8286 -0.6678 -0.4713
19256SOL     OW59208   7.169   3.989   8.239  0.1588  0.3571 -0.4442
19256SOL    HW159209   7.164   4.029   8.152 -0.8086 -0.3309 -0.7138
19256SOL    HW259210   7.079   3.993   8.273  0.6846  1.5163  0.9547
19257SOL     OW59211   7.335   1.084   8.510  0.0702 -0.3458  0.3084
19257SOL    HW159212   7.405   1.019   8.518 -1.2421 -1.7663  1.1187
19257SOL    HW259213   7.283   1.071   8.590 -1.6168 -0.0145 -0.6913
19258SOL     OW59214   5.839   7.192   8.877  0.1919  0.3309  0.5308
19258SOL    HW159215   5.924   7.226   8.904  0.0936  2.3559 -1.3678
19258SOL    HW259216   5.776   7.256   8.912 -0.0066  2.4072 -3.1046
19259SOL     OW59217   7.940   6.577   1.384  0.4990 -0.2508  0.0767
19259SOL    HW159218   7.975   6.623   1.308  0.9527  0.0266  0.4500
19259SOL    HW259219   7.933   6.486   1.356 -0.2402  0.0085 -0.6060
19260SOL     OW59220   1.068   1.772   7.738 -0.4492  0.3281  0.0468
19260SOL    HW159221   1.149   1.750   7.692  0.0857  1.7932  0.2531
19260SOL    HW259222   1.033   1.848   7.691 -2.6391 -1.2759 -1.1071
19261SOL     OW59223   6.712   1.041   3.032 -0.2124  0.5417 -0.5998
19261SOL    HW159224   6.803   1.061   3.056 -0.0210  1.4496 -1.9708
19261SOL    HW259225   6.696   1.093   2.953 -1.5887 -0.4247 -0.9903
19262SOL     OW59226   3.117   5.848   2.545  0.1133  0.2932  0.3410
19262SOL    HW159227   3.064   5.881   2.473 -1.6429 -1.4172  0.7880
19262SOL    HW259228   3.054   5.820   2.611  1.6225 -0.2172  1.6323
19263SOL     OW59229   4.389   7.516   1.394  0.3273  0.3305 -0.6192
19263SOL    HW159230   4.354   7.579   1.331 -0.7477  0.5737  0.1840
19263SOL    HW259231   4.479   7.500   1.365  0.4907  1.9140 -1.0680
19264SOL     OW59232   6.019   5.068  11.158 -0.1987  0.4747  0.2714
19264SOL    HW159233   6.112   5.052  11.138 -0.1614  0.7825  0.1993
19264SOL    HW259234   5.981   4.980  11.166  0.3365  0.3358  1.4517
19265SOL     OW59235   3.906   0.660  12.153  0.0875  0.1709  0.0608
19265SOL    HW159236   3.993   0.700  12.146 -0.3026  0.7466 -3.4656
19265SOL    HW259237   3.855   0.723  12.203  0.6456  2.0316 -1.5846
19266SOL     OW59238   1.936   7.452   2.139 -0.4323  0.0598  0.8545
19266SOL    HW159239   1.996   7.493   2.200 -0.6138 -0.3358  1.3044
19266SOL    HW259240   1.942   7.358   2.157 -0.4943 -0.0620  0.2741
19267SOL     OW59241   0.478   3.260   2.327 -0.3678  0.3554  0.3646
19267SOL    HW159242   0.524   3.200   2.386 -4.2870 -2.1662  1.2428
19267SOL    HW259243   0.493   3.224   2.240 -2.4986 -2.0557  0.8606
19268SOL     OW59244   2.227   2.017   4.377  0.3829  0.0314  0.0564
19268SOL    HW159245   2.257   2.003   4.467 -1.0426 -0.7110  0.4387
19268SOL    HW259246   2.261   1.942   4.329  1.4666  0.6161 -0.1468
19269SOL     OW59247   3.369   0.339   3.979  0.1527  0.0274 -0.3694
19269SOL    HW159248   3.410   0.259   3.946  0.6122 -0.8579  2.1394
19269SOL    HW259249   3.276   0.326   3.964  0.3764 -0.0851 -1.7620
19270SOL     OW59250   1.892   1.539   1.574 -0.0037 -0.1935 -0.1815
19270SOL    HW159251   1.909   1.472   1.640  2.0381  0.6074  0.1908
19270SOL    HW259252   1.842   1.607   1.620  0.3147 -0.2141  0.1950
19271SOL     OW59253   7.858   3.206  11.038  0.0324 -0.2735  0.6303
19271SOL    HW159254   7.876   3.199  10.944  0.9902  0.8381  0.7083
19271SOL    HW259255   7.943   3.192  11.079 -0.2339  0.0258  1.2880
19272SOL     OW59256   7.865   1.760   5.788  0.1284 -0.0968  0.1061
19272SOL    HW159257   7.920   1.703   5.842 -1.5629 -1.3024  0.6423
19272SOL    HW259258   7.836   1.704   5.716 -0.3911  0.5096 -0.1667
19273SOL     OW59259   5.990   2.308   9.016  0.8958  0.0310  0.2403
19273SOL    HW159260   6.042   2.251   9.072  0.9561 -0.8467 -0.6850
19273SOL    HW259261   5.902   2.270   9.018  0.8633  0.0870 -0.1541
19274SOL     OW59262   0.590   3.554   6.301  0.2856  0.0903  0.0405
19274SOL    HW159263   0.529   3.590   6.237  1.0157  1.2458 -0.0469
19274SOL    HW259264   0.639   3.488   6.253 -0.5969 -0.5549  0.0021
19275SOL     OW59265   3.798   6.112   1.312  0.0837  0.3049 -0.1132
19275SOL    HW159266   3.736   6.184   1.325  0.1619  0.5426 -1.0198
19275SOL    HW259267   3.790   6.089   1.220 -0.5423 -1.4118  0.3333
19276SOL     OW59268   5.657   4.006  10.044 -0.7740  0.1483 -0.0204
19276SOL    HW159269   5.567   4.028  10.019 -1.4160 -1.3949  0.8059
19276SOL    HW259270   5.663   4.034  10.135 -0.2688  0.6007 -0.1887
19277SOL     OW59271   1.474   3.848   0.985  0.1954  0.3534  0.3499
19277SOL    HW159272   1.510   3.886   0.905 -0.1955  1.3491  0.6364
19277SOL    HW259273   1.427   3.920   1.026 -4.1097 -1.3303 -1.1055
19278SOL     OW59274   2.468   2.639   6.491  0.6078 -0.3895  0.2177
19278SOL    HW159275   2.428   2.584   6.559  0.9668  0.9412  1.5571
19278SOL    HW259276   2.559   2.646   6.517  0.9723 -0.6195 -0.9537
19279SOL     OW59277   0.597   1.978  11.348 -0.3182 -0.4848  0.0566
19279SOL    HW159278   0.570   1.900  11.299  0.3888 -0.5613 -0.2211
19279SOL    HW259279   0.618   1.946  11.435 -2.5766 -0.2005  0.7750
19280SOL     OW59280   7.310   0.568  11.811 -0.4254 -0.0825  0.0830
19280SOL    HW159281   7.373   0.499  11.833  1.2149  0.6804 -1.8457
19280SOL    HW259282   7.244   0.524  11.758  0.5860 -0.2249 -1.0986
19281SOL     OW59283   2.384   5.623   8.999 -0.1738  0.2259 -0.4799
19281SOL    HW159284   2.290   5.612   8.982  0.0726 -1.1424 -1.0687
19281SOL    HW259285   2.427   5.597   8.917  0.7299  0.5679 -0.1249
19282SOL     OW59286   1.834   7.539   5.820 -0.7998 -0.4128  0.3974
19282SOL    HW159287   1.762   7.580   5.870 -1.5213 -0.0144 -0.9240
19282SOL    HW259288   1.791   7.496   5.747  0.2156 -1.2800  0.2930
19283SOL     OW59289   0.586   6.056   5.597 -0.0282 -0.1064  0.4210
19283SOL    HW159290   0.533   5.979   5.575  1.3242 -0.9789  0.0828
19283SOL    HW259291   0.650   6.024   5.660  1.2003  0.4764 -0.4853
19284SOL     OW59292   3.355   7.551   9.728 -0.2364 -0.1588 -0.0974
19284SOL    HW159293   3.303   7.631   9.722 -1.5178 -0.9582  0.0065
19284SOL    HW259294   3.294   7.481   9.706  0.5211 -1.2365  1.0765
19285SOL     OW59295   7.815   2.748   8.981  0.2597 -0.4909  0.4287
19285SOL    HW159296   7.760   2.720   9.055  0.7421 -0.5198  0.7757
19285SOL    HW259297   7.901   2.765   9.020 -0.2365  2.5434  0.4787
19286SOL     OW59298   0.431   1.426   6.581  0.5408 -0.0388 -0.3436
19286SOL    HW159299   0.358   1.463   6.630 -0.5317 -1.6756 -0.6163
19286SOL    HW259300   0.499   1.412   6.647 -0.5782 -1.4332  0.5629
19287SOL     OW59301   1.235   3.156   7.642 -0.2594  0.1725 -0.4665
19287SOL    HW159302   1.190   3.222   7.590 -1.7153 -0.3399  0.1166
19287SOL    HW259303   1.297   3.206   7.695 -0.0304  0.8643 -1.3557
19288SOL     OW59304   3.470   7.495   6.859 -0.2945  0.2036  0.1946
19288SOL    HW159305   3.468   7.499   6.763  2.8687 -0.5835 -0.0150
19288SOL    HW259306   3.411   7.423   6.881 -2.6260  1.6247 -0.9129
19289SOL     OW59307   4.290   7.212  10.120  0.0057  0.2995  0.2468
19289SOL    HW159308   4.379   7.178  10.108 -0.5217 -0.4210 -1.9516
19289SOL    HW259309   4.259   7.168  10.199  1.1009 -0.5015  0.2642
19290SOL     OW59310   2.192   3.270   1.116  0.2612  0.0442 -0.1377
19290SOL    HW159311   2.159   3.245   1.203 -0.0509  1.9200  0.3299
19290SOL    HW259312   2.123   3.243   1.055 -0.2192  0.0727  0.3843
19291SOL     OW59313   0.063   6.806   1.484  0.2401 -0.8672  0.5115
19291SOL    HW159314   0.005   6.731   1.473  0.7728 -1.3751  1.0869
19291SOL    HW259315   0.151   6.770   1.473  0.4853 -0.2585  0.4341
19292SOL     OW59316   0.638   7.205   2.910 -0.1637  0.0587 -0.2607
19292SOL    HW159317   0.667   7.159   2.831  1.1750  0.3530  0.0341
19292SOL    HW259318   0.714   7.204   2.968 -1.0133  0.1619  0.8958
19293SOL     OW59319   1.991   2.252   0.351  0.2088  0.2850 -0.6009
19293SOL    HW159320   2.043   2.172   0.361 -1.4833 -0.8358 -0.3584
19293SOL    HW259321   1.999   2.297   0.435  1.0763  0.3307 -0.6965
19294SOL     OW59322   3.719   3.175   2.103  0.4615  0.2110  0.0592
19294SOL    HW159323   3.715   3.214   2.016  1.9400 -0.0452 -0.1508
19294SOL    HW259324   3.749   3.085   2.088 -0.6432 -0.2937  0.7291
19295SOL     OW59325   4.330   1.269   8.165  0.3123  0.7495 -0.1633
19295SOL    HW159326   4.292   1.272   8.077 -0.6621  1.5770  0.2651
19295SOL    HW259327   4.322   1.178   8.191  1.3846  0.3102 -1.2333
19296SOL     OW59328   2.982   7.793   8.071  0.1301 -0.4064 -0.3268
19296SOL    HW159329   3.054   7.850   8.043 -0.6360  0.8592  0.2367
19296SOL    HW259330   2.922   7.791   7.996  0.1331 -0.4374 -0.3286
19297SOL     OW59331   7.951   4.387   1.718  0.3840  0.4611 -0.2060
19297SOL    HW159332   8.017   4.456   1.705 -1.1750  2.7046  2.6793
19297SOL    HW259333   7.876   4.416   1.665 -0.6639  1.6974  1.8417
19298SOL     OW59334   5.469   0.992  10.693  0.5863 -0.0900 -0.1993
19298SOL    HW159335   5.400   1.042  10.737  1.1563  0.9460 -0.4527
19298SOL    HW259336   5.539   0.984  10.757  0.1484 -1.3870  0.1533
19299SOL     OW59337   5.341   6.683   4.794  0.1973  0.1981  0.3709
19299SOL    HW159338   5.300   6.621   4.854  1.0683 -0.2828  0.4881
19299SOL    HW259339   5.360   6.632   4.716 -0.1185  0.6073  0.0173
19300SOL     OW59340   7.632   3.335   5.941  0.0062 -0.0591 -0.8717
19300SOL    HW159341   7.647   3.261   5.999  0.4517  1.7859  1.5582
19300SOL    HW259342   7.537   3.348   5.943 -0.1456 -0.9687 -1.8686
19301SOL     OW59343   7.446   5.868  11.364 -0.3892 -0.8842  0.2081
19301SOL    HW159344   7.470   5.883  11.456  0.1335 -3.0028  0.4569
19301SOL    HW259345   7.356   5.836  11.368 -1.7222  2.4099 -0.3667
19302SOL     OW59346   0.472   5.312   7.601  0.2251 -0.2526 -0.3085
19302SOL    HW159347   0.503   5.402   7.592  0.9051 -0.3889  0.5567
19302SOL    HW259348   0.533   5.272   7.662 -0.1296 -1.2801 -0.6106
19303SOL     OW59349   7.131   1.269  10.008 -0.0445 -0.1649  0.0088
19303SOL    HW159350   7.201   1.208   9.990 -1.5772 -1.9922 -0.0613
19303SOL    HW259351   7.089   1.236  10.088 -2.1816 -0.4834 -1.1481
19304SOL     OW59352   0.080   1.936   9.161  0.6999  0.2721  0.2672
19304SOL    HW159353   0.069   1.940   9.256 -0.7210 -0.5386  0.1669
19304SOL    HW259354   0.092   1.843   9.141  0.3709  0.3609 -0.3936
19305SOL     OW59355   5.689   1.630  10.476  0.4588 -0.0834 -0.1437
19305SOL    HW159356   5.663   1.574  10.549  1.4151 -0.1514  0.1561
19305SOL    HW259357   5.765   1.587  10.437 -0.0006 -0.0125 -1.1476
19306SOL     OW59358   7.828   7.049  12.162 -0.0214 -0.6103 -0.5110
19306SOL    HW159359   7.776   7.005  12.229  0.7086 -0.3892  0.2258
19306SOL    HW259360   7.905   7.081  12.209 -0.4854  1.4091 -1.0248
19307SOL     OW59361   0.548   4.597   5.411 -0.1806  0.1172  0.0257
19307SOL    HW159362   0.457   4.585   5.440  0.0737  2.3257  2.0729
19307SOL    HW259363   0.547   4.681   5.365  0.7165 -0.1576 -0.5096
19308SOL     OW59364   5.910   0.717   7.023 -0.7459 -0.1866  0.0109
19308SOL    HW159365   5.891   0.746   7.113  2.0720 -0.3421  0.7424
19308SOL    HW259366   5.914   0.621   7.030  0.8490 -0.1427  0.0883
19309SOL     OW59367   7.062   2.119   5.227 -0.6316 -0.2335 -0.1426
19309SOL    HW159368   7.128   2.178   5.192 -0.3485 -0.1190  0.5763
19309SOL    HW259369   6.980   2.147   5.186 -0.3934  0.2576 -0.2831
19310SOL     OW59370   0.070   6.482   2.925 -0.5069 -0.1999 -0.4215
19310SOL    HW159371   0.035   6.470   2.837 -0.8718  1.1575 -0.4921
19310SOL    HW259372   0.090   6.576   2.930 -2.1963  0.1422  1.5368
19311SOL     OW59373   1.302   5.491   8.627 -0.4151 -0.0270 -0.0347
19311SOL    HW159374   1.390   5.484   8.663  0.0888 -0.2714 -1.2426
19311SOL    HW259375   1.259   5.558   8.680  0.7265  0.6005  0.1256
19312SOL     OW59376   3.805   7.798   2.738  0.5425 -0.1903 -0.2371
19312SOL    HW159377   3.755   7.878   2.721  1.6689  0.1498 -2.3185
19312SOL    HW259378   3.876   7.800   2.674  1.8445 -1.8297  1.0517
19313SOL     OW59379   0.851   3.252   4.669 -0.0669 -0.1329 -0.3239
19313SOL    HW159380   0.793   3.297   4.731 -0.4433  0.0309 -0.7893
19313SOL    HW259381   0.792   3.201   4.614  0.4122 -2.1340  0.9032
19314SOL     OW59382   7.673   6.303   6.415 -0.0621 -0.2031  0.2163
19314SOL    HW159383   7.704   6.379   6.464  0.3051 -0.5887  0.5788
19314SOL    HW259384   7.721   6.229   6.451 -1.2463 -0.7826  0.6541
19315SOL     OW59385   6.143   7.709   5.856  0.2106 -0.2095 -0.0912
19315SOL    HW159386   6.060   7.663   5.841  0.3414 -0.4990  0.0526
19315SOL    HW259387   6.174   7.733   5.769  0.5018 -1.0428 -0.2268
19316SOL     OW59388   1.272   7.330   2.165 -0.2358 -0.3159 -0.1073
19316SOL    HW159389   1.180   7.347   2.145  0.0009 -1.2188 -2.3423
19316SOL    HW259390   1.313   7.416   2.163 -0.5559 -0.1349 -2.2830
19317SOL     OW59391   3.605   0.047   2.730  0.1131 -0.0400 -0.6211
19317SOL    HW159392   3.587   0.129   2.684 -2.1471 -0.1767 -0.0996
19317SOL    HW259393   3.540  -0.015   2.697  0.6080 -1.1007  0.3055
19318SOL     OW59394   0.831   6.984  12.358  0.3766 -0.3153  0.1054
19318SOL    HW159395   0.921   7.003  12.331 -0.0463  0.6005 -0.7133
19318SOL    HW259396   0.801   6.917  12.296  0.5670 -0.7983  0.5296
19319SOL     OW59397   0.423   6.851   7.927  0.2316 -0.2304  0.1140
19319SOL    HW159398   0.486   6.908   7.972 -1.0037  2.0304 -0.8098
19319SOL    HW259399   0.340   6.870   7.970 -0.6538  0.6349 -1.8250
19320SOL     OW59400   4.706   0.238   7.217 -0.0983 -0.6071  0.3607
19320SOL    HW159401   4.730   0.327   7.192 -1.4339  0.3642  2.3005
19320SOL    HW259402   4.722   0.186   7.138  1.4049  1.1953 -0.5920
19321SOL     OW59403   0.175   5.713   5.539  0.5131 -0.6117 -0.1074
19321SOL    HW159404   0.105   5.719   5.604  1.4478 -0.3093  0.9041
19321SOL    HW259405   0.237   5.650   5.575  0.9030 -0.6651 -0.8447
19322SOL     OW59406   5.092   4.325   1.230 -0.1305  0.0473 -0.0703
19322SOL    HW159407   5.028   4.359   1.167 -0.3642 -1.6303 -0.8138
19322SOL    HW259408   5.107   4.396   1.292 -0.9790  1.2574 -1.2186
19323SOL     OW59409   3.800   6.650   7.891 -0.4288  0.2373 -0.1470
19323SOL    HW159410   3.804   6.628   7.984  0.6887  0.6187 -0.0993
19323SOL    HW259411   3.759   6.573   7.851 -1.7635  0.4308  0.7576
19324SOL     OW59412   7.602   5.295   0.522 -0.7137 -0.7173  0.3088
19324SOL    HW159413   7.575   5.254   0.440 -2.7478  0.2143  0.4448
19324SOL    HW259414   7.530   5.355   0.543  1.1521  1.3578  1.1777
19325SOL     OW59415   3.933   1.265   4.238 -0.0810  0.2588 -0.1428
19325SOL    HW159416   3.999   1.275   4.306  0.2491 -2.3209 -0.0096
19325SOL    HW259417   3.983   1.268   4.156 -0.2653  1.6226 -0.2315
19326SOL     OW59418   7.111   4.226   2.701  0.5133  0.1609 -0.5667
19326SOL    HW159419   7.118   4.303   2.757 -0.7122  0.4408 -0.7856
19326SOL    HW259420   7.088   4.155   2.762 -1.4811  0.5890 -0.7437
19327SOL     OW59421   4.087   0.285   2.962  0.0876  0.0739  0.6540
19327SOL    HW159422   4.020   0.230   2.923  0.4883  0.1479 -0.1703
19327SOL    HW259423   4.150   0.224   2.999 -0.7082  0.0076  1.9370
19328SOL     OW59424   1.977   1.369   4.231 -0.1845  0.0200  0.6890
19328SOL    HW159425   2.047   1.339   4.288  0.4179  0.1780  0.0447
19328SOL    HW259426   2.011   1.449   4.191 -1.5543  1.3369  1.9973
19329SOL     OW59427   6.217   4.025   1.680  0.2581 -0.5054 -0.5625
19329SOL    HW159428   6.307   4.053   1.693 -0.5722  1.3804  1.6869
19329SOL    HW259429   6.197   3.973   1.758 -1.2446  0.9927  0.1011
19330SOL     OW59430   2.976   7.391   7.924  0.1311  0.2572 -0.3815
19330SOL    HW159431   2.991   7.305   7.962 -0.7350  0.0156 -0.5608
19330SOL    HW259432   3.054   7.408   7.871  1.1502  0.4036  1.1022
19331SOL     OW59433   1.915   6.318   4.866  0.0656 -0.3053 -0.0437
19331SOL    HW159434   1.989   6.360   4.909 -0.8619  1.5259 -0.1347
19331SOL    HW259435   1.879   6.259   4.932  0.7096 -0.1113  0.4925
19332SOL     OW59436   3.972   5.512  11.423  1.0385 -0.1197  0.6726
19332SOL    HW159437   4.061   5.505  11.457  0.9960  1.3077  1.1389
19332SOL    HW259438   3.947   5.422  11.403  1.2721 -1.0099  3.9362
19333SOL     OW59439   2.661   6.452   9.323 -0.4699  0.1269 -0.2762
19333SOL    HW159440   2.646   6.403   9.242 -2.5788 -0.3458  0.3256
19333SOL    HW259441   2.617   6.400   9.391 -2.0292  2.3578  0.5475
19334SOL     OW59442   6.679   5.214   1.481  0.6600  0.1425  0.4556
19334SOL    HW159443   6.767   5.237   1.512  0.2210  1.5350  0.7177
19334SOL    HW259444   6.628   5.294   1.492  0.0099  0.1547 -2.1611
19335SOL     OW59445   1.148   7.136   8.087  0.0043  0.0502 -0.3423
19335SOL    HW159446   1.210   7.208   8.099 -0.2384  0.0857  0.7555
19335SOL    HW259447   1.070   7.162   8.135  0.2277 -1.3137  0.8393
19336SOL     OW59448   6.632   6.120  10.053 -0.2454  0.4466 -0.1237
19336SOL    HW159449   6.676   6.201  10.080  0.4592  0.1239 -0.2838
19336SOL    HW259450   6.539   6.141  10.058 -0.0617  1.5073 -0.9013
19337SOL     OW59451   4.022   0.861   7.123  0.3600  0.3611 -0.1235
19337SOL    HW159452   4.018   0.776   7.166 -0.6742  1.1184  1.3715
19337SOL    HW259453   3.932   0.875   7.091  0.9225  0.1623 -1.8975
19338SOL     OW59454   7.440   2.360  11.042 -0.1516 -0.0015 -0.6980
19338SOL    HW159455   7.389   2.441  11.052 -0.6763 -0.4643  0.4871
19338SOL    HW259456   7.374   2.293  11.025 -0.5229 -1.3233  4.4707
19339SOL     OW59457   6.696   6.989   5.939 -0.8632  0.2647  0.0422
19339SOL    HW159458   6.691   6.913   5.996 -2.2511  0.3580  0.0725
19339SOL    HW259459   6.678   7.064   5.996 -0.3692  0.5412 -0.1547
19340SOL     OW59460   2.295   1.611  11.999 -0.3221  0.3150  0.0390
19340SOL    HW159461   2.211   1.605  11.953  0.1863  0.0302 -0.8842
19340SOL    HW259462   2.347   1.539  11.964  0.5381  0.8864  0.1039
19341SOL     OW59463   4.102   5.820   8.245  0.5388 -0.5570 -0.2516
19341SOL    HW159464   4.160   5.749   8.273 -0.4584 -1.4922 -0.4929
19341SOL    HW259465   4.047   5.781   8.177  0.4742  0.6642 -0.9369
19342SOL     OW59466   0.495   3.532   3.015  0.4757  0.2262 -0.8468
19342SOL    HW159467   0.451   3.560   2.935  0.9951  0.7191 -0.9675
19342SOL    HW259468   0.437   3.558   3.086  0.4962  0.7221 -1.0101
19343SOL     OW59469   7.523   5.819  12.208  0.0426  0.4024 -0.1948
19343SOL    HW159470   7.447   5.851  12.160 -0.6311  0.1141  0.6498
19343SOL    HW259471   7.580   5.783  12.141  0.6377  2.8954 -1.1507
19344SOL     OW59472   4.410   7.029   5.023 -0.4401  0.1679  0.3712
19344SOL    HW159473   4.462   7.052   5.100 -0.0414 -0.4489  0.2938
19344SOL    HW259474   4.330   6.989   5.058 -1.0755  1.5151  0.5035
19345SOL     OW59475   1.023   7.443   2.144  0.4017 -0.8512  0.1548
19345SOL    HW159476   0.994   7.533   2.155  0.5623 -0.6242 -1.0488
19345SOL    HW259477   0.960   7.390   2.192  0.1001 -0.1255  0.5667
19346SOL     OW59478   4.561   2.927   4.152  0.1294  0.2797 -0.1095
19346SOL    HW159479   4.564   2.839   4.190 -0.6680  0.4033  0.2642
19346SOL    HW259480   4.646   2.938   4.110  0.6169 -0.2967  0.6879
19347SOL     OW59481   6.922   7.931   2.065  0.0053  0.2276 -0.2126
19347SOL    HW159482   6.919   7.844   2.105 -0.2235  0.5889  0.5861
19347SOL    HW259483   6.850   7.930   2.002  1.9666 -1.2539 -2.6277
19348SOL     OW59484   6.478   4.423   4.427 -0.0567 -0.2691  0.3481
19348SOL    HW159485   6.456   4.516   4.435  1.6641  0.0619  2.2123
19348SOL    HW259486   6.401   4.383   4.386 -0.6670  2.0196 -0.8981
19349SOL     OW59487   1.007   6.717   9.418  0.0718  0.0764  0.3277
19349SOL    HW159488   1.034   6.735   9.508  1.9187 -0.3701 -0.0891
19349SOL    HW259489   1.072   6.654   9.385 -1.0267 -0.3892 -1.0638
19350SOL     OW59490   4.914   2.805   8.595  0.1855  0.3917  0.2761
19350SOL    HW159491   4.849   2.814   8.525  1.1748 -0.9863 -0.8915
19350SOL    HW259492   4.871   2.748   8.659  0.4567 -1.1478 -0.8445
19351SOL     OW59493   6.719   4.269   3.973 -0.3459 -0.4044  0.3402
19351SOL    HW159494   6.700   4.283   4.066 -0.7989 -0.7748  0.3030
19351SOL    HW259495   6.810   4.239   3.972  0.0293  0.6651  0.5715
19352SOL     OW59496   4.805   3.441   1.811  0.1660 -0.0155 -0.0609
19352SOL    HW159497   4.728   3.416   1.863  0.8917 -0.3607  0.8703
19352SOL    HW259498   4.809   3.536   1.818 -1.1909  0.2033 -1.5982
19353SOL     OW59499   5.701   7.785   3.156  0.0732 -0.1572  0.1213
19353SOL    HW159500   5.729   7.703   3.197  0.5684 -0.6154 -1.0717
19353SOL    HW259501   5.692   7.763   3.063  0.2468  1.1511 -0.2238
19354SOL     OW59502   4.529   4.693   5.733  0.2406 -0.3910  0.5073
19354SOL    HW159503   4.550   4.600   5.738  0.3957 -0.3755  0.1104
19354SOL    HW259504   4.540   4.717   5.641  0.1748  0.0145  0.5990
19355SOL     OW59505   1.711   0.857   5.928 -0.2205  0.2084 -0.1154
19355SOL    HW159506   1.680   0.810   5.851  0.6823 -0.4119 -0.1165
19355SOL    HW259507   1.796   0.892   5.902  0.0038  0.1595  0.5352
19356SOL     OW59508   6.852   1.475   8.631  0.2755  0.3115 -0.4202
19356SOL    HW159509   6.851   1.426   8.549  0.7515 -1.7728  0.7535
19356SOL    HW259510   6.944   1.475   8.658 -0.1712 -1.3411  1.3518
19357SOL     OW59511   5.259   4.504   5.132 -0.0119 -0.3348  0.0741
19357SOL    HW159512   5.176   4.551   5.128 -0.0965 -0.4782  0.1216
19357SOL    HW259513   5.270   4.466   5.045  0.6858  0.8307 -0.3699
19358SOL     OW59514   1.854   6.633  10.226  0.5081  0.2300 -0.1941
19358SOL    HW159515   1.904   6.566  10.179  0.4825  1.3653 -1.9232
19358SOL    HW259516   1.775   6.588  10.256 -0.1365 -0.2852 -2.4523
19359SOL     OW59517   2.930   2.393   7.600 -0.3368 -0.3358  0.0780
19359SOL    HW159518   2.983   2.319   7.629 -0.4376 -0.6700 -0.5741
19359SOL    HW259519   2.974   2.470   7.636  1.3641 -0.4885 -1.5307
19360SOL     OW59520   5.328   7.895  10.730 -0.0848 -0.8363 -0.2232
19360SOL    HW159521   5.370   7.981  10.721 -0.7193 -0.3405  1.2706
19360SOL    HW259522   5.357   7.847  10.653 -0.4630  1.0303 -1.6285
19361SOL     OW59523   4.981   5.217   3.681 -0.3995  0.1364 -0.3123
19361SOL    HW159524   4.924   5.246   3.753 -0.8467 -3.1624  0.8637
19361SOL    HW259525   4.949   5.264   3.604 -1.0018  2.5494  1.3059
19362SOL     OW59526   1.001   7.567   1.098 -0.1670 -0.4613 -0.2117
19362SOL    HW159527   0.959   7.594   1.180 -0.5071 -2.0116  0.1553
19362SOL    HW259528   0.966   7.627   1.032  0.9008  1.5010  0.9101
19363SOL     OW59529   4.747   2.428   1.591  0.1523  0.2339  0.2865
19363SOL    HW159530   4.652   2.422   1.599 -0.1861  2.1318 -1.3769
19363SOL    HW259531   4.761   2.466   1.504  2.3895  0.8225  0.8390
19364SOL     OW59532   5.688   7.165  12.180  0.0586 -0.5651  0.2952
19364SOL    HW159533   5.695   7.136  12.271 -0.7409 -0.3182  0.4488
19364SOL    HW259534   5.705   7.087  12.128  0.7166 -0.6672  0.6468
19365SOL     OW59535   5.507   2.747   3.104  0.2792  0.9844 -0.0117
19365SOL    HW159536   5.500   2.837   3.135 -1.5628  1.1183 -0.7081
19365SOL    HW259537   5.566   2.752   3.029 -0.2253  1.7148 -0.3694
19366SOL     OW59538   7.978   3.401   5.571  0.0597  0.6226  0.3358
19366SOL    HW159539   8.050   3.452   5.534 -0.6225  0.5584 -1.1182
19366SOL    HW259540   8.010   3.375   5.658  1.2026  1.8202  0.3079
19367SOL     OW59541   7.528   5.043  10.430 -0.3155 -0.1338 -0.0636
19367SOL    HW159542   7.557   4.954  10.444 -0.3757 -0.4716 -1.8255
19367SOL    HW259543   7.453   5.035  10.370 -0.4463  1.0688 -0.0981
19368SOL     OW59544   0.055   4.280   8.768  0.2500  0.3536  0.3140
19368SOL    HW159545   0.003   4.238   8.837 -0.4213  0.1725 -0.2962
19368SOL    HW259546   0.057   4.216   8.697  1.1681  0.4296  0.2614
19369SOL     OW59547   6.045   3.516  10.939  0.1034  0.7508  0.9559
19369SOL    HW159548   6.137   3.513  10.913 -0.0547  1.6211  0.2678
19369SOL    HW259549   6.007   3.586  10.887 -0.7145  1.1269  2.0213
19370SOL     OW59550   6.124   4.696  11.771  0.9313  0.0355  0.7814
19370SOL    HW159551   6.062   4.631  11.738  1.0190 -0.5026  1.6574
19370SOL    HW259552   6.070   4.772  11.792  1.0616  1.0916 -2.2075
19371SOL     OW59553   0.937   5.340  11.415  0.2228  0.3362 -0.1813
19371SOL    HW159554   1.017   5.380  11.450  1.4152 -3.3397  1.8531
19371SOL    HW259555   0.964   5.302  11.332 -0.3790  1.8844 -1.1260
19372SOL     OW59556   6.349   7.640   6.244 -0.3969 -0.2269 -0.4159
19372SOL    HW159557   6.435   7.668   6.212 -0.0816  0.2056  0.7796
19372SOL    HW259558   6.350   7.661   6.337 -1.2975 -1.4638 -0.1084
19373SOL     OW59559   7.729   4.511   6.663  0.7003 -0.8348  0.4354
19373SOL    HW159560   7.789   4.490   6.591  0.6794  3.0434 -0.9477
19373SOL    HW259561   7.784   4.512   6.741  1.6054 -1.1453 -0.1838
19374SOL     OW59562   0.084   6.073   2.536 -0.4174 -0.8251 -0.5133
19374SOL    HW159563   0.024   6.011   2.576 -0.7887 -0.4990 -0.5567
19374SOL    HW259564   0.164   6.067   2.589 -0.8985 -0.4048  0.2720
19375SOL     OW59565   7.693   2.151   0.209 -0.2137 -0.3957  0.0453
19375SOL    HW159566   7.784   2.125   0.193 -0.8302 -2.3000 -0.6170
19375SOL    HW259567   7.693   2.246   0.197  1.7605 -0.2860  0.4960
19376SOL     OW59568   0.157   2.854   5.432 -0.6557 -0.7850 -0.1596
19376SOL    HW159569   0.125   2.781   5.484  1.1551 -1.2767  0.3176
19376SOL    HW259570   0.097   2.926   5.451  0.1641 -0.8135  2.9663
19377SOL     OW59571   0.746   3.399  11.774 -0.4663  0.0673  0.0818
19377SOL    HW159572   0.731   3.341  11.699 -1.7582 -1.1604  1.2189
19377SOL    HW259573   0.706   3.482  11.748 -0.4883 -0.1970 -0.7651
19378SOL     OW59574   5.861   5.716   4.222 -0.1291  0.5378  0.2183
19378SOL    HW159575   5.829   5.722   4.313 -1.1159 -1.3711  0.0447
19378SOL    HW259576   5.807   5.648   4.182  1.6005 -0.0378 -1.2644
19379SOL     OW59577   5.268   2.338   5.764  0.0874 -0.7143 -0.5767
19379SOL    HW159578   5.212   2.303   5.694  0.0003  0.4545 -1.1282
19379SOL    HW259579   5.227   2.422   5.786  1.1981 -0.1919 -0.4540
19380SOL     OW59580   1.781   0.108   2.555 -0.1392 -0.3850 -0.2916
19380SOL    HW159581   1.816   0.195   2.536 -0.0826 -0.9874 -3.4806
19380SOL    HW259582   1.698   0.125   2.600 -0.0322  1.2977 -0.6611
19381SOL     OW59583   1.379   5.272   4.890  0.0878 -0.5076  0.2011
19381SOL    HW159584   1.337   5.349   4.853  2.5323  0.2631 -1.1793
19381SOL    HW259585   1.333   5.198   4.850 -1.4111  0.1999  0.5299
19382SOL     OW59586   3.021   2.135   7.574  0.4774  0.0041  0.4021
19382SOL    HW159587   3.071   2.063   7.612  2.0341  0.4899 -0.6340
19382SOL    HW259588   3.013   2.112   7.481  0.3577  0.8192  0.2028
19383SOL     OW59589   1.911   6.395   2.193  0.1629 -0.2418  0.6658
19383SOL    HW159590   1.988   6.387   2.249  0.7923 -0.0269 -0.1498
19383SOL    HW259591   1.910   6.314   2.142  1.5022  0.9071 -1.3319
19384SOL     OW59592   7.611   6.934   2.666 -0.4664 -0.0219 -0.1626
19384SOL    HW159593   7.529   6.924   2.715  1.3113 -0.8561  2.9661
19384SOL    HW259594   7.656   6.850   2.677  1.2161  0.7333 -0.9163
19385SOL     OW59595   5.149   5.828   1.059  0.3002 -0.7640 -0.2147
19385SOL    HW159596   5.106   5.806   0.977 -0.4002  1.8754 -0.6510
19385SOL    HW259597   5.240   5.845   1.035  0.1756 -0.3402 -0.3894
19386SOL     OW59598   3.488   7.539   6.355  0.1444  0.1103  0.2963
19386SOL    HW159599   3.520   7.626   6.376 -0.3362 -0.0007  1.5567
19386SOL    HW259600   3.489   7.536   6.259  0.8007  1.2482  0.2491
19387SOL     OW59601   0.037   0.324  11.550  0.5671 -0.4219  0.0728
19387SOL    HW159602  -0.021   0.392  11.584 -1.2349 -1.4920 -0.7086
19387SOL    HW259603   0.080   0.365  11.475 -0.8622 -0.2526 -0.6879
19388SOL     OW59604   2.110   3.519   0.840  0.6302  0.1644  0.4272
19388SOL    HW159605   2.030   3.475   0.870 -0.3783  0.9242 -1.0310
19388SOL    HW259606   2.160   3.451   0.795  0.4054 -0.1187  0.6068
19389SOL     OW59607   5.924   5.827   8.090  0.0895  0.3564 -0.5439
19389SOL    HW159608   5.879   5.805   8.171  0.8045  0.9529  0.0281
19389SOL    HW259609   5.872   5.898   8.052  0.5582  1.0672  0.1324
19390SOL     OW59610   5.517   7.166   3.511 -0.1910 -0.4996 -0.1583
19390SOL    HW159611   5.548   7.079   3.538 -0.7793 -0.3998  0.8810
19390SOL    HW259612   5.427   7.150   3.482 -0.5497 -0.1280  0.7263
19391SOL     OW59613   5.936   6.379   9.520 -0.4999 -0.1456 -0.1659
19391SOL    HW159614   5.996   6.305   9.530  0.6392  0.5597 -1.4146
19391SOL    HW259615   5.989   6.456   9.542 -1.5272  0.3594  0.6308
19392SOL     OW59616   2.427   1.216   6.246  0.2639  0.3725  0.9977
19392SOL    HW159617   2.334   1.194   6.242  0.3641  0.1855 -0.6120
19392SOL    HW259618   2.454   1.188   6.334 -1.3316  1.0285  1.7384
19393SOL     OW59619   7.387   5.389  10.950  0.0394 -0.0750 -0.8916
19393SOL    HW159620   7.394   5.460  10.887  0.0172  1.2537  0.5420
19393SOL    HW259621   7.301   5.351  10.934 -0.5355  1.1348 -0.7790
19394SOL     OW59622   7.604   0.320  10.568  0.4868 -0.7838  0.5985
19394SOL    HW159623   7.582   0.259  10.639  1.0089  1.2290  2.5955
19394SOL    HW259624   7.657   0.388  10.610  1.6142  0.0257 -1.9377
19395SOL     OW59625   3.647   1.074   1.722 -0.1761 -0.0844  0.5331
19395SOL    HW159626   3.606   1.120   1.795  2.0334  0.4337  1.5304
19395SOL    HW259627   3.656   0.984   1.753 -2.4086 -0.7303 -0.5255
19396SOL     OW59628   2.625   5.448  11.559  0.0842  0.1298  0.2328
19396SOL    HW159629   2.662   5.527  11.600 -2.0927  1.2066  0.2642
19396SOL    HW259630   2.644   5.458  11.466 -0.6445  1.0197  0.1574
19397SOL     OW59631   3.015   0.150  11.003 -0.4513  0.1203 -0.3185
19397SOL    HW159632   2.922   0.171  10.990 -0.2689  1.2895  0.2129
19397SOL    HW259633   3.062   0.231  10.983  0.3313 -0.0046  0.9257
19398SOL     OW59634   1.083   4.191   0.411 -0.7264 -0.7992 -0.6697
19398SOL    HW159635   1.139   4.248   0.464 -1.6666 -0.2778 -0.2118
19398SOL    HW259636   1.056   4.245   0.337 -2.2772 -0.3524  0.1862
19399SOL     OW59637   1.999   7.832   5.659 -0.3526  0.3341 -0.2431
19399SOL    HW159638   1.910   7.864   5.644 -0.3218  0.4080 -0.2672
19399SOL    HW259639   1.992   7.776   5.736 -1.0628 -2.2484 -2.0538
19400SOL     OW59640   5.343   3.347   5.792  0.2977  0.2856 -0.7503
19400SOL    HW159641   5.302   3.322   5.710 -0.0177  1.8384 -1.1087
19400SOL    HW259642   5.281   3.409   5.831  0.6553 -0.0855  0.4426
19401SOL     OW59643   0.257   1.089   1.965  0.1156  0.1256  0.0943
19401SOL    HW159644   0.202   1.031   1.911  0.4403 -0.5681  0.5000
19401SOL    HW259645   0.289   1.033   2.035  1.6901  0.4096 -0.3655
19402SOL     OW59646   2.945   0.183  12.454  0.5331 -0.2001 -0.1383
19402SOL    HW159647   3.021   0.226  12.494  0.2039  0.8849 -0.6344
19402SOL    HW259648   2.959   0.090  12.469  0.8692  0.1148  1.7027
19403SOL     OW59649   6.738   7.613   4.859 -0.0773 -0.1218 -0.3773
19403SOL    HW159650   6.673   7.545   4.841  0.1683 -0.5655  0.3763
19403SOL    HW259651   6.814   7.565   4.892 -0.8381  0.6625  2.8280
19404SOL     OW59652   2.359   6.546   4.675  0.1939 -0.3669 -0.0924
19404SOL    HW159653   2.437   6.592   4.706 -0.5759  1.1187 -0.3057
19404SOL    HW259654   2.341   6.583   4.589 -0.5891 -0.9016 -0.1699
19405SOL     OW59655   0.301   1.238  10.064  0.0372  0.1820  0.2809
19405SOL    HW159656   0.267   1.151  10.081 -2.0057  0.4420 -1.8595
19405SOL    HW259657   0.373   1.224  10.002 -0.6855  0.0073 -0.5432
19406SOL     OW59658   7.880   5.190   7.511  0.4955 -0.3410  0.6500
19406SOL    HW159659   7.938   5.120   7.482  0.1925 -0.4463  0.2726
19406SOL    HW259660   7.843   5.225   7.429  2.4569  1.8830  0.6161
19407SOL     OW59661   5.453   5.147   1.313  0.2854 -0.1098 -0.5321
19407SOL    HW159662   5.365   5.178   1.337 -0.3485 -0.5097 -2.2022
19407SOL    HW259663   5.446   5.127   1.220  2.0856 -0.4401 -0.6164
19408SOL     OW59664   3.231   3.750   6.795  0.0269  0.4617 -0.6051
19408SOL    HW159665   3.185   3.770   6.713  1.3859 -0.7797 -1.7364
19408SOL    HW259666   3.255   3.658   6.787  1.9630  0.8397  0.2753
19409SOL     OW59667   6.396   2.711   0.109 -0.4199  0.0874  0.0951
19409SOL    HW159668   6.398   2.704   0.205  0.8054  0.6377  0.1315
19409SOL    HW259669   6.314   2.668   0.084 -0.9469  0.2490  1.4121
19410SOL     OW59670   4.270   3.156   4.973  0.1679  0.2520 -0.2614
19410SOL    HW159671   4.343   3.197   4.927  0.2080  0.3598 -0.1011
19410SOL    HW259672   4.221   3.111   4.904  1.9011 -2.1580 -0.0701
19411SOL     OW59673   5.952   4.687   2.125  0.4783  0.0132  0.2860
19411SOL    HW159674   6.037   4.679   2.083  1.5950  1.2972  2.1538
19411SOL    HW259675   5.964   4.646   2.211 -0.4906  1.0416  0.9398
19412SOL     OW59676   1.049   3.535   3.843 -0.3401 -0.3664 -0.0292
19412SOL    HW159677   1.006   3.538   3.929 -0.5142  0.2025 -0.1353
19412SOL    HW259678   1.077   3.444   3.835  0.1889 -0.3034  0.8860
19413SOL     OW59679   3.539   0.809   5.415  0.1286  0.1311 -0.0906
19413SOL    HW159680   3.474   0.879   5.402 -0.0826 -0.0703 -0.1244
19413SOL    HW259681   3.614   0.853   5.454  0.8715  0.8063 -2.1430
19414SOL     OW59682   2.101   6.206   2.917  0.0814  0.4954  0.2864
19414SOL    HW159683   2.145   6.121   2.918 -1.4862 -0.4471 -2.3268
19414SOL    HW259684   2.126   6.246   3.000  2.4057 -1.6984  0.7818
19415SOL     OW59685   6.673   7.513   0.709  0.4675 -0.0295  0.2613
19415SOL    HW159686   6.679   7.468   0.625  1.1686 -0.1752  0.3870
19415SOL    HW259687   6.582   7.500   0.737  1.0567 -2.8987  1.1374
19416SOL     OW59688   2.822   5.338   5.741  0.5488 -0.1054  0.1195
19416SOL    HW159689   2.863   5.253   5.751  0.9863  0.1264  0.3137
19416SOL    HW259690   2.864   5.393   5.807  0.0309  0.1721  0.2216
19417SOL     OW59691   7.339   5.671  11.571 -0.7532  0.3711 -0.0625
19417SOL    HW159692   7.382   5.748  11.608 -1.1928  1.6403 -2.0564
19417SOL    HW259693   7.271   5.706  11.514  0.8693 -1.3186 -3.3458
19418SOL     OW59694   3.532   2.935   9.394 -0.4101 -0.2529  0.2308
19418SOL    HW159695   3.438   2.937   9.381 -0.5649  2.0343  1.2518
19418SOL    HW259696   3.545   2.894   9.479 -0.7157  1.5062  1.1849
19419SOL     OW59697   4.158   7.727   8.737 -0.2285 -0.1222  0.4797
19419SOL    HW159698   4.219   7.707   8.807 -0.2654 -1.5207  0.1428
19419SOL    HW259699   4.082   7.671   8.755  0.8481 -2.7241 -2.1324
19420SOL     OW59700   2.387   4.852   9.844 -0.6208 -0.0449  0.1319
19420SOL    HW159701   2.399   4.882   9.754  0.0980 -0.4624  0.0843
19420SOL    HW259702   2.358   4.761   9.836  2.0545 -1.0176  0.3096
19421SOL     OW59703   0.655   2.554  11.825 -0.4219 -0.3329 -0.8233
19421SOL    HW159704   0.577   2.550  11.881  1.0449  1.4600  1.5413
19421SOL    HW259705   0.717   2.493  11.865  0.1482 -0.1328 -1.3787
19422SOL     OW59706   3.313   5.157   0.778 -0.0804 -0.2275  0.1797
19422SOL    HW159707   3.226   5.116   0.784 -0.5756  0.9362  1.7059
19422SOL    HW259708   3.294   5.248   0.757  0.8851 -0.2884 -1.0469
19423SOL     OW59709   7.572   6.701  12.191 -0.4734 -0.1512 -0.4467
19423SOL    HW159710   7.537   6.764  12.128 -1.7739 -1.3521 -0.9816
19423SOL    HW259711   7.617   6.755  12.256  2.0118  1.1008 -2.9559
19424SOL     OW59712   4.744   6.933   9.285 -0.3654 -0.0860  0.0749
19424SOL    HW159713   4.679   7.000   9.307  0.1712  0.7045 -0.7082
19424SOL    HW259714   4.715   6.897   9.201  1.0801  1.4473 -1.1343
19425SOL     OW59715   5.462   1.766   2.231  0.4851  0.1549  0.2465
19425SOL    HW159716   5.472   1.853   2.194  0.2138 -0.0960 -0.4342
19425SOL    HW259717   5.531   1.714   2.190  1.1567  0.2291  1.2484
19426SOL     OW59718   2.995   2.585   2.292 -0.3572 -0.5025  0.3667
19426SOL    HW159719   2.961   2.655   2.236  0.0360  0.5384  1.3960
19426SOL    HW259720   3.086   2.610   2.307 -0.9293  0.2773  2.9873
19427SOL     OW59721   2.948   2.558   9.774 -0.0328  1.2862 -0.1124
19427SOL    HW159722   2.946   2.548   9.870  0.8843  0.4716 -0.1644
19427SOL    HW259723   3.037   2.588   9.756  0.2202  0.1378 -0.8276
19428SOL     OW59724   7.549   4.767  10.064 -0.0452 -0.0211  0.5913
19428SOL    HW159725   7.562   4.746   9.972 -0.0493  0.0471  0.5754
19428SOL    HW259726   7.578   4.857  10.073  1.2564 -0.4538  0.9471
19429SOL     OW59727   2.460   4.803   6.380  0.0727 -0.4831  0.4718
19429SOL    HW159728   2.532   4.851   6.421  0.3155  0.5445 -1.0485
19429SOL    HW259729   2.382   4.828   6.429  0.5981 -0.8598  1.5378
19430SOL     OW59730   2.277   6.943   5.653 -0.1872  0.2124 -0.3676
19430SOL    HW159731   2.209   6.919   5.716 -1.2602 -1.7376 -2.1555
19430SOL    HW259732   2.355   6.897   5.684 -0.6271 -0.4933 -0.2877
19431SOL     OW59733   7.225   6.208   6.632 -0.2265  0.2030  0.3397
19431SOL    HW159734   7.274   6.206   6.714  0.7116  1.3492 -0.1727
19431SOL    HW259735   7.290   6.224   6.565 -0.8962 -1.3153 -0.7460
19432SOL     OW59736   1.086   7.902  11.600  0.0586 -0.1527  0.0770
19432SOL    HW159737   1.110   7.964  11.669 -1.5158 -1.2647  1.7033
19432SOL    HW259738   1.162   7.845  11.591 -0.9108 -2.2556  3.5786
19433SOL     OW59739   2.096   1.087   0.559  0.3989 -0.5354 -0.0314
19433SOL    HW159740   2.002   1.105   0.564  0.4742 -0.0337 -0.3615
19433SOL    HW259741   2.102   0.992   0.559 -0.2184 -0.6115 -1.8742
19434SOL     OW59742   5.582   2.886   7.702  0.4798  0.5940 -0.3314
19434SOL    HW159743   5.505   2.885   7.645  0.4533  2.4204 -0.3824
19434SOL    HW259744   5.641   2.821   7.665 -0.7895 -0.4188 -0.6345
19435SOL     OW59745   5.678   7.525   8.073  0.3828 -0.2090 -0.5411
19435SOL    HW159746   5.769   7.499   8.086  0.3547 -0.0892 -0.0830
19435SOL    HW259747   5.631   7.484   8.145  0.0628 -0.3054 -0.8005
19436SOL     OW59748   6.151   5.082   3.581  0.0735  0.0038  0.2430
19436SOL    HW159749   6.167   5.086   3.675 -1.2776 -1.0908  0.5514
19436SOL    HW259750   6.074   5.026   3.572 -0.6559  1.1890 -1.4336
19437SOL     OW59751   7.389   7.135   5.459  0.4416  0.1862  0.3841
19437SOL    HW159752   7.475   7.101   5.483  0.4250 -0.9153 -1.0303
19437SOL    HW259753   7.352   7.166   5.542  2.4274  1.2641  0.9324
19438SOL     OW59754   3.483   3.837   7.412  0.4740 -0.3302  0.4771
19438SOL    HW159755   3.493   3.820   7.505  1.1163 -0.5708  0.3704
19438SOL    HW259756   3.437   3.921   7.407 -1.2270 -1.1908  1.0046
19439SOL     OW59757   0.924   1.298  11.808  0.0904  0.0656  0.2832
19439SOL    HW159758   0.997   1.299  11.746  0.2111  3.2531  0.3117
19439SOL    HW259759   0.962   1.271  11.891  1.1425  1.0603  0.1494
19440SOL     OW59760   6.207   6.814  12.097  0.1766  0.4281  0.1041
19440SOL    HW159761   6.279   6.809  12.161  0.6699 -2.8511 -0.5103
19440SOL    HW259762   6.248   6.849  12.018  0.8546 -0.2642  0.1275
19441SOL     OW59763   7.184   4.394   8.009 -0.0441  0.4138  0.0803
19441SOL    HW159764   7.212   4.360   7.923 -0.1532 -0.2224  0.2859
19441SOL    HW259765   7.106   4.343   8.030  0.2272  0.2606  0.7448
19442SOL     OW59766   2.280   2.788   5.406  0.0890  0.0638 -0.4092
19442SOL    HW159767   2.234   2.719   5.455  2.0916 -0.9380  0.1462
19442SOL    HW259768   2.292   2.859   5.469  1.7105 -0.7906  0.2770
19443SOL     OW59769   1.141   2.232   6.507 -0.7789 -0.5839  0.0687
19443SOL    HW159770   1.071   2.179   6.544 -1.0241  0.3525  1.0157
19443SOL    HW259771   1.096   2.298   6.453 -0.5424 -0.7577 -0.3488
19444SOL     OW59772   6.414   5.085   4.163 -0.0975 -0.1063 -0.2894
19444SOL    HW159773   6.371   5.151   4.218  3.4492  2.1929  0.0586
19444SOL    HW259774   6.468   5.035   4.224 -0.6240 -1.5075 -0.9494
19445SOL     OW59775   7.396   7.419   0.262  0.4966  0.1991  0.3903
19445SOL    HW159776   7.323   7.428   0.201  0.8079 -0.2326 -0.0500
19445SOL    HW259777   7.454   7.493   0.242  0.8355 -0.2152 -0.1658
19446SOL     OW59778   0.875   3.753   9.729  0.5503  0.4980 -0.1773
19446SOL    HW159779   0.788   3.712   9.733 -0.2843  2.2443  0.5338
19446SOL    HW259780   0.919   3.707   9.658 -1.1792 -0.0059 -0.9884
19447SOL     OW59781   2.128   0.328  10.976  0.5346 -0.2566  0.3487
19447SOL    HW159782   2.209   0.330  10.925 -0.3078  0.7609 -1.0552
19447SOL    HW259783   2.098   0.237  10.970  0.9007 -0.3424 -0.2486
19448SOL     OW59784   1.706   4.585   7.323 -0.4938  0.2852  0.0741
19448SOL    HW159785   1.671   4.509   7.277  0.3463 -0.8445  1.2353
19448SOL    HW259786   1.782   4.552   7.371  0.5280  2.0820 -0.2028
19449SOL     OW59787   2.353   5.660   7.182 -0.1843 -0.1224  0.2755
19449SOL    HW159788   2.265   5.632   7.160  0.0669  0.1874 -1.2283
19449SOL    HW259789   2.409   5.617   7.117  0.7288  0.0183  0.9453
19450SOL     OW59790   2.590   0.595   9.221  0.2868  0.3890 -0.0314
19450SOL    HW159791   2.519   0.637   9.270  0.5632  0.2357  0.4977
19450SOL    HW259792   2.648   0.667   9.197 -2.0600  1.2711 -4.0729
19451SOL     OW59793   6.914   2.003   5.624 -0.2751  0.5798  0.7030
19451SOL    HW159794   6.962   1.958   5.694  0.3010  2.0455  1.3113
19451SOL    HW259795   6.850   1.939   5.593  0.7951 -0.7823  1.2007
19452SOL     OW59796   5.853   3.299   3.736  0.2020 -0.0469  0.2246
19452SOL    HW159797   5.790   3.248   3.788 -0.0819 -0.2581 -0.3237
19452SOL    HW259798   5.807   3.381   3.717  0.1104 -0.1777 -0.1261
19453SOL     OW59799   0.658   4.851   1.502  0.0488 -0.2134 -0.5936
19453SOL    HW159800   0.726   4.901   1.547 -1.3319  1.4333 -0.2176
19453SOL    HW259801   0.583   4.855   1.561 -1.4340  0.9787 -2.4425
19454SOL     OW59802   6.550   2.185  11.904  0.8448 -0.2416 -0.2422
19454SOL    HW159803   6.573   2.249  11.836 -0.6426 -0.4971 -1.0221
19454SOL    HW259804   6.616   2.116  11.895  1.3177  0.2608 -0.6816
19455SOL     OW59805   4.577   3.546   8.681  0.4097 -0.0306 -0.5679
19455SOL    HW159806   4.580   3.594   8.599 -0.9600 -0.4751 -0.9157
19455SOL    HW259807   4.579   3.454   8.656  0.1168 -0.1686 -0.1037
19456SOL     OW59808   0.576   4.552   8.699  0.0117 -0.0308  0.4623
19456SOL    HW159809   0.483   4.534   8.708 -0.1706  1.0089  0.8740
19456SOL    HW259810   0.590   4.567   8.606 -0.5190  1.1709  0.5602
19457SOL     OW59811   1.826   2.248   3.272 -0.0219  0.7341  0.2438
19457SOL    HW159812   1.864   2.313   3.212  0.4187 -1.2940 -1.8254
19457SOL    HW259813   1.818   2.169   3.219  1.5398 -1.6060  3.1884
19458SOL     OW59814   5.674   5.704   7.463 -0.1286  0.4305 -0.3800
19458SOL    HW159815   5.584   5.684   7.488 -0.5973  2.3561 -0.4000
19458SOL    HW259816   5.666   5.751   7.380  1.0512 -1.0714 -1.3858
19459SOL     OW59817   1.424   7.341   1.285 -0.0365  0.1282 -0.1153
19459SOL    HW159818   1.501   7.328   1.230 -0.1075  0.2417 -0.2430
19459SOL    HW259819   1.372   7.261   1.275 -0.4784  0.5095 -0.9039
19460SOL     OW59820   7.350   7.317   9.995 -0.0341  0.1082 -0.4645
19460SOL    HW159821   7.354   7.228  10.032  2.2837  0.3778  0.0633
19460SOL    HW259822   7.282   7.361  10.046  1.0223 -0.4354  1.5163
19461SOL     OW59823   6.705   5.339   8.769 -0.0205  0.5959  0.0268
19461SOL    HW159824   6.749   5.341   8.684 -1.5543  0.2461 -0.8178
19461SOL    HW259825   6.737   5.260   8.812 -1.8280 -1.2195 -1.7468
19462SOL     OW59826   4.496   6.711   5.195 -0.0930  0.0399  0.1591
19462SOL    HW159827   4.555   6.698   5.270  0.0812 -1.0460 -0.1488
19462SOL    HW259828   4.414   6.670   5.223 -0.4430  0.8067  0.2622
19463SOL     OW59829   2.622   7.651  11.662 -0.6489 -0.8163 -0.2257
19463SOL    HW159830   2.579   7.735  11.679  0.6919 -0.1787  0.2033
19463SOL    HW259831   2.712   7.664  11.693 -0.5022 -2.5270  0.1673
19464SOL     OW59832   4.092   3.128   1.780 -0.0556 -0.4682  0.4700
19464SOL    HW159833   4.175   3.085   1.760  0.6803  1.0466  0.0372
19464SOL    HW259834   4.059   3.083   1.858  1.8559 -0.2580  1.4570
19465SOL     OW59835   0.970   2.659  10.225 -0.1408  0.1810 -0.5999
19465SOL    HW159836   1.002   2.733  10.173  3.5695  0.1396  1.3001
19465SOL    HW259837   1.021   2.584  10.194  0.7062 -0.2291  1.5997
19466SOL     OW59838   2.290   6.263   1.670  0.0657 -0.0308 -0.0586
19466SOL    HW159839   2.371   6.278   1.718 -0.7016 -0.0396  1.3064
19466SOL    HW259840   2.266   6.349   1.635  1.8070 -0.4178 -2.4793
19467SOL     OW59841   6.308   3.731   6.115 -0.0630 -0.6717 -0.5877
19467SOL    HW159842   6.356   3.666   6.166  2.5762  0.0359 -2.0137
19467SOL    HW259843   6.326   3.815   6.157  0.7160 -0.2908 -1.6576
19468SOL     OW59844   7.596   5.169   4.211  0.1501 -0.0331  0.1385
19468SOL    HW159845   7.536   5.215   4.270  0.7703  0.2734  0.5334
19468SOL    HW259846   7.564   5.079   4.209  0.8296 -0.3388  1.8891
19469SOL     OW59847   7.379   5.248   9.462  0.0762 -0.5091  0.3420
19469SOL    HW159848   7.350   5.159   9.482  0.8995 -0.9748 -0.4243
19469SOL    HW259849   7.311   5.283   9.404 -0.3001 -0.6030  0.7255
19470SOL     OW59850   3.682   2.986  11.477 -0.0359  0.0694  0.5005
19470SOL    HW159851   3.768   3.014  11.508  0.6183 -1.1650 -0.1121
19470SOL    HW259852   3.666   3.038  11.398  1.4311 -1.5490 -0.9658
19471SOL     OW59853   5.566   0.522   1.346 -0.3288 -0.3503  0.9028
19471SOL    HW159854   5.484   0.504   1.393 -1.1387 -3.7535 -1.4384
19471SOL    HW259855   5.540   0.577   1.272 -0.4440 -0.9930  0.4558
19472SOL     OW59856   7.416   5.117   8.274 -0.1311  0.5289 -0.5178
19472SOL    HW159857   7.501   5.110   8.318  0.0344  1.5099 -0.6614
19472SOL    HW259858   7.428   5.070   8.191 -0.2331 -0.7205  0.1505
19473SOL     OW59859   0.446   4.969   8.774  0.2734  0.0220  0.1344
19473SOL    HW159860   0.389   4.947   8.700  0.9876  1.0411 -0.7417
19473SOL    HW259861   0.426   5.060   8.793  2.8920  1.0063 -1.4123
19474SOL     OW59862   0.959   7.045   2.466 -0.0134  0.0969  0.3552
19474SOL    HW159863   0.936   7.117   2.408  0.3610  0.0054  0.0969
19474SOL    HW259864   1.054   7.042   2.466  0.0584  0.9556  2.0181
19475SOL     OW59865   7.299   2.863  11.950 -0.1623  0.2454 -0.6624
19475SOL    HW159866   7.213   2.897  11.975  0.7690  1.1199  1.5904
19475SOL    HW259867   7.322   2.912  11.871 -0.9217  1.3798 -0.2089
19476SOL     OW59868   6.309   5.253  11.864 -0.6128 -0.0003 -0.2266
19476SOL    HW159869   6.226   5.259  11.911 -0.0627  0.7300  0.6952
19476SOL    HW259870   6.366   5.204  11.924 -0.4607 -0.7617 -0.9822
19477SOL     OW59871   6.522   0.051   5.800 -0.2187  0.0183  0.3603
19477SOL    HW159872   6.606   0.012   5.823  1.1460  2.7351  0.4833
19477SOL    HW259873   6.481   0.073   5.884 -0.5231 -0.2346  0.2825
19478SOL     OW59874   1.996   4.713   1.602 -0.0848  0.1350 -0.0967
19478SOL    HW159875   2.017   4.793   1.554 -0.0224 -0.5376 -1.2387
19478SOL    HW259876   1.939   4.741   1.673  0.1314  1.2179 -0.3378
19479SOL     OW59877   7.297   3.320   4.499 -0.0253 -0.3856  0.0651
19479SOL    HW159878   7.361   3.317   4.427  0.4337 -0.1409  0.4622
19479SOL    HW259879   7.307   3.235   4.543 -1.7545 -1.4128 -1.3861
19480SOL     OW59880   3.262   0.926   4.093 -0.1636  0.0128  0.6554
19480SOL    HW159881   3.330   0.866   4.121 -0.4700 -0.2392  0.8649
19480SOL    HW259882   3.304   0.981   4.027 -0.7009 -2.5002 -1.9930
19481SOL     OW59883   5.911   0.917   1.731  0.1017 -0.3597 -0.4146
19481SOL    HW159884   5.903   0.885   1.641 -1.3633 -0.0958 -0.4016
19481SOL    HW259885   5.822   0.913   1.766  0.8634 -1.9163  1.5458
19482SOL     OW59886   5.529   4.621   0.674  0.0320 -0.0662 -0.0420
19482SOL    HW159887   5.610   4.587   0.711  0.0585  0.6039  0.5454
19482SOL    HW259888   5.460   4.578   0.725 -0.0538 -1.6781 -1.4344
19483SOL     OW59889   0.800   4.687  12.345  0.4754  0.2457 -0.6129
19483SOL    HW159890   0.821   4.753  12.410  1.7932  0.5910 -1.3486
19483SOL    HW259891   0.729   4.725  12.294  0.5054  0.6409 -0.3632
19484SOL     OW59892   7.286   3.924  10.489 -0.2310 -0.2298  0.4071
19484SOL    HW159893   7.201   3.882  10.503 -0.5529 -0.0534 -0.8386
19484SOL    HW259894   7.267   4.018  10.487 -0.2230 -0.2324 -0.9984
19485SOL     OW59895   5.718   1.706   6.283  0.2729 -0.2751  0.0677
19485SOL    HW159896   5.810   1.684   6.271  0.4335 -0.3392  1.2478
19485SOL    HW259897   5.687   1.645   6.350 -0.0400  1.1287  1.2651
19486SOL     OW59898   1.547   5.862   5.131 -0.3301 -0.1448 -0.1116
19486SOL    HW159899   1.489   5.886   5.058  0.2709  0.2711 -0.4578
19486SOL    HW259900   1.521   5.920   5.202  0.2706  0.6697 -0.5517
19487SOL     OW59901   1.549   0.710  10.532  0.5856 -0.7076 -0.2389
19487SOL    HW159902   1.623   0.701  10.471  0.0620  2.1909 -1.4370
19487SOL    HW259903   1.494   0.778  10.493 -1.6263 -1.2467  1.7391
19488SOL     OW59904   3.722   6.830   4.120 -0.2539 -0.0610  0.1065
19488SOL    HW159905   3.785   6.770   4.161  0.1207  0.6081  0.5213
19488SOL    HW259906   3.678   6.872   4.193 -0.7160 -0.0329 -0.1852
19489SOL     OW59907   7.069   6.808   5.755  0.3407 -0.3713  0.0436
19489SOL    HW159908   6.999   6.874   5.756  0.7638  0.0985  1.3766
19489SOL    HW259909   7.024   6.725   5.766 -0.1876 -0.3166 -1.4536
19490SOL     OW59910   1.815   0.004   7.720 -0.2825 -0.5575 -0.6113
19490SOL    HW159911   1.806  -0.002   7.625 -0.6873 -1.9076 -0.5209
19490SOL    HW259912   1.899  -0.039   7.739 -0.0472 -0.0034 -0.3844
19491SOL     OW59913   0.002   6.604   6.889  0.6236 -0.1066  0.9227
19491SOL    HW159914   0.093   6.575   6.894  1.0835  1.0208 -0.3242
19491SOL    HW259915  -0.043   6.536   6.840  1.7771  1.3067 -2.3741
19492SOL     OW59916   4.455   4.015   8.957  0.2010 -0.1012  0.3073
19492SOL    HW159917   4.446   3.941   8.898  1.2069  0.5041 -0.6527
19492SOL    HW259918   4.549   4.018   8.978 -0.1749 -0.5201  2.2483
19493SOL     OW59919   3.158   1.153  11.736  0.2585 -0.9234 -0.2171
19493SOL    HW159920   3.086   1.140  11.797  0.7630  1.4625  1.0252
19493SOL    HW259921   3.202   1.068  11.733  0.2550 -1.1694  2.8861
19494SOL     OW59922   5.970   4.848   7.697 -0.3353  0.1743 -0.0360
19494SOL    HW159923   5.942   4.757   7.686  0.0601  0.1815 -1.2609
19494SOL    HW259924   6.026   4.847   7.774  0.3101 -0.7935 -0.4969
19495SOL     OW59925   2.768   7.782   1.494 -0.4772  0.1656  0.1706
19495SOL    HW159926   2.863   7.772   1.491 -0.3304  1.5125 -0.2339
19495SOL    HW259927   2.744   7.757   1.583  0.5040  1.6190  0.8805
19496SOL     OW59928   0.555   2.112   4.443  0.3461 -0.1984 -0.1896
19496SOL    HW159929   0.586   2.119   4.353  1.7927  1.6646  0.3872
19496SOL    HW259930   0.575   2.022   4.470  0.2809 -0.6412 -1.5743
19497SOL     OW59931   6.228   7.287   2.081 -0.5398 -0.4890  0.1231
19497SOL    HW159932   6.261   7.198   2.087 -0.0726 -0.5203 -2.1256
19497SOL    HW259933   6.274   7.325   2.007 -2.6686  0.7576 -0.6596
19498SOL     OW59934   0.993   2.438   7.454  1.2086  0.3790  0.1205
19498SOL    HW159935   0.986   2.402   7.542 -0.4932  1.9627  0.6954
19498SOL    HW259936   1.080   2.477   7.451  0.9639  1.0732  1.4159
19499SOL     OW59937   3.329   6.066   9.611  0.5385 -0.1119 -0.2827
19499SOL    HW159938   3.409   6.052   9.661  0.2571 -0.2669  0.1322
19499SOL    HW259939   3.289   5.979   9.604 -0.3435  0.1877  0.8098
19500SOL     OW59940   1.057   0.560   6.044 -0.5724 -0.4318 -0.2814
19500SOL    HW159941   1.001   0.623   5.997 -0.4125  0.4909  0.7336
19500SOL    HW259942   1.016   0.475   6.027 -0.3190 -0.1825 -2.3786
19501SOL     OW59943   3.511   0.380   0.784  0.0567 -0.0071 -0.1524
19501SOL    HW159944   3.481   0.459   0.740  0.2885  0.7218  0.9409
19501SOL    HW259945   3.572   0.339   0.723  1.4009  1.6669  0.0142
19502SOL     OW59946   0.904   4.101   4.955  0.4505 -0.0314  0.1063
19502SOL    HW159947   0.906   4.194   4.975 -1.5836 -0.0293  0.4826
19502SOL    HW259948   0.994   4.071   4.971  0.5295  1.3212  2.6123
19503SOL     OW59949   7.372   5.840   6.387  0.1779 -0.2930  0.2762
19503SOL    HW159950   7.464   5.865   6.379  0.4579 -1.4097 -0.3738
19503SOL    HW259951   7.357   5.831   6.481  0.9824 -0.8920  0.3619
19504SOL     OW59952   3.189   7.966   7.649 -0.4988  0.3750 -0.3092
19504SOL    HW159953   3.099   7.998   7.659 -1.0183 -1.5108  1.9309
19504SOL    HW259954   3.179   7.875   7.622  0.8581  0.7543 -2.2989
19505SOL     OW59955   2.088   1.713  12.458  0.0958 -0.5563 -0.2408
19505SOL    HW159956   2.004   1.710  12.413 -0.2179 -2.3009  0.3830
19505SOL    HW259957   2.137   1.784  12.415 -2.2225  1.5926  0.4074
19506SOL     OW59958   1.452   3.467   8.791 -0.4586  0.3857 -0.3279
19506SOL    HW159959   1.469   3.519   8.712  0.8258 -0.3301 -0.5537
19506SOL    HW259960   1.412   3.528   8.852 -3.1307  0.5834 -2.1028
19507SOL     OW59961   4.620   2.722   3.800  0.2529  0.1975 -0.0563
19507SOL    HW159962   4.707   2.735   3.762  0.9552 -0.0240  1.4052
19507SOL    HW259963   4.562   2.709   3.725  1.5364  0.0225 -1.0364
19508SOL     OW59964   6.741   6.590   3.564 -0.6119 -0.5183 -0.2623
19508SOL    HW159965   6.690   6.534   3.622 -0.3484 -0.7231 -0.2264
19508SOL    HW259966   6.703   6.677   3.576  0.0056 -0.3884  0.8746
19509SOL     OW59967   3.823   5.167   0.021 -0.1184 -0.3676  0.5859
19509SOL    HW159968   3.787   5.102  -0.039 -0.5408  0.5078 -0.1346
19509SOL    HW259969   3.751   5.188   0.080 -0.9751  1.5655 -1.0083
19510SOL     OW59970   1.594   2.505   8.600  0.2094 -0.3119 -0.0694
19510SOL    HW159971   1.501   2.502   8.578 -0.5140 -1.6598  2.7549
19510SOL    HW259972   1.606   2.591   8.640 -0.4147 -0.9987  1.6659
19511SOL     OW59973   5.098   1.754  11.851 -0.3048 -0.1367 -0.4120
19511SOL    HW159974   5.080   1.712  11.935 -0.6422  0.5173 -0.1500
19511SOL    HW259975   5.051   1.700  11.787  0.6651 -1.1419 -0.3032
19512SOL     OW59976   3.091   0.241   3.601  0.2382  0.4217 -0.1128
19512SOL    HW159977   3.167   0.183   3.607 -1.0492 -1.3629 -0.3941
19512SOL    HW259978   3.127   0.329   3.618  2.6488 -0.1108 -1.9349
19513SOL     OW59979   5.982   1.624   9.694 -0.0212  0.0816 -0.5057
19513SOL    HW159980   5.925   1.596   9.623  1.1398  0.2733 -1.5530
19513SOL    HW259981   6.038   1.692   9.656  1.5414 -0.7524  0.1704
19514SOL     OW59982   5.437   2.049   8.168 -0.2398 -0.2047  0.0445
19514SOL    HW159983   5.452   2.026   8.076  0.1707 -0.1153  0.0861
19514SOL    HW259984   5.351   2.091   8.168 -0.5933 -0.9283 -0.1668
19515SOL     OW59985   6.441   6.440   3.131  0.2385  0.1938  0.2451
19515SOL    HW159986   6.433   6.506   3.062  0.8525 -0.8832 -0.8999
19515SOL    HW259987   6.534   6.441   3.155 -0.0785  0.9749  1.4986
19516SOL     OW59988   6.749   0.942  12.168  0.0060  0.8395  0.2342
19516SOL    HW159989   6.804   0.869  12.195 -0.0550  0.4475 -0.6675
19516SOL    HW259990   6.661   0.919  12.198  0.0815  0.8077  0.4337
19517SOL     OW59991   0.616   2.167  11.991  0.4303  0.4389  0.1826
19517SOL    HW159992   0.594   2.135  11.903 -0.3865 -1.1512  0.9299
19517SOL    HW259993   0.532   2.178  12.034  0.8648  0.2099  1.1045
19518SOL     OW59994   2.974   5.304   9.130 -0.2927 -0.1402  0.3147
19518SOL    HW159995   3.063   5.304   9.093 -1.0125 -2.0165 -1.6510
19518SOL    HW259996   2.976   5.237   9.198  0.2106  1.0474  1.4981
19519SOL     OW59997   1.309   3.449  11.874  0.5493 -0.4051  0.2735
19519SOL    HW159998   1.294   3.414  11.962 -0.0107 -0.5212  0.1390
19519SOL    HW259999   1.225   3.436  11.828  0.5759  0.3872 -0.0270
19520SOL     OW60000   0.112   6.345   7.255  0.0561 -0.3914  0.1532
19520SOL    HW160001   0.089   6.408   7.323  0.2381 -0.9352  0.7240
19520SOL    HW260002   0.088   6.388   7.173 -2.8118 -0.8113  0.6531
19521SOL     OW60003   6.477   6.758   0.792 -0.3042 -0.1328  0.0114
19521SOL    HW160004   6.427   6.747   0.872  1.4185 -1.0772  1.0145
19521SOL    HW260005   6.533   6.681   0.788  1.5751  1.1914 -0.6609
19522SOL     OW60006   4.941   4.426   6.127 -0.3556 -0.1836 -0.3984
19522SOL    HW160007   4.857   4.462   6.099  0.0420  0.8080 -0.3499
19522SOL    HW260008   4.924   4.332   6.138 -1.2398 -0.1382 -1.1946
19523SOL     OW60009   5.453   6.793  10.353  0.1005 -0.3791 -0.0843
19523SOL    HW160010   5.443   6.854  10.427 -1.0919  0.5140 -0.9387
19523SOL    HW260011   5.366   6.788  10.315  0.4483 -1.7416 -0.7508
19524SOL     OW60012   3.824   7.954   0.308  0.0669 -0.7400  0.3068
19524SOL    HW160013   3.753   7.892   0.291  0.4647 -0.8393 -1.0399
19524SOL    HW260014   3.904   7.903   0.292  0.4316 -0.3129  0.7445
19525SOL     OW60015   2.105   0.644   0.030  0.4355  0.1620 -0.2206
19525SOL    HW160016   2.094   0.552   0.009 -0.3721  0.0387  0.6754
19525SOL    HW260017   2.199   0.655   0.042  0.6437 -0.3065 -1.3442
19526SOL     OW60018   2.191   6.852   9.404  0.0399  0.5204  0.3288
19526SOL    HW160019   2.102   6.866   9.435 -0.0394  2.0675 -0.4834
19526SOL    HW260020   2.245   6.852   9.483 -0.8240 -2.4365  1.0289
19527SOL     OW60021   1.609   1.126   0.866 -0.0916 -0.0450 -0.3362
19527SOL    HW160022   1.526   1.088   0.895 -0.0547  0.0596 -0.0870
19527SOL    HW260023   1.588   1.216   0.845 -0.0162  0.0176 -0.1476
19528SOL     OW60024   6.941   0.285   6.377  0.3617 -0.1680 -0.3084
19528SOL    HW160025   7.011   0.232   6.416 -0.1036  0.1603  1.0012
19528SOL    HW260026   6.867   0.274   6.436 -0.2632  0.6205 -0.9268
19529SOL     OW60027   5.184   1.753   4.317 -0.3735  0.1541  0.1188
19529SOL    HW160028   5.192   1.730   4.410 -0.4673  0.3475  0.1738
19529SOL    HW260029   5.091   1.771   4.305 -0.2229  1.0012  0.1875
19530SOL     OW60030   3.842   7.892   3.407  0.0459  0.0497  0.5859
19530SOL    HW160031   3.764   7.861   3.452 -0.6489  1.3647  0.3215
19530SOL    HW260032   3.810   7.951   3.338  1.0665 -1.8709 -1.6859
19531SOL     OW60033   5.538   5.889   8.205  0.0020  0.3522 -0.0056
19531SOL    HW160034   5.521   5.983   8.194 -0.8841  0.5191  2.2150
19531SOL    HW260035   5.616   5.885   8.260  0.3667 -0.2213 -0.5655
19532SOL     OW60036   5.915   1.343   5.489  0.0677  0.2145  0.0244
19532SOL    HW160037   5.843   1.286   5.460  1.8407 -2.1912  0.0496
19532SOL    HW260038   5.907   1.345   5.584 -1.1375  1.6772 -0.0740
19533SOL     OW60039   1.045   3.725  11.071 -0.2664  0.2188  0.1895
19533SOL    HW160040   1.119   3.683  11.115  0.1673  0.1202 -0.6136
19533SOL    HW260041   0.989   3.755  11.143  0.1808 -0.3547  0.8017
19534SOL     OW60042   5.387   3.421   8.386 -0.1945 -0.1132 -0.1323
19534SOL    HW160043   5.432   3.419   8.470 -0.0902  0.9737 -0.1429
19534SOL    HW260044   5.294   3.430   8.408 -0.2913 -1.0732 -0.1251
19535SOL     OW60045   7.811   2.989  11.700 -0.1360 -0.0588 -0.4996
19535SOL    HW160046   7.749   2.958  11.634 -2.3464  2.2381  0.3490
19535SOL    HW260047   7.840   3.074  11.668  2.9455 -1.1801 -1.0127
19536SOL     OW60048   6.271   0.376   9.634 -0.0900  0.1203 -0.3234
19536SOL    HW160049   6.296   0.394   9.725  0.1803  0.2132 -0.4151
19536SOL    HW260050   6.198   0.314   9.641  0.0649 -0.0348 -0.0449
19537SOL     OW60051   7.927   7.135   0.562 -0.8479  0.7731  0.8732
19537SOL    HW160052   8.006   7.115   0.613 -0.4479  0.3678  0.1252
19537SOL    HW260053   7.855   7.122   0.623 -0.4849 -1.2425  0.9483
19538SOL     OW60054   4.931   2.137   2.768 -0.4147 -0.7460  0.1564
19538SOL    HW160055   4.884   2.211   2.807  1.0678 -0.9046  2.4001
19538SOL    HW260056   4.862   2.075   2.743 -1.4911 -0.4985  2.3086
19539SOL     OW60057   0.740   0.211  10.312 -0.1542  0.3134 -0.4632
19539SOL    HW160058   0.684   0.182  10.384 -0.0931  0.3955 -0.3833
19539SOL    HW260059   0.776   0.130  10.276 -0.1688  0.2732 -0.3882
19540SOL     OW60060   6.174   3.388   9.218 -0.4299 -0.2020  0.1806
19540SOL    HW160061   6.196   3.320   9.155 -1.7385  0.6767 -1.3076
19540SOL    HW260062   6.085   3.368   9.246 -0.2604  0.0345  0.8979
19541SOL     OW60063   3.433   6.537   6.911  0.1468 -0.3971  0.4850
19541SOL    HW160064   3.348   6.544   6.867  0.5422  1.9007 -0.0505
19541SOL    HW260065   3.416   6.481   6.986 -1.4698 -1.2524 -0.4476
19542SOL     OW60066   7.195   7.007   7.445 -0.1431  0.8005  0.3232
19542SOL    HW160067   7.282   7.030   7.413 -0.3465 -0.6738 -1.4477
19542SOL    HW260068   7.138   7.074   7.409 -0.0772  0.3258 -0.6861
19543SOL     OW60069   1.273   1.607  10.768 -0.5700  0.1021  0.1636
19543SOL    HW160070   1.283   1.587  10.861 -1.3123 -1.1700 -0.0163
19543SOL    HW260071   1.326   1.541  10.723  0.4144  1.1744 -0.3164
19544SOL     OW60072   7.643   1.291   5.121 -0.6361 -0.4955 -0.4562
19544SOL    HW160073   7.677   1.348   5.190  0.8982 -0.9984 -0.7563
19544SOL    HW260074   7.583   1.346   5.071 -0.1178  0.4936 -0.0053
19545SOL     OW60075   7.977   7.946  11.222 -1.0695  0.1793 -0.0128
19545SOL    HW160076   8.032   7.873  11.194 -0.5082  0.9032 -0.8976
19545SOL    HW260077   7.975   7.941  11.317  0.0108 -0.2419 -0.0038
19546SOL     OW60078   5.615   0.693   4.369  0.7626  0.2124  0.1490
19546SOL    HW160079   5.606   0.635   4.445  1.4819 -1.2404 -0.8227
19546SOL    HW260080   5.709   0.706   4.360  0.6044  2.0254  0.6536
19547SOL     OW60081   5.480   5.785   2.142  0.3362  0.0023  0.0360
19547SOL    HW160082   5.542   5.808   2.073  0.0049 -1.2115 -0.6898
19547SOL    HW260083   5.402   5.836   2.122  1.1485  1.8042  1.1446
19548SOL     OW60084   3.358   4.501   3.322 -0.1344 -0.0733  0.2719
19548SOL    HW160085   3.399   4.564   3.382 -2.1701  2.7158 -1.0200
19548SOL    HW260086   3.312   4.440   3.380 -0.0722  1.0879  1.5993
19549SOL     OW60087   0.182   5.212   2.649 -0.0367  0.4492  0.6521
19549SOL    HW160088   0.154   5.133   2.603 -1.0890 -0.3445  2.5512
19549SOL    HW260089   0.120   5.279   2.621 -0.4576  0.0661  0.6634
19550SOL     OW60090   6.277   0.430   8.979  0.0424 -0.3238 -0.4210
19550SOL    HW160091   6.336   0.503   8.997  0.9899 -0.5464 -2.3435
19550SOL    HW260092   6.201   0.445   9.036  1.2083  0.8909  0.8652
19551SOL     OW60093   3.540   3.731   2.609 -0.0342  0.9557 -0.1161
19551SOL    HW160094   3.454   3.741   2.650 -0.6071 -0.0838 -0.9922
19551SOL    HW260095   3.595   3.796   2.652 -0.6808  0.1502  2.0489
19552SOL     OW60096   5.514   3.250  10.840  0.2758 -0.1503 -0.2632
19552SOL    HW160097   5.480   3.239  10.929  1.7089  0.5876  0.4098
19552SOL    HW260098   5.495   3.341  10.818  1.6042  0.2327  0.0680
19553SOL     OW60099   3.145   3.765   2.555  0.1267 -0.5803  0.3110
19553SOL    HW160100   3.139   3.768   2.459  0.4984 -0.8688  0.2753
19553SOL    HW260101   3.220   3.820   2.576 -1.1821  1.1610  0.5900
19554SOL     OW60102   7.806   3.516   2.389 -0.4182 -0.2880 -0.0358
19554SOL    HW160103   7.864   3.490   2.461 -1.4072  1.8927  1.6644
19554SOL    HW260104   7.864   3.529   2.314  1.2039  1.0969  1.4054
19555SOL     OW60105   3.905   5.041   9.564 -0.0444  0.2908  0.2450
19555SOL    HW160106   3.856   5.108   9.515  1.3191  1.8334  0.8850
19555SOL    HW260107   3.840   4.975   9.586 -1.5918  1.6795  0.0459
19556SOL     OW60108   5.653   3.733   2.017  0.1831  0.6613 -0.0333
19556SOL    HW160109   5.611   3.816   1.993 -1.3965  0.1063  0.6116
19556SOL    HW260110   5.699   3.706   1.938 -2.0207  0.5557 -1.3773
19557SOL     OW60111   7.557   7.372   6.774 -0.0954 -0.2150 -0.2791
19557SOL    HW160112   7.607   7.435   6.722 -0.8453  0.2512 -0.4443
19557SOL    HW260113   7.487   7.344   6.716  0.1826 -1.1491 -0.1784
19558SOL     OW60114   4.601   1.764   6.286 -0.2213 -0.1401  0.0950
19558SOL    HW160115   4.551   1.798   6.360 -1.9781 -1.5697 -0.3595
19558SOL    HW260116   4.677   1.721   6.326 -0.5635  0.0621  0.9810
19559SOL     OW60117   2.914   5.993   8.948  0.5733  0.2676  0.5641
19559SOL    HW160118   2.831   5.985   8.996 -0.5874 -0.1784 -1.3827
19559SOL    HW260119   2.970   6.045   9.005 -1.1548  0.8110  1.8506
19560SOL     OW60120   2.239   4.624   5.735 -0.4631 -0.2835 -0.1997
19560SOL    HW160121   2.253   4.625   5.830  0.7159  0.1645 -0.3609
19560SOL    HW260122   2.279   4.705   5.704 -2.0362  0.2644 -0.9422
19561SOL     OW60123   7.714   4.487  11.325 -0.2602  0.1018  0.6884
19561SOL    HW160124   7.701   4.428  11.251 -0.8196  0.3901  0.5535
19561SOL    HW260125   7.634   4.539  11.329  1.3449  2.9578 -1.0813
19562SOL     OW60126   1.354   1.901   4.338  0.1039  0.6706  0.5259
19562SOL    HW160127   1.327   1.976   4.391  1.0487  1.1768  0.3283
19562SOL    HW260128   1.418   1.938   4.276 -1.8016  0.3689 -1.7804
19563SOL     OW60129   3.113   1.146   4.903 -0.7888 -0.3949  0.0123
19563SOL    HW160130   3.167   1.067   4.912  0.8714  0.7862  1.0738
19563SOL    HW260131   3.127   1.174   4.812 -0.1586 -0.4958  0.0703
19564SOL     OW60132   2.746   7.071   7.655 -0.4004  0.4194  0.3963
19564SOL    HW160133   2.766   7.014   7.729  0.8059 -0.4763 -0.5661
19564SOL    HW260134   2.829   7.079   7.608 -0.5462  2.9848  0.4653
19565SOL     OW60135   5.102   4.895   0.570 -0.0557  0.3688  0.7978
19565SOL    HW160136   5.044   4.970   0.558  0.9210  1.0951  0.4433
19565SOL    HW260137   5.053   4.835   0.626 -2.0639 -0.0822 -1.2663
19566SOL     OW60138   4.165   3.850   1.859 -0.5351  0.0843 -0.6041
19566SOL    HW160139   4.194   3.765   1.828 -0.1034  0.0634 -0.1534
19566SOL    HW260140   4.083   3.866   1.812 -1.3403 -1.1899  0.3229
19567SOL     OW60141   7.287   5.865   0.128  0.1147 -0.6318 -0.1347
19567SOL    HW160142   7.243   5.942   0.166  1.3196  0.4870 -0.9169
19567SOL    HW260143   7.250   5.858   0.041  2.0257  0.8968 -1.1621
19568SOL     OW60144   2.690   5.385  12.282 -0.0338  0.2465 -0.2914
19568SOL    HW160145   2.758   5.357  12.221 -0.7098  0.5073 -1.1829
19568SOL    HW260146   2.700   5.480  12.288 -0.1027  0.2456 -0.1455
19569SOL     OW60147   4.934   4.957  10.625 -0.4391  0.5585  0.0395
19569SOL    HW160148   4.934   5.051  10.607 -1.2493  0.5221 -0.1989
19569SOL    HW260149   4.841   4.932  10.621 -0.2192 -0.2731 -0.0164
19570SOL     OW60150   5.101   1.052  10.597 -0.0589 -0.3323  0.4205
19570SOL    HW160151   5.021   1.105  10.602  1.2412  1.8934 -0.6995
19570SOL    HW260152   5.114   1.036  10.504  1.8480  1.1547  0.3704
19571SOL     OW60153   7.748   1.035   5.620 -0.0975  0.3775 -0.1191
19571SOL    HW160154   7.830   0.987   5.618 -0.6763 -0.7507  1.2624
19571SOL    HW260155   7.723   1.045   5.528  1.7980  1.1902 -0.5829
19572SOL     OW60156   3.749   5.265   7.904  0.5836  0.1950 -0.1291
19572SOL    HW160157   3.820   5.327   7.917  1.1200 -0.4384  0.0129
19572SOL    HW260158   3.766   5.226   7.819 -1.3404  2.2659 -1.5742
19573SOL     OW60159   4.060   7.001   7.902 -0.6365  0.1316 -0.5142
19573SOL    HW160160   4.009   6.964   7.974 -2.4840  0.5547 -1.5432
19573SOL    HW260161   4.093   6.925   7.854 -0.3291 -0.1480  0.1285
19574SOL     OW60162   7.404   0.578   9.930  0.0296  0.0026  0.1847
19574SOL    HW160163   7.340   0.516   9.896  1.0961 -1.6472  1.0763
19574SOL    HW260164   7.465   0.525   9.982  2.2396  1.4578 -0.7517
19575SOL     OW60165   4.277   6.337  11.135 -0.2557  0.1797 -0.0759
19575SOL    HW160166   4.192   6.379  11.127 -0.2462  0.2890  0.3444
19575SOL    HW260167   4.275   6.265  11.073  0.3001  1.7041 -1.9590
19576SOL     OW60168   7.014   6.868   6.810  0.6090 -0.3407  0.0050
19576SOL    HW160169   7.017   6.879   6.715  2.0094 -1.1592 -0.0684
19576SOL    HW260170   6.970   6.948   6.842  1.1538  0.4892 -1.2419
19577SOL     OW60171   1.913   3.582   4.347 -0.4817  0.3435 -0.3014
19577SOL    HW160172   1.947   3.669   4.328  0.4440  0.5456  2.0018
19577SOL    HW260173   1.991   3.526   4.348 -0.8232 -0.1225  0.2724
19578SOL     OW60174   7.247   2.473  12.148 -0.0172  0.3298  0.1178
19578SOL    HW160175   7.190   2.403  12.180  2.6441 -0.9294  2.5629
19578SOL    HW260176   7.218   2.551  12.195 -0.0168 -0.2021  1.0267
19579SOL     OW60177   6.688   7.781   7.289  0.0303  0.6292 -0.0414
19579SOL    HW160178   6.740   7.701   7.281  1.1481  1.2990  0.2496
19579SOL    HW260179   6.662   7.803   7.199  0.4840  0.4253 -0.2235
19580SOL     OW60180   4.690   7.784   6.309 -0.1776  0.6443 -0.3464
19580SOL    HW160181   4.783   7.767   6.325 -0.8027 -1.3511  1.8424
19580SOL    HW260182   4.670   7.735   6.229  0.6093  1.0545 -0.8108
19581SOL     OW60183   2.710   1.138   0.951  0.1711  0.6121 -0.1575
19581SOL    HW160184   2.648   1.128   1.023  1.5895 -0.0428  1.0118
19581SOL    HW260185   2.783   1.188   0.989  0.6879  0.7589 -1.3062
19582SOL     OW60186   5.128   2.724   3.279  0.1650  0.1632 -0.1254
19582SOL    HW160187   5.180   2.784   3.333  0.1021  1.1718 -1.1566
19582SOL    HW260188   5.040   2.762   3.279 -0.6561 -1.5245  1.6014
19583SOL     OW60189   0.441   5.886   6.914  0.5574  0.0940  0.5378
19583SOL    HW160190   0.429   5.793   6.898  2.0637 -0.0840  0.2965
19583SOL    HW260191   0.503   5.914   6.846  0.2260  1.2393  0.6882
19584SOL     OW60192   5.071   4.052   0.686  0.0908  0.1865  0.2061
19584SOL    HW160193   5.152   4.018   0.649  0.6718  0.0291  1.5772
19584SOL    HW260194   5.002   3.997   0.650  0.8812 -1.5950  1.3051
19585SOL     OW60195   1.836   5.836  11.634 -0.2189 -0.4294 -0.7542
19585SOL    HW160196   1.791   5.918  11.615 -1.1106 -0.5015  0.8014
19585SOL    HW260197   1.903   5.860  11.699 -1.0360 -1.0153  0.3502
19586SOL     OW60198   2.115   6.606   3.279  0.7355 -0.9296 -0.4758
19586SOL    HW160199   2.040   6.649   3.321  1.0354 -3.4121  2.9941
19586SOL    HW260200   2.076   6.535   3.228  0.6172 -0.9963 -0.2944
19587SOL     OW60201   0.407   6.740  11.191  0.6617 -0.9783 -0.1823
19587SOL    HW160202   0.340   6.766  11.254 -0.9860 -0.5786 -2.0237
19587SOL    HW260203   0.424   6.648  11.212  1.9900 -0.2732  2.3642
19588SOL     OW60204   1.524   0.336   2.686  0.1607 -0.0403 -0.2487
19588SOL    HW160205   1.465   0.282   2.633 -0.3932  0.3617 -0.0587
19588SOL    HW260206   1.488   0.329   2.775  1.8468 -1.7869  0.3631
19589SOL     OW60207   5.924   1.450   6.169 -0.8326 -0.0123  0.0346
19589SOL    HW160208   5.885   1.394   6.102  0.8902 -0.9576 -0.2344
19589SOL    HW260209   5.992   1.500   6.123  0.5818 -0.8929  1.0873
19590SOL     OW60210   5.810   7.846   5.398  0.4475  0.2001 -0.2091
19590SOL    HW160211   5.719   7.826   5.375  0.6264  0.5085 -1.2598
19590SOL    HW260212   5.806   7.879   5.487 -0.5719  0.8776 -0.4904
19591SOL     OW60213   2.431   1.372  11.869  0.8386 -0.1282 -0.3244
19591SOL    HW160214   2.369   1.301  11.882 -2.7844  2.5828 -1.0207
19591SOL    HW260215   2.511   1.343  11.912 -0.2767 -4.6361 -0.8442
19592SOL     OW60216   2.739   4.165   9.962 -0.1766 -0.5065 -0.4253
19592SOL    HW160217   2.776   4.137  10.046 -0.0443  0.2396 -0.2337
19592SOL    HW260218   2.741   4.260   9.965 -2.5209 -0.4002 -0.2179
19593SOL     OW60219   3.372   5.760   2.081  0.2202  0.1206  0.0763
19593SOL    HW160220   3.464   5.754   2.104  0.2933 -0.3264 -0.3144
19593SOL    HW260221   3.326   5.763   2.165  0.5257 -0.7163  0.2789
19594SOL     OW60222   4.254   5.353   6.959  0.1028  0.5157  0.0193
19594SOL    HW160223   4.264   5.409   6.882  0.4952 -1.5303 -1.4982
19594SOL    HW260224   4.336   5.304   6.963  0.1217  0.6414  1.8260
19595SOL     OW60225   0.952   3.035   3.362  0.9198 -0.1060  0.1270
19595SOL    HW160226   1.039   3.011   3.328  0.9170 -0.2203  0.2022
19595SOL    HW260227   0.934   3.120   3.322  0.1524 -1.0226 -1.5907
19596SOL     OW60228   0.165   3.683   3.415  0.4384 -0.5591  0.8474
19596SOL    HW160229   0.206   3.629   3.347 -0.8415  0.0922 -0.4996
19596SOL    HW260230   0.237   3.733   3.452  0.8590  1.1848 -2.0427
19597SOL     OW60231   2.421   4.467   8.307 -0.2344  0.3986 -0.2126
19597SOL    HW160232   2.401   4.417   8.228  0.0722  0.7590 -0.5226
19597SOL    HW260233   2.504   4.430   8.338 -0.3030  0.3261 -0.1152
19598SOL     OW60234   5.422   5.934   9.383 -0.2628  0.6970  0.2780
19598SOL    HW160235   5.359   5.992   9.339 -0.5182 -0.2898 -0.6734
19598SOL    HW260236   5.483   5.907   9.315 -1.3856 -1.8352  0.1773
19599SOL     OW60237   1.599   0.249  11.669 -0.3252 -0.1715 -0.1523
19599SOL    HW160238   1.631   0.250  11.579 -1.9388  0.0298 -0.7599
19599SOL    HW260239   1.523   0.307  11.668 -1.6319 -1.7674  0.8346
19600SOL     OW60240   1.362   0.031   5.178  0.4075  0.1852  0.2083
19600SOL    HW160241   1.441  -0.012   5.211 -0.2004  0.4233  2.0813
19600SOL    HW260242   1.290  -0.025   5.207 -0.1772  0.4189 -0.7383
19601SOL     OW60243   0.095   5.310   5.936 -0.3556  0.0316 -0.0098
19601SOL    HW160244   0.141   5.229   5.958 -1.4590 -0.1380  1.9898
19601SOL    HW260245   0.003   5.289   5.950 -0.6750  1.5725  0.3960
19602SOL     OW60246   5.828   0.110   8.724 -0.0893  0.4061 -0.2302
19602SOL    HW160247   5.914   0.077   8.699 -1.7641 -4.5330 -0.4399
19602SOL    HW260248   5.802   0.168   8.652  2.2821  0.6041 -0.9984
19603SOL     OW60249   5.859   1.842  11.115 -0.4566  0.3199 -0.0426
19603SOL    HW160250   5.827   1.780  11.181  1.1825 -0.4326  0.0944
19603SOL    HW260251   5.782   1.894  11.092 -1.4910 -0.6376  1.0914
19604SOL     OW60252   4.946   0.895   9.079  0.3650  0.1927  0.6385
19604SOL    HW160253   4.957   0.865   8.989  0.9437  0.0318  0.7603
19604SOL    HW260254   4.851   0.901   9.090  0.1158 -2.5359  0.8795
19605SOL     OW60255   0.164   5.114   4.261 -0.1303 -0.0476  0.3333
19605SOL    HW160256   0.108   5.180   4.220 -2.0788 -0.9893  1.3161
19605SOL    HW260257   0.111   5.034   4.260  0.9890 -0.8627  1.8010
19606SOL     OW60258   7.674   7.241  11.059  0.2953 -0.0327  0.1702
19606SOL    HW160259   7.744   7.202  11.007 -0.6833 -1.9720  0.1884
19606SOL    HW260260   7.690   7.208  11.148 -0.1201  0.2305  0.3452
19607SOL     OW60261   7.208   0.287   7.445 -0.0538  0.3190 -0.7796
19607SOL    HW160262   7.148   0.234   7.393  0.5065 -0.7340 -0.3966
19607SOL    HW260263   7.156   0.316   7.520  0.2456 -1.8011  0.3201
19608SOL     OW60264   3.600   0.513   9.703  0.2852  0.1287  0.0924
19608SOL    HW160265   3.649   0.591   9.730  0.4234  0.1650 -0.2630
19608SOL    HW260266   3.519   0.517   9.755  0.8048 -0.1166  0.9295
19609SOL     OW60267   5.160   6.751  10.444  0.6027 -0.1261  0.1805
19609SOL    HW160268   5.091   6.817  10.453  0.6089 -0.0994  0.0415
19609SOL    HW260269   5.150   6.718  10.354  3.2661  2.7137 -1.3677
19610SOL     OW60270   5.180   2.740   4.641 -0.0751 -0.3931 -0.0399
19610SOL    HW160271   5.123   2.798   4.591  1.1892 -0.2904 -1.4338
19610SOL    HW260272   5.173   2.655   4.599  0.6129 -0.4355 -0.0838
19611SOL     OW60273   7.953   5.212   2.838  0.6013 -1.4126  0.4541
19611SOL    HW160274   7.940   5.182   2.748  1.4579 -0.0918 -0.1375
19611SOL    HW260275   7.872   5.258   2.861  1.2160  0.1931 -0.4718
19612SOL     OW60276   3.560   2.331   2.720  0.2824 -0.3188  0.1676
19612SOL    HW160277   3.544   2.403   2.659  0.6047 -0.2888  0.1202
19612SOL    HW260278   3.645   2.350   2.759  0.3735 -0.6829  0.1473
19613SOL     OW60279   2.618   0.702   0.818 -0.0299 -0.5948 -0.2501
19613SOL    HW160280   2.693   0.706   0.758 -1.2388 -1.4773 -1.8983
19613SOL    HW260281   2.584   0.791   0.821  0.9151 -0.2362  0.3262
19614SOL     OW60282   3.463   3.244   7.088  0.7914 -0.0154  0.0846
19614SOL    HW160283   3.449   3.215   6.998  0.2899  0.0336  0.1413
19614SOL    HW260284   3.554   3.222   7.107  0.4251 -1.6280  0.1524
19615SOL     OW60285   0.256   3.751   8.287  0.0377 -0.4252  0.6477
19615SOL    HW160286   0.212   3.834   8.269 -0.2028 -0.5372  0.7163
19615SOL    HW260287   0.285   3.720   8.201  1.5584  0.5197  0.7915
19616SOL     OW60288   1.395   2.884   0.626  0.5404 -0.7330  1.3550
19616SOL    HW160289   1.326   2.820   0.608  0.8944 -0.9957  0.9045
19616SOL    HW260290   1.385   2.950   0.557 -1.5481  1.2007  3.3191
19617SOL     OW60291   3.899   3.919  10.655 -0.0661 -0.0967 -0.0263
19617SOL    HW160292   3.852   3.880  10.581 -0.3707 -0.4365  0.3439
19617SOL    HW260293   3.831   3.957  10.710 -0.0821 -1.7665  1.2112
19618SOL     OW60294   4.279   1.842   5.922  0.0200 -0.3305  0.4998
19618SOL    HW160295   4.298   1.756   5.961 -0.7612  0.2749  2.3497
19618SOL    HW260296   4.364   1.884   5.914  0.2661 -0.7141  1.0026
19619SOL     OW60297   0.734   3.594   0.011 -0.0757  0.1340  0.0352
19619SOL    HW160298   0.698   3.674  -0.029  3.3731  1.9299  0.1446
19619SOL    HW260299   0.790   3.626   0.082  0.9644 -2.4406  0.4643
19620SOL     OW60300   2.914   4.173   8.231  0.0234  0.6592  0.3178
19620SOL    HW160301   2.997   4.126   8.237  0.1263  0.9272  1.0338
19620SOL    HW260302   2.879   4.173   8.320 -0.9601  0.1677 -0.0544
19621SOL     OW60303   3.439   5.153   8.792 -0.4154 -0.1256 -0.9500
19621SOL    HW160304   3.443   5.061   8.815 -1.4102  0.1359  0.4085
19621SOL    HW260305   3.351   5.165   8.755 -0.2702  0.2572 -1.1790
19622SOL     OW60306   4.727   7.783   2.837  0.3154 -0.3000  0.5420
19622SOL    HW160307   4.792   7.845   2.870  0.2483 -2.1742  4.9486
19622SOL    HW260308   4.670   7.835   2.781  1.7882  2.9736  1.8150
19623SOL     OW60309   2.775   3.796   5.940 -0.1879 -0.0155 -0.1394
19623SOL    HW160310   2.826   3.727   5.896  0.0076 -0.5596  0.9185
19623SOL    HW260311   2.803   3.877   5.897 -0.8979 -0.6253 -1.8651
19624SOL     OW60312   5.266   2.158  11.538  0.2551  0.4386 -0.6671
19624SOL    HW160313   5.247   2.069  11.571  1.4897  0.1820 -0.6012
19624SOL    HW260314   5.324   2.196  11.605 -1.1459  1.7344 -0.1217
19625SOL     OW60315   4.184   2.787   4.995  0.1473  0.0999  0.7090
19625SOL    HW160316   4.270   2.824   5.015 -0.0830  0.1953  1.5764
19625SOL    HW260317   4.123   2.836   5.051 -0.4686  0.0099  0.1290
19626SOL     OW60318   3.072   6.585   4.412  0.3249 -0.5295 -0.6449
19626SOL    HW160319   3.067   6.616   4.502  0.4457 -0.2427 -0.7359
19626SOL    HW260320   2.981   6.575   4.385  0.2622  0.7117 -0.9427
19627SOL     OW60321   4.239   6.264   5.058 -0.1359  0.7090  0.5509
19627SOL    HW160322   4.166   6.325   5.056 -1.5074 -0.8620 -1.7310
19627SOL    HW260323   4.206   6.188   5.106  0.4237  0.4496  0.5386
19628SOL     OW60324   0.199   7.548   5.072  0.1895 -0.5491 -0.1277
19628SOL    HW160325   0.285   7.507   5.081 -0.7116 -2.5585 -0.0849
19628SOL    HW260326   0.174   7.532   4.981  0.3929  1.2246 -0.5367
19629SOL     OW60327   5.258   4.098   7.399 -0.6276  0.3851  0.2192
19629SOL    HW160328   5.292   4.078   7.486  0.6169  1.5356  0.0370
19629SOL    HW260329   5.222   4.187   7.408 -0.6398  0.4460 -0.3985
19630SOL     OW60330   6.336   3.571   1.502 -0.4624 -0.8957 -0.2108
19630SOL    HW160331   6.402   3.511   1.469 -0.1463 -0.8621  0.3391
19630SOL    HW260332   6.320   3.542   1.592 -0.5031 -0.3365 -0.0285
19631SOL     OW60333   6.080   2.702   5.178  0.3555  0.2042 -0.4961
19631SOL    HW160334   6.167   2.737   5.157  1.1445 -0.8007  0.9119
19631SOL    HW260335   6.039   2.771   5.231  1.9271 -0.8430  2.3169
19632SOL     OW60336   2.108   7.431   4.819 -0.6994  0.5587  1.0733
19632SOL    HW160337   2.172   7.462   4.754 -1.5016  2.4052  1.0847
19632SOL    HW260338   2.087   7.342   4.791  0.5227  0.5722  0.0076
19633SOL     OW60339   4.453   5.558   0.535 -0.1459 -0.2243  0.5218
19633SOL    HW160340   4.427   5.634   0.483  2.3794  0.7064  0.4904
19633SOL    HW260341   4.479   5.594   0.620  0.6794 -1.0650  0.6475
19634SOL     OW60342   7.697   3.104   4.181  0.1653 -0.7435 -1.1581
19634SOL    HW160343   7.710   3.142   4.094 -0.9685 -0.0080 -1.0262
19634SOL    HW260344   7.614   3.058   4.175 -1.4017  1.6770  0.2549
19635SOL     OW60345   7.119   1.456   8.163 -0.6358 -0.2555 -0.5630
19635SOL    HW160346   7.054   1.494   8.105 -1.2953  1.3000  1.0970
19635SOL    HW260347   7.075   1.382   8.204 -0.2765 -1.1487 -1.7281
19636SOL     OW60348   7.027   2.480   4.809  0.1017  0.0045  0.5359
19636SOL    HW160349   7.000   2.388   4.804  0.4323 -0.0672  0.0628
19636SOL    HW260350   7.077   2.485   4.891  0.2990 -0.2931  0.4347
19637SOL     OW60351   0.190   3.733   7.300  0.4048 -0.6041 -0.7884
19637SOL    HW160352   0.194   3.679   7.379 -0.7240 -0.6773 -0.7678
19637SOL    HW260353   0.118   3.696   7.249 -0.7133  1.1289 -0.5669
19638SOL     OW60354   1.329   7.710   2.376  0.2291 -0.3220  0.1644
19638SOL    HW160355   1.353   7.637   2.319 -0.6278 -0.5618  0.1000
19638SOL    HW260356   1.406   7.722   2.433  1.1312 -0.0385 -1.0679
19639SOL     OW60357   6.148   0.170   2.550 -0.0461  0.0851  0.0246
19639SOL    HW160358   6.199   0.228   2.607 -0.3142  0.1283  0.2215
19639SOL    HW260359   6.146   0.086   2.597  0.7177 -0.2239 -0.4627
19640SOL     OW60360   3.423   0.016   9.871  0.0720 -0.2307 -0.3318
19640SOL    HW160361   3.406   0.108   9.852  4.4916  1.6471  2.9106
19640SOL    HW260362   3.406   0.008   9.965  0.9301 -2.3577 -0.2968
19641SOL     OW60363   2.985   5.714   3.405 -0.1831  0.0209 -0.4485
19641SOL    HW160364   2.905   5.741   3.451  0.1762 -0.0219  0.2268
19641SOL    HW260365   3.026   5.796   3.378  0.4014  0.1412  0.7240
19642SOL     OW60366   4.514   4.463   2.279  0.2796 -0.0380 -0.3841
19642SOL    HW160367   4.479   4.527   2.341 -0.5293  1.8637 -2.6193
19642SOL    HW260368   4.609   4.478   2.281  0.3706 -0.6948  1.0586
19643SOL     OW60369   6.877   2.702  11.020  0.2892  0.5626  0.0789
19643SOL    HW160370   6.824   2.758  10.963 -0.3354  1.1112  1.1714
19643SOL    HW260371   6.967   2.732  11.005 -0.0384  2.0051  0.7430
19644SOL     OW60372   3.693   1.685   4.502  0.4882 -1.0315  0.6484
19644SOL    HW160373   3.762   1.623   4.477 -0.1309 -1.1401 -0.8749
19644SOL    HW260374   3.732   1.771   4.490  0.4788 -1.0976  0.1170
19645SOL     OW60375   2.669   5.929   4.557 -0.4334 -0.1638 -0.0495
19645SOL    HW160376   2.711   5.845   4.539 -2.5115 -1.4841  0.9388
19645SOL    HW260377   2.649   5.965   4.470  0.3607 -0.7326 -0.4767
19646SOL     OW60378   3.777   6.811   0.204 -0.1197 -0.1280  0.6716
19646SOL    HW160379   3.760   6.888   0.149  2.2148  0.3426  0.5194
19646SOL    HW260380   3.693   6.765   0.208 -1.5257  2.2847  0.5620
19647SOL     OW60381   5.741   7.679  12.348 -0.4698  0.3800  0.2399
19647SOL    HW160382   5.775   7.606  12.401  0.0049  0.2460 -0.2329
19647SOL    HW260383   5.746   7.646  12.258  1.4599  1.6329 -0.1689
19648SOL     OW60384   2.221   4.307   0.839 -0.0144  0.0356  0.0210
19648SOL    HW160385   2.311   4.278   0.827 -0.3175 -0.7360 -0.4294
19648SOL    HW260386   2.171   4.227   0.854 -0.5502  0.4980  0.7988
19649SOL     OW60387   0.174   0.345   3.972  0.0776  0.1994 -0.2333
19649SOL    HW160388   0.143   0.255   3.967 -1.0955  0.6242 -1.0642
19649SOL    HW260389   0.267   0.340   3.947 -0.1407 -0.6842 -0.9167
19650SOL     OW60390   1.602   4.032   4.750  0.2173 -0.1172  0.5517
19650SOL    HW160391   1.692   4.031   4.784  0.7569  0.4534 -0.7938
19650SOL    HW260392   1.547   4.037   4.828  1.3879  0.4286  1.3705
19651SOL     OW60393   0.187   5.848   0.286  0.5101  0.1617 -1.0283
19651SOL    HW160394   0.149   5.865   0.199 -3.1657  1.6045  0.6717
19651SOL    HW260395   0.238   5.927   0.305 -0.5227  0.8601 -1.0403
19652SOL     OW60396   2.870   1.681   4.726 -0.1005  0.4880  0.2574
19652SOL    HW160397   2.898   1.656   4.638  0.7489 -0.5397  0.8031
19652SOL    HW260398   2.788   1.729   4.712 -0.4977 -0.5043 -1.0147
19653SOL     OW60399   2.497   0.912  10.777 -0.1132  0.2623  0.5528
19653SOL    HW160400   2.514   0.992  10.828  1.2207  0.4244 -0.0990
19653SOL    HW260401   2.553   0.920  10.700 -0.1870 -1.1635  0.3202
19654SOL     OW60402   6.590   0.359   3.887  0.3603  0.1242  0.6307
19654SOL    HW160403   6.543   0.336   3.967 -1.5961  0.1682 -0.4450
19654SOL    HW260404   6.571   0.289   3.826 -0.8537  1.6271 -0.8086
19655SOL     OW60405   6.664   0.516   0.746  0.0351  0.2643 -0.0912
19655SOL    HW160406   6.670   0.455   0.672 -1.5702  0.6736 -0.5877
19655SOL    HW260407   6.647   0.601   0.705  1.1770  0.8782  0.6590
19656SOL     OW60408   3.827   2.491  11.597 -0.0314  0.1581 -0.2309
19656SOL    HW160409   3.778   2.522  11.521  0.1872 -0.3018 -0.5630
19656SOL    HW260410   3.765   2.435  11.644  0.5476 -1.4846 -1.3464
19657SOL     OW60411   5.347   7.484   6.463 -0.1036  0.1634  0.6091
19657SOL    HW160412   5.304   7.445   6.540 -0.2903 -0.4461  0.2071
19657SOL    HW260413   5.430   7.517   6.496 -0.0696 -0.3249  1.0291
19658SOL     OW60414   4.103   5.961   4.200 -0.2486 -0.0248 -0.5099
19658SOL    HW160415   4.072   6.048   4.226  2.5432  0.4722  1.6240
19658SOL    HW260416   4.102   5.962   4.104 -0.9123  2.1104 -0.5223
19659SOL     OW60417   7.623   3.537   3.359  0.2292 -0.4490 -0.1426
19659SOL    HW160418   7.529   3.553   3.364 -0.1690 -1.4674 -2.5654
19659SOL    HW260419   7.663   3.608   3.409 -1.8239 -0.4797  1.6643
19660SOL     OW60420   3.515   4.144   3.463 -0.0149  0.2882 -0.1431
19660SOL    HW160421   3.518   4.057   3.424 -0.2755  0.7232 -1.1871
19660SOL    HW260422   3.477   4.131   3.550 -1.5990 -0.4344 -0.9062
19661SOL     OW60423   5.999   2.342   2.567 -0.2147  0.2363 -0.0333
19661SOL    HW160424   6.077   2.354   2.622 -0.1947  1.4347 -0.2991
19661SOL    HW260425   5.941   2.414   2.592  0.1423  1.3554 -2.1543
19662SOL     OW60426   1.700   3.297   6.670  0.2317 -0.5294  0.1655
19662SOL    HW160427   1.651   3.348   6.735 -0.6852  1.7071 -2.1209
19662SOL    HW260428   1.634   3.241   6.629  0.0939  0.5094 -1.0748
19663SOL     OW60429   2.884   4.951   3.188 -0.0034  0.1708 -0.3764
19663SOL    HW160430   2.872   5.033   3.140  0.0771 -0.0101 -0.7051
19663SOL    HW260431   2.795   4.917   3.200 -0.3791  1.8068  2.4326
19664SOL     OW60432   3.246   1.790   4.017  0.2537  0.1649  0.0833
19664SOL    HW160433   3.297   1.724   3.970  0.0631 -0.7099  1.0842
19664SOL    HW260434   3.157   1.755   4.020  0.0470  0.6939  0.2038
19665SOL     OW60435   5.358   5.990  10.453 -0.4250  0.3796  0.8731
19665SOL    HW160436   5.346   6.025  10.541  0.5768  0.4262  1.0005
19665SOL    HW260437   5.448   5.959  10.451 -0.3515  0.6002 -0.2132
19666SOL     OW60438   2.741   3.765   4.152 -0.3755  0.7858  0.2718
19666SOL    HW160439   2.804   3.697   4.172 -2.2261 -0.9883  0.3401
19666SOL    HW260440   2.788   3.824   4.092  0.3778 -2.2176 -2.3369
19667SOL     OW60441   6.169   3.463   5.287  0.1659  0.4192 -0.4016
19667SOL    HW160442   6.140   3.444   5.376 -1.3547  0.5553 -0.8528
19667SOL    HW260443   6.220   3.386   5.261 -0.5411 -0.2234  0.0891
19668SOL     OW60444   6.901   1.537  10.377  0.3691 -0.2846  0.1707
19668SOL    HW160445   6.886   1.595  10.452  0.4352 -1.3223  1.0152
19668SOL    HW260446   6.938   1.457  10.416  1.2081 -0.5202 -1.0688
19669SOL     OW60447   5.008   2.483   3.160 -0.6839  0.4901 -0.2528
19669SOL    HW160448   4.963   2.420   3.216 -0.4162  1.1244  0.6936
19669SOL    HW260449   5.015   2.562   3.213  2.1153  0.2471 -0.0955
19670SOL     OW60450   6.168   0.803  10.131  0.3589  0.1503  0.7775
19670SOL    HW160451   6.089   0.763  10.095  1.8056 -0.6572 -1.7214
19670SOL    HW260452   6.199   0.740  10.197 -0.6168  0.0868  1.1889
19671SOL     OW60453   5.572   3.776   1.086  0.7872 -0.1447  0.1299
19671SOL    HW160454   5.625   3.854   1.102 -1.7292  1.7621 -0.1868
19671SOL    HW260455   5.530   3.757   1.170 -0.7331  0.5769 -0.4376
19672SOL     OW60456   7.478   7.783  12.088 -0.1513  0.5197  0.3784
19672SOL    HW160457   7.502   7.736  12.169 -0.6652 -0.8483 -0.2283
19672SOL    HW260458   7.383   7.773  12.083 -0.0769  0.2779 -0.5833
19673SOL     OW60459   1.381   4.163  11.694 -0.2171 -0.6636 -0.1775
19673SOL    HW160460   1.463   4.203  11.666 -0.7528  0.9470  0.4402
19673SOL    HW260461   1.398   4.069  11.693  1.8499 -0.3452  0.5447
19674SOL     OW60462   3.803   7.039   2.311  0.0130 -0.4713  0.3381
19674SOL    HW160463   3.868   7.013   2.245 -1.1004 -0.2677 -0.8970
19674SOL    HW260464   3.720   7.011   2.273 -0.8784  1.6361  0.6181
19675SOL     OW60465   4.449   6.389   1.080 -0.4514  0.3034 -0.2617
19675SOL    HW160466   4.377   6.437   1.039  1.5367  1.7830 -2.2247
19675SOL    HW260467   4.446   6.302   1.039 -0.8341  0.4868 -0.6256
19676SOL     OW60468   0.616   5.704   4.676 -0.0057  0.2533 -0.2624
19676SOL    HW160469   0.576   5.673   4.594 -0.0454 -0.3941 -0.0020
19676SOL    HW260470   0.708   5.677   4.670 -0.4824 -1.8693  0.8862
19677SOL     OW60471   0.366   3.307   0.327 -0.2135  0.3943 -0.8493
19677SOL    HW160472   0.293   3.325   0.385 -1.1843  0.3973 -2.0269
19677SOL    HW260473   0.338   3.232   0.275  0.7671  0.1719 -1.0856
19678SOL     OW60474   1.471   5.166   3.665  0.1399  0.1058 -0.1635
19678SOL    HW160475   1.449   5.118   3.744 -0.4632 -0.6827 -0.7911
19678SOL    HW260476   1.538   5.112   3.622  1.7037  1.3549  0.6090
19679SOL     OW60477   2.473   6.969   0.295 -0.0305 -0.0382 -0.5114
19679SOL    HW160478   2.455   6.902   0.230  2.7641 -0.0875 -1.3628
19679SOL    HW260479   2.498   6.921   0.374  0.4907 -0.0109 -0.6556
19680SOL     OW60480   5.337   0.826   4.258 -0.2109  0.1263  0.5419
19680SOL    HW160481   5.368   0.776   4.334  0.7139  1.9125  1.4068
19680SOL    HW260482   5.246   0.846   4.279 -0.0778  0.2720  0.9882
19681SOL     OW60483   4.567   0.025   2.702 -0.4761  0.4428 -0.0505
19681SOL    HW160484   4.562   0.059   2.612 -1.8213  0.9221  0.1801
19681SOL    HW260485   4.497  -0.039   2.707 -0.8763  0.9460  0.8732
19682SOL     OW60486   6.696   6.122   8.138  0.0655 -0.7089  0.0541
19682SOL    HW160487   6.657   6.074   8.065 -1.9294  1.0023 -0.1013
19682SOL    HW260488   6.624   6.176   8.172  2.0634  1.9237  0.3859
19683SOL     OW60489   1.808   6.814  12.396 -0.2820  0.0344 -0.5708
19683SOL    HW160490   1.800   6.719  12.405 -0.8649  0.1072 -0.1856
19683SOL    HW260491   1.897   6.833  12.426 -0.9059 -0.1655  1.6324
19684SOL     OW60492   5.103   0.044  10.799 -0.1422 -0.1167 -0.1140
19684SOL    HW160493   5.183   0.004  10.764 -0.7605 -1.1934 -0.3319
19684SOL    HW260494   5.127   0.072  10.887  1.1072  1.5961 -0.9392
19685SOL     OW60495   2.350   5.934  10.183 -0.4656  0.9545 -0.2594
19685SOL    HW160496   2.388   5.848  10.162 -0.6359  0.8935 -0.3221
19685SOL    HW260497   2.256   5.922  10.170 -0.3083  1.7822 -2.4936
19686SOL     OW60498   6.413   4.145   8.684  0.0298  0.2025 -0.0243
19686SOL    HW160499   6.353   4.209   8.721 -0.1061  0.4945 -0.7378
19686SOL    HW260500   6.456   4.106   8.761  0.3800  1.3903  0.4108
19687SOL     OW60501   0.288   2.855   3.200  0.7143 -0.6549  0.2917
19687SOL    HW160502   0.242   2.853   3.116  0.3891  3.9677  0.1201
19687SOL    HW260503   0.219   2.856   3.266  0.7576  0.3195  0.3360
19688SOL     OW60504   3.404   2.441   6.141 -0.3288 -0.0803 -0.4028
19688SOL    HW160505   3.316   2.477   6.134 -1.1628 -1.7506  0.7262
19688SOL    HW260506   3.460   2.518   6.154 -1.5720  1.0260 -1.3267
19689SOL     OW60507   7.895   6.646   8.553 -0.2125 -0.2374  0.5166
19689SOL    HW160508   7.874   6.564   8.509 -1.6419 -0.6054  1.8248
19689SOL    HW260509   7.811   6.690   8.564  0.5537  1.5645 -0.3820
19690SOL     OW60510   1.946   0.814  10.797  0.1071  0.3069 -0.2313
19690SOL    HW160511   1.981   0.729  10.824 -1.5994 -0.1530  0.6803
19690SOL    HW260512   1.851   0.803  10.799 -0.1400  1.9052 -1.2430
19691SOL     OW60513   7.895   0.354   9.801  0.7363  0.3904  0.0894
19691SOL    HW160514   7.984   0.354   9.767  1.0893  1.4888  0.9342
19691SOL    HW260515   7.893   0.428   9.862 -1.0983  1.1611 -0.8343
19692SOL     OW60516   1.540   2.582  11.065  0.1346 -0.0992  0.0313
19692SOL    HW160517   1.553   2.490  11.089  0.1304 -0.2337 -0.4817
19692SOL    HW260518   1.561   2.587  10.972 -2.2047 -0.1046 -0.5823
19693SOL     OW60519   0.245   7.058  10.346 -0.8003  0.3783  0.4545
19693SOL    HW160520   0.211   6.990  10.288  1.7141 -1.1036  0.5507
19693SOL    HW260521   0.298   7.113  10.290  0.9468 -0.5531  1.1080
19694SOL     OW60522   0.490   0.843  10.855  0.1417  0.5679 -0.0806
19694SOL    HW160523   0.400   0.849  10.886  0.4583 -2.2090  1.7368
19694SOL    HW260524   0.483   0.790  10.775  0.1455  0.1988  0.1582
19695SOL     OW60525   7.741   4.267   2.897 -0.0807 -0.5862  0.2548
19695SOL    HW160526   7.648   4.246   2.900 -0.6023  1.6004  1.2535
19695SOL    HW260527   7.771   4.230   2.814 -2.2421  0.1730 -0.9470
19696SOL     OW60528   0.081   4.950   0.253 -0.5695  0.0337 -0.2976
19696SOL    HW160529   0.039   4.911   0.177  2.9170  1.4957 -3.2515
19696SOL    HW260530   0.154   4.891   0.273 -2.3468 -1.2473  3.2118
19697SOL     OW60531   2.142   2.198   3.485  0.1987  0.1208  0.3402
19697SOL    HW160532   2.221   2.236   3.447  0.2710  0.2849  0.6598
19697SOL    HW260533   2.112   2.262   3.549  0.3702 -0.3948  0.9480
19698SOL     OW60534   0.879   2.697   5.437  0.6215  0.5146  0.1191
19698SOL    HW160535   0.956   2.679   5.492 -0.0983  1.0705  1.3261
19698SOL    HW260536   0.913   2.750   5.365  1.4389  0.4201  0.4253
19699SOL     OW60537   6.827   3.150   2.700  0.6124  0.4942  0.1149
19699SOL    HW160538   6.789   3.062   2.689 -0.9975  1.1600  0.1598
19699SOL    HW260539   6.753   3.205   2.724  1.6450  1.8468  0.2739
19700SOL     OW60540   7.535   0.891   0.895  0.4173 -0.5558  0.0558
19700SOL    HW160541   7.490   0.868   0.814  0.6266 -1.2312  0.1248
19700SOL    HW260542   7.467   0.926   0.952 -0.0829 -1.8423  0.2659
19701SOL     OW60543   0.230   7.067   3.764 -0.0970  0.0460  0.2763
19701SOL    HW160544   0.310   7.017   3.774 -1.1106 -1.5982  0.4129
19701SOL    HW260545   0.189   7.031   3.685 -0.6512  0.9457  0.1370
19702SOL     OW60546   5.626   7.965   4.396  0.0782 -0.0208  0.2933
19702SOL    HW160547   5.622   7.909   4.473 -0.1029 -0.4238 -0.0045
19702SOL    HW260548   5.676   7.913   4.332  0.4120  0.3957  0.2132
19703SOL     OW60549   7.760   0.707   2.612 -0.2722 -0.9150  0.3174
19703SOL    HW160550   7.712   0.625   2.607 -0.3012 -1.1523  2.9580
19703SOL    HW260551   7.721   0.754   2.685 -1.5817  2.4417 -2.2687
19704SOL     OW60552   1.127   7.719   7.405 -0.8059 -0.2024 -0.8328
19704SOL    HW160553   1.194   7.690   7.342  0.0418  1.7476 -0.9098
19704SOL    HW260554   1.173   7.780   7.462 -2.3125  0.4460 -0.2617
19705SOL     OW60555   0.791   6.141   0.417 -0.6541  0.1428 -0.6141
19705SOL    HW160556   0.699   6.164   0.405 -0.6504  0.2680 -0.4077
19705SOL    HW260557   0.839   6.223   0.404 -0.6033  0.1578 -0.3339
19706SOL     OW60558   2.682   0.782   1.452 -0.6905 -0.4703  0.2781
19706SOL    HW160559   2.687   0.705   1.397 -0.1532 -1.1982  1.3007
19706SOL    HW260560   2.613   0.762   1.516 -1.6165  0.5363 -0.3723
19707SOL     OW60561   0.833   1.114   9.925  0.1535  0.0545  0.1552
19707SOL    HW160562   0.834   1.210   9.935  0.8692  0.0047  0.6443
19707SOL    HW260563   0.778   1.099   9.848  0.1261  0.8660  0.0009
19708SOL     OW60564   7.023   0.444   4.372 -0.4810  0.5192 -0.0675
19708SOL    HW160565   7.059   0.505   4.436 -0.3806  1.2471 -0.8022
19708SOL    HW260566   6.954   0.398   4.419 -0.1209  0.7359  0.6867
19709SOL     OW60567   2.514   2.334  11.865  0.2834 -0.3627  0.3908
19709SOL    HW160568   2.454   2.262  11.846 -0.6361 -0.4000  3.0349
19709SOL    HW260569   2.565   2.345  11.784 -1.1212 -2.4118 -0.8645
19710SOL     OW60570   7.689   7.106   6.500 -0.0988  0.1295  0.0728
19710SOL    HW160571   7.664   7.081   6.589  1.2188  0.4309  0.5656
19710SOL    HW260572   7.703   7.023   6.454 -1.5622 -0.0314 -0.1055
19711SOL     OW60573   1.328   6.168   9.294 -0.6249  0.7327 -0.3482
19711SOL    HW160574   1.269   6.201   9.362 -1.1483  0.4368 -0.6538
19711SOL    HW260575   1.415   6.168   9.336 -1.2476 -1.7169  1.1903
19712SOL     OW60576   1.340   5.027   2.841 -0.2558 -0.5267  0.3236
19712SOL    HW160577   1.333   5.006   2.748  1.5957  0.7727 -0.1774
19712SOL    HW260578   1.333   5.123   2.844  2.6519 -0.2436  1.0902
19713SOL     OW60579   7.281   7.821   1.825 -0.3586  0.2237 -0.6236
19713SOL    HW160580   7.193   7.818   1.786 -0.7329 -0.1569  0.2316
19713SOL    HW260581   7.285   7.743   1.881 -0.1862  1.2515  0.8416
19714SOL     OW60582   4.867   4.575   7.216 -0.8374  0.3886 -0.1770
19714SOL    HW160583   4.892   4.599   7.305 -2.0859  0.8702  0.0663
19714SOL    HW260584   4.945   4.592   7.164 -0.8718  2.6916  0.4006
19715SOL     OW60585   5.089   3.673   0.824  0.0402 -0.1702  0.1533
19715SOL    HW160586   5.156   3.698   0.887 -0.5736  0.4155  0.5780
19715SOL    HW260587   5.107   3.727   0.747  0.2242 -0.2189  0.1616
19716SOL     OW60588   0.269   2.167   4.511  0.1160 -0.9435 -0.2792
19716SOL    HW160589   0.362   2.153   4.496  0.5960  0.5928  0.9219
19716SOL    HW260590   0.248   2.110   4.585  0.2856 -0.7588 -0.0863
19717SOL     OW60591   3.704   4.787   3.642 -0.4813  0.3866 -0.4024
19717SOL    HW160592   3.746   4.743   3.716 -1.1027  2.2932  1.1421
19717SOL    HW260593   3.762   4.861   3.622 -1.3923  1.0941 -0.4403
19718SOL     OW60594   6.496   1.378   3.595 -0.0577 -0.5602 -0.0160
19718SOL    HW160595   6.542   1.449   3.640 -1.5591  0.9929 -0.8182
19718SOL    HW260596   6.496   1.404   3.503 -1.7407 -0.9343 -0.1551
19719SOL     OW60597   3.115   3.263   0.192  0.1202  0.2915  0.4533
19719SOL    HW160598   3.097   3.188   0.134 -0.1937  0.9775 -0.3482
19719SOL    HW260599   3.040   3.321   0.179  0.2283  0.6285  1.2875
19720SOL     OW60600   3.107   5.034   0.873  0.2146 -0.0309  0.1729
19720SOL    HW160601   3.060   4.954   0.848  1.6471 -0.5149 -1.1765
19720SOL    HW260602   3.165   5.006   0.944  0.8594 -0.2841 -0.4309
19721SOL     OW60603   4.599   2.993  11.266 -0.7079  0.2155  0.9929
19721SOL    HW160604   4.513   2.951  11.261  0.0151 -1.3426  0.9841
19721SOL    HW260605   4.637   2.978  11.179  0.7028 -1.7169  1.8852
19722SOL     OW60606   7.465   6.513   3.354 -0.3845 -0.2585 -0.5999
19722SOL    HW160607   7.431   6.533   3.441 -0.2995 -0.3162 -0.5541
19722SOL    HW260608   7.559   6.504   3.365 -0.3135  0.2345 -0.7880
19723SOL     OW60609   2.927   4.094   1.819  0.3682 -0.0580  0.2953
19723SOL    HW160610   2.889   4.180   1.799 -1.0678 -0.1951  2.1440
19723SOL    HW260611   3.022   4.110   1.819  0.1668  1.2952 -0.3339
19724SOL     OW60612   5.666   7.546   6.556  0.0231 -0.1664 -0.1761
19724SOL    HW160613   5.677   7.615   6.622 -0.1967  1.5343 -1.8414
19724SOL    HW260614   5.722   7.573   6.484 -0.7506 -1.2827 -1.2193
19725SOL     OW60615   0.984   3.035   5.040 -0.0792  0.2746 -0.5350
19725SOL    HW160616   0.998   3.126   5.064  2.0480 -0.4662  1.4149
19725SOL    HW260617   1.065   3.009   4.996  0.6603 -1.3949  1.6234
19726SOL     OW60618   1.123   7.775   9.554  0.2328  0.6612 -0.3304
19726SOL    HW160619   1.069   7.742   9.482 -1.6662  0.8926  0.8905
19726SOL    HW260620   1.189   7.830   9.512  0.5664 -0.9340 -2.0290
19727SOL     OW60621   5.886   2.131   0.231  0.2234  0.6149 -0.1880
19727SOL    HW160622   5.917   2.041   0.225  0.8420  0.7061  1.1603
19727SOL    HW260623   5.948   2.175   0.290  0.9317  2.4041 -2.1363
19728SOL     OW60624   3.288   2.970   8.737 -0.1117 -0.3783  0.2485
19728SOL    HW160625   3.244   2.935   8.814 -0.3691  0.9352  0.7243
19728SOL    HW260626   3.286   2.898   8.673 -1.3776 -0.9341  0.8751
19729SOL     OW60627   1.869   0.200   4.062 -0.2435  0.2762 -0.1497
19729SOL    HW160628   1.789   0.147   4.063 -1.7693  2.3733  2.3617
19729SOL    HW260629   1.882   0.221   3.970 -3.1728  0.5900 -0.6003
19730SOL     OW60630   3.772   1.098   5.148  0.4543  0.4282  0.4509
19730SOL    HW160631   3.687   1.136   5.129  1.2798  1.7376 -0.8547
19730SOL    HW260632   3.804   1.146   5.224 -0.4726 -0.9560  1.7752
19731SOL     OW60633   2.918   6.407   3.491  0.2504 -0.1108 -0.1638
19731SOL    HW160634   2.869   6.450   3.561  2.6936  2.1252  0.3454
19731SOL    HW260635   2.947   6.324   3.529 -1.5305 -0.6298  0.1312
19732SOL     OW60636   3.974   6.415   7.456 -0.0661  0.2444 -0.2658
19732SOL    HW160637   4.006   6.339   7.408 -1.7003 -0.3123 -0.5571
19732SOL    HW260638   4.052   6.469   7.472  1.2535 -1.8108  0.5755
19733SOL     OW60639   3.369   2.722   7.172  0.2899  0.2972  0.6124
19733SOL    HW160640   3.440   2.676   7.127 -1.1457 -1.4994  0.0600
19733SOL    HW260641   3.329   2.776   7.104 -0.8475 -1.1675  0.0601
19734SOL     OW60642   0.512   4.900   3.681  0.0348 -0.0604 -0.1475
19734SOL    HW160643   0.528   4.987   3.644 -0.6095 -0.1809 -0.7250
19734SOL    HW260644   0.561   4.840   3.624  2.0603  0.0533  1.3406
19735SOL     OW60645   3.040   5.468   1.632  0.3511  0.5565 -0.2491
19735SOL    HW160646   3.085   5.475   1.716 -1.9618  1.1267  1.0561
19735SOL    HW260647   3.023   5.559   1.607  0.2037  0.3648 -0.8568
19736SOL     OW60648   6.822   0.323   4.512 -0.1577  0.8807  0.3718
19736SOL    HW160649   6.873   0.270   4.572 -0.2212  1.6310  1.1161
19736SOL    HW260650   6.733   0.289   4.519 -0.4090  1.7117  1.6349
19737SOL     OW60651   2.733   3.792   5.191 -0.2601  0.4017 -0.0500
19737SOL    HW160652   2.756   3.701   5.173  0.3684  0.4619  0.3901
19737SOL    HW260653   2.682   3.820   5.115  3.4795  1.0847 -2.6406
19738SOL     OW60654   2.550   6.636   3.575  0.0137  0.5860  0.9247
19738SOL    HW160655   2.480   6.611   3.515  1.1534 -0.6727  0.0837
19738SOL    HW260656   2.509   6.700   3.634 -1.2595  1.4971 -0.8652
19739SOL     OW60657   7.220   5.469   5.801 -0.3465 -0.4184  0.0866
19739SOL    HW160658   7.135   5.465   5.845 -0.0389  3.5534  1.3779
19739SOL    HW260659   7.203   5.519   5.721  0.1357 -3.0445 -1.7848
19740SOL     OW60660   3.202   0.566  10.465 -0.1738 -0.1512 -0.4247
19740SOL    HW160661   3.214   0.578  10.371 -2.5323  2.0169 -0.5421
19740SOL    HW260662   3.279   0.608  10.504  0.9453 -1.2840 -1.3314
19741SOL     OW60663   3.682   7.423   7.014  0.4516 -0.3453  0.0473
19741SOL    HW160664   3.739   7.364   6.966 -0.7191 -0.4010 -1.3188
19741SOL    HW260665   3.602   7.429   6.961  0.7662  2.9963 -0.2484
19742SOL     OW60666   2.218   0.859  11.559  0.3871 -0.3828  0.1885
19742SOL    HW160667   2.179   0.772  11.555  1.2771 -0.8544  1.2461
19742SOL    HW260668   2.252   0.866  11.648  2.4977  0.0569 -0.5894
19743SOL     OW60669   2.151   5.036   1.489  0.7184 -0.7927 -0.8266
19743SOL    HW160670   2.066   5.067   1.521  2.0260  1.3452  0.8604
19743SOL    HW260671   2.179   5.102   1.426  1.0126 -1.6662 -1.6395
19744SOL     OW60672   5.333   1.911   7.522 -0.0291 -0.1102 -0.6933
19744SOL    HW160673   5.412   1.931   7.472  0.6608 -1.0761 -0.0145
19744SOL    HW260674   5.298   1.996   7.547  1.5884  0.3137  0.2110
19745SOL     OW60675   6.346   1.010  10.184 -0.5912 -0.6114 -0.2766
19745SOL    HW160676   6.274   1.074  10.186 -1.6835 -1.8060 -0.3137
19745SOL    HW260677   6.308   0.933  10.144 -0.3344 -2.5081  2.8027
19746SOL     OW60678   3.051   2.223   6.911 -0.7108 -0.1706 -0.9060
19746SOL    HW160679   3.063   2.237   6.817 -2.0368  0.3166 -1.0332
19746SOL    HW260680   3.110   2.286   6.952 -1.1177  0.5760 -1.4331
19747SOL     OW60681   1.820   2.668  11.127  0.3333 -0.0693  0.3051
19747SOL    HW160682   1.730   2.646  11.105  0.7452 -0.7651 -0.7391
19747SOL    HW260683   1.812   2.727  11.202 -1.0122  0.3887 -0.1664
19748SOL     OW60684   7.370   7.226   2.191  0.2256  0.5174 -0.2575
19748SOL    HW160685   7.325   7.295   2.241 -0.1012  1.0138 -1.2187
19748SOL    HW260686   7.303   7.159   2.179  0.8762 -0.5528  1.7219
19749SOL     OW60687   5.658   1.241  11.594  0.2799  0.2808  0.5746
19749SOL    HW160688   5.694   1.266  11.509  0.2907 -1.7195 -0.0659
19749SOL    HW260689   5.564   1.258  11.586  0.2503 -0.0948  0.0760
19750SOL     OW60690   0.750   0.905   1.969  0.2208  0.0097  0.0574
19750SOL    HW160691   0.655   0.898   1.977 -0.0477  2.5403 -0.1880
19750SOL    HW260692   0.774   0.979   2.024  2.0513 -0.5117  0.0339
19751SOL     OW60693   3.709   0.946   7.785  0.2831  0.3334 -0.2906
19751SOL    HW160694   3.660   0.961   7.705  0.0578 -0.3641 -0.2911
19751SOL    HW260695   3.643   0.943   7.854  0.3323 -0.4040 -0.2648
19752SOL     OW60696   3.539   2.875  11.114 -0.1210 -0.6787 -0.3419
19752SOL    HW160697   3.488   2.823  11.051 -0.0163 -0.0001 -0.9995
19752SOL    HW260698   3.479   2.944  11.142  0.3418 -0.0286 -0.9230
19753SOL     OW60699   4.562   6.715  10.761 -0.4319 -0.0961  0.6288
19753SOL    HW160700   4.554   6.658  10.837  0.2055  0.0598  0.8140
19753SOL    HW260701   4.551   6.657  10.686 -0.4212 -0.3527  0.8253
19754SOL     OW60702   2.067   1.968   2.957  0.3342 -0.4240 -0.2131
19754SOL    HW160703   2.093   2.060   2.959 -2.3810  0.4117  0.9034
19754SOL    HW260704   2.115   1.928   3.029  0.3914  0.4866  0.2683
19755SOL     OW60705   7.961   1.543   7.605 -0.3318 -0.1926  0.5621
19755SOL    HW160706   7.884   1.562   7.552  0.2163  0.9748  0.1525
19755SOL    HW260707   8.021   1.616   7.588  0.6906 -0.8519  1.2001
19756SOL     OW60708   1.594   4.161   3.362  0.1121  0.4425  0.1284
19756SOL    HW160709   1.525   4.100   3.335 -0.7668  1.3035  0.3984
19756SOL    HW260710   1.654   4.107   3.415  0.4955 -0.6667 -1.3586
19757SOL     OW60711   7.076   5.826   7.596  0.1355 -0.2632 -0.0747
19757SOL    HW160712   7.064   5.733   7.577  0.8379 -0.3712 -0.0332
19757SOL    HW260713   7.066   5.832   7.691 -2.8645  0.1957 -0.3198
19758SOL     OW60714   0.265   6.537   6.935 -0.7075  0.1727  0.4716
19758SOL    HW160715   0.313   6.455   6.933 -1.9083 -0.5814  1.2799
19758SOL    HW260716   0.303   6.585   7.008 -0.1193  0.2873  0.1028
19759SOL     OW60717   3.160   2.410   5.872  0.1210 -0.1951 -0.6724
19759SOL    HW160718   3.184   2.467   5.799 -0.0383  0.9584  0.1504
19759SOL    HW260719   3.237   2.355   5.885  0.6201  0.4222 -0.9369
19760SOL     OW60720   3.884   6.475   2.153 -0.0331 -0.2163  0.3564
19760SOL    HW160721   3.977   6.495   2.154 -0.1853  0.5323 -0.0748
19760SOL    HW260722   3.844   6.539   2.212 -0.1101 -1.5039  1.7895
19761SOL     OW60723   1.608   0.198   9.643 -0.4050 -0.4539  0.6054
19761SOL    HW160724   1.669   0.272   9.634 -0.3434 -0.4225  1.2544
19761SOL    HW260725   1.553   0.203   9.565 -0.4005  0.2797  0.6406
19762SOL     OW60726   6.250   7.172   4.273  0.0279  0.6530  0.1640
19762SOL    HW160727   6.212   7.233   4.337 -1.3453 -0.4310  0.4259
19762SOL    HW260728   6.343   7.173   4.293 -0.4500 -0.4959  3.0179
19763SOL     OW60729   3.022   3.596  10.388  0.2625  0.3088 -0.3670
19763SOL    HW160730   3.095   3.535  10.379  1.8741  2.0728  0.1750
19763SOL    HW260731   3.060   3.682  10.371 -1.5291  1.3743  0.6954
19764SOL     OW60732   3.533   6.619   5.606 -0.1273 -0.3444  0.0043
19764SOL    HW160733   3.442   6.588   5.600  0.3904 -2.0436  0.3680
19764SOL    HW260734   3.579   6.572   5.537  0.5597  0.2087  0.0757
19765SOL     OW60735   1.556   7.837   2.482 -0.1518 -0.7973 -0.3228
19765SOL    HW160736   1.643   7.802   2.497 -0.2651 -0.8704  0.2020
19765SOL    HW260737   1.529   7.871   2.568  0.6743  2.2447 -1.1781
19766SOL     OW60738   5.903   3.149   4.446 -0.3089  0.0955 -0.2042
19766SOL    HW160739   5.955   3.228   4.464 -0.6190  0.4053 -0.6289
19766SOL    HW260740   5.909   3.097   4.526  0.3531  0.2974 -0.1159
19767SOL     OW60741   2.324   3.087   2.216  0.4510  0.0947  0.6862
19767SOL    HW160742   2.403   3.142   2.211 -0.3177  1.2529  0.7146
19767SOL    HW260743   2.270   3.130   2.283 -0.2178 -0.6598  0.6452
19768SOL     OW60744   0.489   7.678   8.853 -0.2542  0.6117 -0.3325
19768SOL    HW160745   0.549   7.684   8.927  1.0150 -0.3700 -1.2253
19768SOL    HW260746   0.403   7.701   8.889  0.4356  0.7937  1.2763
19769SOL     OW60747   6.335   6.764  10.672  0.4627 -0.5816 -0.1950
19769SOL    HW160748   6.278   6.821  10.723  0.5422 -1.4086  0.8502
19769SOL    HW260749   6.405   6.822  10.640 -0.8216  0.4053 -1.3314
19770SOL     OW60750   0.756   7.456  12.078 -0.6388 -0.1189 -0.1050
19770SOL    HW160751   0.732   7.382  12.134 -2.4145  0.7367  0.3214
19770SOL    HW260752   0.701   7.447  12.001  0.8583 -0.5462 -1.1822
19771SOL     OW60753   2.595   2.483   9.314  0.3620  0.1525  0.1182
19771SOL    HW160754   2.636   2.403   9.281 -0.0057  0.0952 -0.2175
19771SOL    HW260755   2.514   2.452   9.355  1.3239  0.0861  2.1022
19772SOL     OW60756   0.373   1.440   3.981 -0.3121  0.1029 -0.0201
19772SOL    HW160757   0.445   1.382   4.004 -0.9810 -0.8086 -0.1962
19772SOL    HW260758   0.389   1.463   3.889  0.0863  0.4108  0.1225
19773SOL     OW60759   3.512   5.771   2.531 -0.1903  0.3902 -0.1853
19773SOL    HW160760   3.599   5.768   2.571  0.4390  1.1788 -1.4451
19773SOL    HW260761   3.526   5.745   2.440 -1.3707  0.0252 -0.2822
19774SOL     OW60762   5.832   3.323   0.675 -0.4122 -0.5516 -0.1849
19774SOL    HW160763   5.747   3.281   0.673 -0.7687  0.1627 -0.9777
19774SOL    HW260764   5.895   3.252   0.663 -0.9291 -1.0014 -0.2533
19775SOL     OW60765   6.117   5.484   6.719  0.3491  0.0619  0.1849
19775SOL    HW160766   6.057   5.502   6.791 -0.0554 -0.8770  0.0926
19775SOL    HW260767   6.182   5.424   6.757 -0.0135 -0.6435 -0.2975
19776SOL     OW60768   2.528   1.694   0.984  0.1823 -0.4424  0.2848
19776SOL    HW160769   2.602   1.662   1.035  0.4750 -0.9520 -0.4282
19776SOL    HW260770   2.540   1.654   0.897 -1.1748 -0.9006  0.2817
19777SOL     OW60771   1.579   6.867   6.763  0.3696 -0.2136 -0.0142
19777SOL    HW160772   1.485   6.855   6.780  0.4367 -1.4900 -0.4178
19777SOL    HW260773   1.614   6.778   6.760  1.8412  0.2751  1.3935
19778SOL     OW60774   6.764   6.111   6.505  0.1312  0.4288 -0.0546
19778SOL    HW160775   6.772   6.111   6.600 -0.9479  0.5245  0.0425
19778SOL    HW260776   6.849   6.142   6.474  0.2342  1.1409  0.8981
19779SOL     OW60777   5.156   4.218   2.340 -0.0670 -0.6041  0.4496
19779SOL    HW160778   5.161   4.213   2.435 -0.0346  0.6621  0.5299
19779SOL    HW260779   5.063   4.207   2.320  0.0941 -2.2992  0.5061
19780SOL     OW60780   4.305   7.561   9.559  0.2247  0.0231 -0.5765
19780SOL    HW160781   4.344   7.486   9.604 -0.2849  0.8730  1.4226
19780SOL    HW260782   4.254   7.605   9.627  0.1154  1.9029 -1.8088
19781SOL     OW60783   0.280   1.015  11.403 -0.1523  0.8862 -0.6931
19781SOL    HW160784   0.369   0.982  11.419  0.3577  2.2307 -0.5698
19781SOL    HW260785   0.249   0.966  11.327 -0.3031 -1.4100  0.7459
19782SOL     OW60786   6.965   7.469   4.921 -0.4729  0.1858 -0.9277
19782SOL    HW160787   7.058   7.488   4.906 -0.3224  0.5349  0.3159
19782SOL    HW260788   6.961   7.440   5.012 -1.6282  0.4815 -0.8679
19783SOL     OW60789   6.799   2.532  10.649 -0.4108 -0.2451 -0.0081
19783SOL    HW160790   6.858   2.456  10.651 -0.2072 -0.1490  3.1545
19783SOL    HW260791   6.732   2.511  10.714 -1.8545  1.2084 -0.9764
19784SOL     OW60792   4.909   5.974   2.457 -0.2121  0.4888 -0.5136
19784SOL    HW160793   4.840   5.921   2.497 -0.5341  1.0135 -0.3715
19784SOL    HW260794   4.912   6.054   2.509  1.9974 -0.3950  0.8514
19785SOL     OW60795   7.031   5.404   6.965  0.2316 -0.6250 -0.5200
19785SOL    HW160796   6.941   5.401   6.997  1.1118  0.3627  2.4541
19785SOL    HW260797   7.035   5.480   6.908 -0.6797 -0.3059 -0.1658
19786SOL     OW60798   3.541   1.096  10.871 -0.1867  0.4293 -0.7185
19786SOL    HW160799   3.492   1.078  10.791 -0.0632  1.7340 -1.1005
19786SOL    HW260800   3.626   1.127  10.840  1.3251 -2.6497 -0.0925
19787SOL     OW60801   1.152   7.839   5.256  0.0495 -0.1599 -0.1830
19787SOL    HW160802   1.166   7.757   5.210  2.3968  0.0857 -0.0470
19787SOL    HW260803   1.105   7.814   5.336  2.0451 -1.6696  0.6166
19788SOL     OW60804   4.853   5.983   5.149 -0.3886 -0.7468 -0.1158
19788SOL    HW160805   4.850   6.076   5.128  1.8359 -0.6502 -0.2119
19788SOL    HW260806   4.941   5.969   5.183 -1.5693 -2.2639  2.6806
19789SOL     OW60807   2.202   3.438  11.109 -0.9681 -0.2399  0.0400
19789SOL    HW160808   2.118   3.404  11.077 -0.2799 -0.1267 -2.0551
19789SOL    HW260809   2.225   3.507  11.047 -0.2945  1.1743  1.7963
19790SOL     OW60810   0.119   4.310   2.947 -0.6320 -0.1784  0.0646
19790SOL    HW160811   0.119   4.223   2.987  0.9098  0.1780  0.9376
19790SOL    HW260812   0.062   4.302   2.870  1.7109 -2.8069 -1.6026
19791SOL     OW60813   2.342   0.662   3.643  0.0344  0.5793 -0.1222
19791SOL    HW160814   2.304   0.644   3.729 -1.6338 -0.0659 -0.9393
19791SOL    HW260815   2.380   0.578   3.616 -1.3813  0.1499 -0.8974
19792SOL     OW60816   7.423   4.423   4.175  0.2255 -0.2896  0.2267
19792SOL    HW160817   7.463   4.509   4.190  1.6452 -0.9769  0.5420
19792SOL    HW260818   7.477   4.362   4.225 -0.7430 -1.3808 -0.0188
19793SOL     OW60819   2.290   4.136   0.369 -0.4519 -0.2787  0.0100
19793SOL    HW160820   2.250   4.223   0.371 -1.5660 -0.7724  0.1960
19793SOL    HW260821   2.378   4.149   0.404 -0.2736  0.9233 -0.7954
19794SOL     OW60822   2.488   7.625   0.633  0.0736 -0.2429  0.8919
19794SOL    HW160823   2.517   7.684   0.564  3.2963 -0.2442  2.0640
19794SOL    HW260824   2.422   7.569   0.591  0.4047  1.0633 -1.5551
19795SOL     OW60825   5.577   2.404   2.052  0.2650  0.1233  0.7583
19795SOL    HW160826   5.644   2.453   2.005  1.2573 -1.0692  0.8651
19795SOL    HW260827   5.626   2.353   2.117 -0.9978  1.3145  2.7589
19796SOL     OW60828   3.990   4.571   6.444  0.1913  0.1973  0.0710
19796SOL    HW160829   4.015   4.635   6.378 -2.8427  1.8546  0.3683
19796SOL    HW260830   3.972   4.491   6.395 -2.8400  1.6237 -1.3875
19797SOL     OW60831   2.191   1.546   8.146  0.0839  0.8244 -0.0092
19797SOL    HW160832   2.268   1.500   8.114 -0.3442  0.0396  0.0623
19797SOL    HW260833   2.123   1.528   8.080 -0.4371  0.2961  0.6676
19798SOL     OW60834   2.350   0.223   4.230 -0.2275 -0.0377 -0.2974
19798SOL    HW160835   2.304   0.243   4.148 -0.1664 -0.8668 -0.5395
19798SOL    HW260836   2.303   0.147   4.265 -0.0080  0.0760  0.2446
19799SOL     OW60837   6.433   5.782   7.774  0.4678  0.3691  0.0345
19799SOL    HW160838   6.505   5.825   7.820 -0.0977  0.1399  1.1680
19799SOL    HW260839   6.364   5.849   7.770  0.4602  0.3397 -0.3560
19800SOL     OW60840   3.196   7.573   5.873 -0.0224  0.1149 -0.1440
19800SOL    HW160841   3.176   7.497   5.818  0.4948 -1.1289  1.2957
19800SOL    HW260842   3.122   7.632   5.861 -1.7571 -1.7629  0.6243
19801SOL     OW60843   2.008   7.902   6.932 -0.4291  0.0564 -0.4162
19801SOL    HW160844   2.068   7.963   6.889  0.6926 -0.7955 -0.1178
19801SOL    HW260845   2.013   7.822   6.878 -2.3212  0.3708 -1.1461
19802SOL     OW60846   7.740   5.155   5.777 -0.6104  0.6745  0.6415
19802SOL    HW160847   7.764   5.155   5.869  1.7386 -0.2283  0.0986
19802SOL    HW260848   7.804   5.211   5.735 -1.2528  0.5668 -0.5441
19803SOL     OW60849   7.567   0.696  12.207 -0.1506 -0.2913 -0.2032
19803SOL    HW160850   7.621   0.740  12.141  0.3632 -2.0032 -0.9644
19803SOL    HW260851   7.483   0.742  12.203 -0.9108 -1.6722 -3.6559
19804SOL     OW60852   7.718   3.557   0.189  0.0540  0.0263  0.2941
19804SOL    HW160853   7.640   3.609   0.211 -1.2836 -1.2458 -1.1712
19804SOL    HW260854   7.687   3.495   0.123  1.5461 -2.6615  1.9367
19805SOL     OW60855   7.331   0.684   8.753  0.0312 -0.7444 -0.3064
19805SOL    HW160856   7.385   0.686   8.832 -0.0955 -1.6590 -0.1829
19805SOL    HW260857   7.260   0.624   8.774 -1.9225  1.5442  0.0766
19806SOL     OW60858   1.081   5.319   5.877 -0.0065 -0.0560  0.3501
19806SOL    HW160859   1.090   5.363   5.793  1.3809  0.6325  0.8331
19806SOL    HW260860   1.139   5.367   5.936 -0.2842 -1.0607  1.4851
19807SOL     OW60861   3.350   0.061   2.952 -0.0560 -0.4145 -0.3633
19807SOL    HW160862   3.299   0.099   2.880  0.6442  0.9864 -0.1381
19807SOL    HW260863   3.309  -0.024   2.967 -2.0849  0.4953 -0.4399
19808SOL     OW60864   1.300   5.717   4.260  0.0300  0.2738 -0.7587
19808SOL    HW160865   1.331   5.806   4.272 -0.3640  0.2404  0.6570
19808SOL    HW260866   1.334   5.691   4.174 -0.4027  1.9921 -1.4932
19809SOL     OW60867   3.824   7.832   0.630  0.1869  0.2559 -0.1438
19809SOL    HW160868   3.850   7.922   0.609  0.1568  0.5496  1.0097
19809SOL    HW260869   3.894   7.778   0.594  1.0900  0.8623  0.6468
19810SOL     OW60870   6.474   5.377   9.838  0.0462 -0.4998  0.1518
19810SOL    HW160871   6.496   5.316   9.767  3.2336  0.1422  0.4680
19810SOL    HW260872   6.475   5.463   9.796  1.0008 -0.1991  0.7779
19811SOL     OW60873   0.520   7.760   5.808 -0.4541 -0.5256 -0.1080
19811SOL    HW160874   0.604   7.797   5.781 -0.1673 -1.3169 -0.3347
19811SOL    HW260875   0.523   7.760   5.904 -0.6887  0.5277 -0.0891
19812SOL     OW60876   4.642   4.107   2.703  0.2892  0.2720  0.1928
19812SOL    HW160877   4.604   4.163   2.770  1.9202  2.0893 -0.3097
19812SOL    HW260878   4.664   4.026   2.748 -1.0397  0.4439  1.2140
19813SOL     OW60879   6.856   3.724  12.008 -0.2596  0.0162 -0.8764
19813SOL    HW160880   6.879   3.738  11.916 -0.7644 -1.4159 -1.2469
19813SOL    HW260881   6.859   3.812  12.047 -0.2806  0.6866 -2.3103
19814SOL     OW60882   1.832   1.017   0.036  0.1900  0.4125 -0.0401
19814SOL    HW160883   1.825   0.921   0.036  1.9107  0.2636  0.4017
19814SOL    HW260884   1.894   1.036   0.106 -0.2037  1.8743 -0.0670
19815SOL     OW60885   0.855   1.586  11.905  0.1294 -0.1151 -0.0093
19815SOL    HW160886   0.843   1.667  11.953  1.7251  0.9773 -1.3324
19815SOL    HW260887   0.842   1.610  11.813  0.7089 -1.3266 -0.4348
19816SOL     OW60888   2.069   2.528  11.470  0.3542  0.0718 -0.6912
19816SOL    HW160889   2.108   2.459  11.523 -0.0564  1.0073  0.8886
19816SOL    HW260890   1.975   2.523  11.489  0.4215  1.6661  0.2506
19817SOL     OW60891   6.426   6.780   8.552  0.0088  0.2769  0.1469
19817SOL    HW160892   6.357   6.726   8.590 -1.0855  1.6955  0.2783
19817SOL    HW260893   6.403   6.787   8.459  0.5067  0.0168 -0.0048
19818SOL     OW60894   5.208   2.704  12.024  0.4777  0.6934 -0.1681
19818SOL    HW160895   5.119   2.669  12.017  0.4494  0.6540  0.3052
19818SOL    HW260896   5.199   2.798  12.010  0.0981  0.9479  1.5060
19819SOL     OW60897   1.998   3.510   6.042  0.0506 -0.2656  0.5508
19819SOL    HW160898   2.028   3.598   6.064  1.7354 -0.7411  0.2462
19819SOL    HW260899   1.903   3.519   6.031  0.2637  1.6030 -0.0042
19820SOL     OW60900   2.314   5.457  11.086 -0.1978  0.2470  0.4371
19820SOL    HW160901   2.344   5.366  11.087 -0.2886  0.1830 -1.0166
19820SOL    HW260902   2.359   5.497  11.160  1.9016 -0.3511 -0.4338
19821SOL     OW60903   1.215   4.233   8.673  0.1196 -0.9250 -0.2118
19821SOL    HW160904   1.189   4.285   8.749  1.5663 -1.6014  0.8137
19821SOL    HW260905   1.137   4.227   8.619 -0.5325  0.8651  0.4759
19822SOL     OW60906   1.478   4.053   1.880  1.0359  0.6293 -0.6126
19822SOL    HW160907   1.517   3.997   1.947  1.0478  1.2755 -0.0774
19822SOL    HW260908   1.485   4.001   1.799  2.9293  0.6939 -0.5264
19823SOL     OW60909   2.272   4.560   1.786 -0.0718  0.0418  0.2215
19823SOL    HW160910   2.245   4.652   1.780  3.7853  1.2893 -1.6454
19823SOL    HW260911   2.240   4.520   1.705  1.0415  0.7133 -0.5785
19824SOL     OW60912   7.074   0.855   7.291 -0.0757 -0.0309  0.2660
19824SOL    HW160913   6.986   0.821   7.306 -0.2075  0.2892  0.2289
19824SOL    HW260914   7.128   0.810   7.356 -0.5604  0.9931  1.4300
19825SOL     OW60915   2.595   0.226   0.795  0.1293 -0.0592  0.0995
19825SOL    HW160916   2.631   0.212   0.707  0.0220  0.3638 -0.0114
19825SOL    HW260917   2.628   0.312   0.821  0.6687 -0.4445  0.7266
19826SOL     OW60918   0.724   7.532   1.381 -0.0895  0.4478  0.2455
19826SOL    HW160919   0.650   7.471   1.378  2.0711 -2.4108 -2.0589
19826SOL    HW260920   0.703   7.598   1.314 -1.3938  0.8651  1.0342
19827SOL     OW60921   2.877   4.179   7.369  0.4124 -0.0537  0.2287
19827SOL    HW160922   2.782   4.175   7.370  0.3069  1.5183 -0.0281
19827SOL    HW260923   2.900   4.241   7.438  1.2311 -0.2461  0.1468
19828SOL     OW60924   7.087   2.181  11.238 -0.0014 -0.0813 -0.7661
19828SOL    HW160925   7.100   2.149  11.327 -0.2223  1.7493 -0.0328
19828SOL    HW260926   7.156   2.138  11.187 -0.2568 -1.6391  0.1320
19829SOL     OW60927   6.820   3.740   0.435 -0.2530  0.2928  0.0325
19829SOL    HW160928   6.898   3.686   0.446 -0.0618  0.9050  2.3430
19829SOL    HW260929   6.849   3.814   0.382  0.9160  0.7324  1.2147
19830SOL     OW60930   2.824   2.982   6.576 -0.1699 -0.4314  0.5382
19830SOL    HW160931   2.743   2.990   6.527 -1.1471  1.1672  2.2599
19830SOL    HW260932   2.892   3.010   6.516 -0.8168 -2.0490 -1.0246
19831SOL     OW60933   0.813   4.253   8.958  0.0121  0.3512  0.2440
19831SOL    HW160934   0.826   4.183   9.022 -2.3866 -0.4362 -0.0503
19831SOL    HW260935   0.744   4.308   8.995 -1.6765 -0.3005 -1.7447
19832SOL     OW60936   4.763   0.159  11.669  0.2488 -0.3535 -0.1622
19832SOL    HW160937   4.855   0.146  11.647  0.1308 -0.4887 -0.5991
19832SOL    HW260938   4.721   0.177  11.584  0.0331  0.6669  0.1424
19833SOL     OW60939   7.223   7.511   9.136  0.3467 -0.2842  0.0241
19833SOL    HW160940   7.207   7.526   9.229  0.0178  0.9778 -0.2263
19833SOL    HW260941   7.138   7.523   9.094  0.7013  0.2417 -0.5615
19834SOL     OW60942   2.655   7.305   1.761  0.5004  0.4135  0.0866
19834SOL    HW160943   2.565   7.272   1.770  0.8017 -0.4490  0.0308
19834SOL    HW260944   2.699   7.274   1.840  1.0376 -0.1443 -0.4197
19835SOL     OW60945   4.155   2.169   8.821 -0.2682 -0.3576  0.1368
19835SOL    HW160946   4.136   2.218   8.900 -0.5422 -0.7151  0.2958
19835SOL    HW260947   4.107   2.215   8.752 -1.0296 -0.7527  0.3889
19836SOL     OW60948   7.269   0.821   8.066 -0.0173 -0.0900  0.1411
19836SOL    HW160949   7.261   0.747   8.127  1.2069 -1.0617 -0.8311
19836SOL    HW260950   7.351   0.864   8.091 -1.0525  1.4428  1.1581
19837SOL     OW60951   3.439   6.615   6.106  0.3890 -0.0813 -0.1826
19837SOL    HW160952   3.392   6.542   6.066 -2.5700  1.4655  0.1880
19837SOL    HW260953   3.435   6.685   6.041  0.9890  0.5103  0.3984
19838SOL     OW60954   0.641   6.724  11.932 -0.3021 -0.1419  0.3759
19838SOL    HW160955   0.691   6.643  11.948 -0.3620 -0.4062 -0.6759
19838SOL    HW260956   0.567   6.718  11.993  1.3993  0.7283  2.6828
19839SOL     OW60957   3.933   5.186   9.782 -0.0574 -0.3111  0.3437
19839SOL    HW160958   3.955   5.136   9.704  1.2007  0.4252  0.2025
19839SOL    HW260959   3.878   5.258   9.751  1.0864  0.4364 -0.0124
19840SOL     OW60960   4.308   1.292   4.286 -0.3904 -0.6587  0.0988
19840SOL    HW160961   4.221   1.308   4.323 -0.1779 -0.5887  0.5755
19840SOL    HW260962   4.364   1.277   4.362  0.2959  0.6693 -0.1168
19841SOL     OW60963   0.215   6.902   0.420 -0.9223 -0.1886  0.0505
19841SOL    HW160964   0.299   6.858   0.432 -1.9025 -2.4694 -0.8707
19841SOL    HW260965   0.186   6.922   0.509  0.4484  0.3470  0.3910
19842SOL     OW60966   1.502   4.396   9.362  0.0014 -0.3764  0.2803
19842SOL    HW160967   1.446   4.455   9.414  0.6926 -0.3485  1.0171
19842SOL    HW260968   1.443   4.326   9.334 -0.5569  0.0108  0.4612
19843SOL     OW60969   4.247   0.612  11.638  0.3451 -0.6711  0.0321
19843SOL    HW160970   4.201   0.614  11.722  0.9086 -1.9569  0.3913
19843SOL    HW260971   4.305   0.689  11.640  0.5988 -0.8755  0.9683
19844SOL     OW60972   3.169   5.198   3.653 -0.1529 -0.2572 -0.0030
19844SOL    HW160973   3.176   5.112   3.612 -3.5082 -1.1364  0.9489
19844SOL    HW260974   3.211   5.187   3.738  0.8440 -0.4431 -0.5060
19845SOL     OW60975   2.104   5.022   3.423  0.4426 -0.3883 -0.2833
19845SOL    HW160976   2.180   4.981   3.382  0.7097  0.5263 -0.7038
19845SOL    HW260977   2.053   4.948   3.456  0.6699 -1.1040 -1.4701
19846SOL     OW60978   4.660   0.245   1.845  0.1075  0.2355  0.2082
19846SOL    HW160979   4.703   0.326   1.817 -2.0651  1.3288 -0.2052
19846SOL    HW260980   4.595   0.273   1.909  1.3636 -1.6212  2.4630
19847SOL     OW60981   6.122   4.147  10.809  0.4161 -0.4026  0.0704
19847SOL    HW160982   6.188   4.206  10.773 -1.1956  1.4761  0.0468
19847SOL    HW260983   6.101   4.088  10.736  0.6810  0.2586 -0.5595
19848SOL     OW60984   4.285   7.871   9.157  0.0615  0.1242  0.1154
19848SOL    HW160985   4.366   7.850   9.203 -0.3723  0.5530  1.1082
19848SOL    HW260986   4.310   7.942   9.097  0.3606  0.4576  0.6260
19849SOL     OW60987   5.814   3.614   6.510 -0.8050  0.7627 -0.8607
19849SOL    HW160988   5.816   3.546   6.443  0.2751 -0.0430 -0.0319
19849SOL    HW260989   5.734   3.664   6.490 -1.0667 -0.0929 -2.0980
19850SOL     OW60990   3.654   0.003   2.356 -0.0062  0.4581 -0.0981
19850SOL    HW160991   3.610  -0.035   2.432  0.4177  0.3561  0.0971
19850SOL    HW260992   3.697  -0.071   2.313 -2.7413 -0.0680 -2.2033
19851SOL     OW60993   1.148   4.556  10.530 -0.1302  0.0268 -0.1525
19851SOL    HW160994   1.218   4.510  10.576  0.0825 -0.1605 -0.6458
19851SOL    HW260995   1.191   4.591  10.452 -0.8602 -1.2827 -1.1947
19852SOL     OW60996   2.045   4.350   6.344 -0.4768 -0.1436  0.2074
19852SOL    HW160997   2.090   4.274   6.380 -0.9543 -0.0159  1.0806
19852SOL    HW260998   2.007   4.395   6.419  1.6017  2.2036  0.0089
19853SOL     OW60999   3.438   5.247   1.189  0.0855  0.7187 -0.2922
19853SOL    HW161000   3.515   5.304   1.186  0.9175 -0.2464  1.3538
19853SOL    HW261001   3.429   5.223   1.281 -1.5614 -0.0464 -0.6213
19854SOL     OW61002   5.109   0.909   3.202  0.5367 -0.1770 -0.0107
19854SOL    HW161003   5.118   0.965   3.125 -0.3327  1.0580  0.7542
19854SOL    HW261004   5.041   0.846   3.179  1.8865 -1.3204 -1.0740
19855SOL     OW61005   6.239   2.603  10.144  0.3160 -0.3511  0.7370
19855SOL    HW161006   6.203   2.520  10.115 -0.6208 -0.1397  1.2483
19855SOL    HW261007   6.217   2.608  10.237  1.4664 -0.0937  1.0107
19856SOL     OW61008   4.767   5.944   0.092 -0.3666 -0.3868 -0.8043
19856SOL    HW161009   4.723   6.017   0.048  0.1774 -0.6880 -1.8949
19856SOL    HW261010   4.770   5.875   0.025  1.6750 -0.4108 -0.7601
19857SOL     OW61011   6.248   2.214   2.033 -0.3525 -0.3761 -0.0097
19857SOL    HW161012   6.188   2.146   2.001  0.4895 -0.3819 -1.6690
19857SOL    HW261013   6.210   2.296   2.001 -1.1757 -0.0511  1.6931
19858SOL     OW61014   0.818   3.785   2.713  0.3263  0.3853  0.1624
19858SOL    HW161015   0.790   3.694   2.725  1.3032  0.0739  0.2100
19858SOL    HW261016   0.848   3.788   2.622 -1.5481  1.1931 -0.4674
19859SOL     OW61017   7.537   5.666   4.057 -0.4304  0.3284  0.3361
19859SOL    HW161018   7.598   5.596   4.080 -3.2752 -2.2110  0.7469
19859SOL    HW261019   7.538   5.669   3.961  0.6952  0.7102  0.3489
19860SOL     OW61020   1.972   1.467   6.248  0.4159  0.5799  0.4092
19860SOL    HW161021   1.977   1.552   6.206  0.9636  0.9137  1.1296
19860SOL    HW261022   1.899   1.475   6.310 -2.1921 -0.7507 -2.2606
19861SOL     OW61023   7.063   4.186   9.855 -0.0384  0.0976 -0.3987
19861SOL    HW161024   6.986   4.195   9.913 -0.7783 -1.2500 -1.1252
19861SOL    HW261025   7.052   4.100   9.815  1.3798  0.2931 -1.2413
19862SOL     OW61026   0.146   4.966   6.155  0.1971 -0.0373 -0.2676
19862SOL    HW161027   0.125   4.983   6.063  1.4475 -1.0301 -0.7622
19862SOL    HW261028   0.199   4.886   6.153 -1.2238 -1.0997  1.4810
19863SOL     OW61029   6.713   7.446   8.201  0.4246 -0.2310 -0.3631
19863SOL    HW161030   6.792   7.463   8.149  0.0819 -0.6919 -1.0525
19863SOL    HW261031   6.641   7.473   8.143  0.0758  0.1894  0.2614
19864SOL     OW61032   6.794   1.571  10.068  0.8804  0.2953  0.0057
19864SOL    HW161033   6.843   1.541   9.991  0.7939 -0.0111  0.0681
19864SOL    HW261034   6.852   1.553  10.142  0.3854 -0.7822  0.1620
19865SOL     OW61035   2.282   1.162  12.172  0.0413  0.5169  0.3161
19865SOL    HW161036   2.331   1.093  12.216  0.8245  1.7291  1.4220
19865SOL    HW261037   2.195   1.160  12.212 -0.6861 -1.2165 -1.2004
19866SOL     OW61038   5.678   0.909   7.773 -0.4833  0.5330 -0.5156
19866SOL    HW161039   5.586   0.926   7.756 -1.2613 -1.2518  1.4154
19866SOL    HW261040   5.695   0.823   7.736  0.2894  0.6659 -0.4960
19867SOL     OW61041   5.739   5.083   4.793 -0.0896 -0.5013 -0.4463
19867SOL    HW161042   5.776   5.159   4.838  0.7915 -1.2675  0.1448
19867SOL    HW261043   5.669   5.053   4.851  0.7347 -1.2017  0.2129
19868SOL     OW61044   3.943   0.327  10.227 -0.6353  0.4694 -0.6597
19868SOL    HW161045   3.871   0.309  10.288 -1.6240  0.7534 -1.7012
19868SOL    HW261046   3.937   0.421  10.210  1.6604  1.0346  1.2586
19869SOL     OW61047   2.677   2.649   0.364  0.4821 -0.1345 -0.3287
19869SOL    HW161048   2.770   2.672   0.377  0.3173 -0.4299  1.7268
19869SOL    HW261049   2.631   2.733   0.368  0.6743  0.0653 -1.8228
19870SOL     OW61050   7.844   4.296   0.516  0.6509 -0.3480 -0.4881
19870SOL    HW161051   7.910   4.344   0.565  0.7415 -0.0272 -0.9172
19870SOL    HW261052   7.885   4.281   0.430  0.5220 -0.9559 -0.4526
19871SOL     OW61053   6.303   4.419   7.178 -0.4513  0.2279  0.3631
19871SOL    HW161054   6.301   4.514   7.166  0.3513  0.2984  0.7156
19871SOL    HW261055   6.222   4.388   7.138  0.4972  0.7954 -2.2277
19872SOL     OW61056   3.571   7.857   1.215  0.1820  0.4185  0.2260
19872SOL    HW161057   3.591   7.800   1.142 -0.4002  0.1412  0.2739
19872SOL    HW261058   3.593   7.945   1.184  0.9887  0.1830  0.1201
19873SOL     OW61059   0.636   0.097   8.435  0.1356 -0.1291  0.2575
19873SOL    HW161060   0.547   0.103   8.400  0.2774 -1.0866 -0.2907
19873SOL    HW261061   0.673   0.184   8.422 -0.6514  0.2199  0.3171
19874SOL     OW61062   6.922   4.521   2.932  0.1820 -0.2730 -0.1087
19874SOL    HW161063   6.857   4.515   2.862 -0.1069 -0.3880  0.1686
19874SOL    HW261064   6.949   4.613   2.933  0.6162 -0.3839 -0.7560
19875SOL     OW61065   6.085   7.350   6.168  0.0660 -0.2636 -0.5053
19875SOL    HW161066   6.106   7.444   6.167 -0.5426 -0.0996  0.5889
19875SOL    HW261067   6.169   7.307   6.152  0.3211  0.4654 -1.2070
19876SOL     OW61068   1.222   6.064   6.523  0.1806 -0.5829 -0.2171
19876SOL    HW161069   1.290   6.107   6.574 -0.3058 -1.2081  0.9825
19876SOL    HW261070   1.214   5.977   6.561 -1.7503 -0.2973  0.1387
19877SOL     OW61071   6.375   5.390   2.888  0.0432  0.1846  0.2095
19877SOL    HW161072   6.309   5.363   2.952  0.1296  1.8944  1.0890
19877SOL    HW261073   6.454   5.402   2.940  0.6161 -0.2097 -0.5541
19878SOL     OW61074   5.704   3.145   7.159 -0.0392  0.3766 -0.5755
19878SOL    HW161075   5.773   3.090   7.122 -1.6251 -0.8602 -1.8665
19878SOL    HW261076   5.732   3.234   7.140  2.1797  0.0507  0.8154
19879SOL     OW61077   4.760   4.687  11.386  0.1250  0.5981  0.2996
19879SOL    HW161078   4.730   4.604  11.350  1.4518 -0.2109  0.9577
19879SOL    HW261079   4.842   4.706  11.339  1.1057  0.2664  1.8062
19880SOL     OW61080   3.194   4.184   7.149  0.3905  0.3931  0.3714
19880SOL    HW161081   3.207   4.109   7.206  0.8049  0.6379  0.6088
19880SOL    HW261082   3.215   4.260   7.205  1.4095  0.6059 -0.2672
19881SOL     OW61083   5.365   3.056   8.382 -0.4834 -0.5806  0.2418
19881SOL    HW161084   5.449   3.094   8.356  0.1838 -0.1201  2.7348
19881SOL    HW261085   5.341   2.998   8.310  1.9901 -0.7676 -0.5361
19882SOL     OW61086   6.683   7.366   6.533 -0.2913 -0.0274  0.3785
19882SOL    HW161087   6.625   7.396   6.603  0.8798 -0.7519  1.7186
19882SOL    HW261088   6.763   7.416   6.545  0.2671 -0.8531  0.1731
19883SOL     OW61089   5.076   4.340   3.153 -0.0324  0.3748  0.7486
19883SOL    HW161090   5.155   4.327   3.101 -0.0820  2.9098 -0.1231
19883SOL    HW261091   5.026   4.259   3.143  1.7801 -0.7167  0.1417
19884SOL     OW61092   0.782   7.558   8.642 -0.0152 -0.0908 -0.6943
19884SOL    HW161093   0.772   7.653   8.647  1.1910  0.0584 -0.8821
19884SOL    HW261094   0.709   7.529   8.587 -0.9226  0.6143  0.1049
19885SOL     OW61095   7.868   4.899   9.009  0.1522 -0.2246  0.1705
19885SOL    HW161096   7.936   4.967   9.002  1.1889 -1.3196 -1.2774
19885SOL    HW261097   7.893   4.834   8.943 -0.2517 -2.5008  2.1155
19886SOL     OW61098   4.928   1.021   0.828  0.0320 -0.8370 -0.4166
19886SOL    HW161099   4.954   0.977   0.909  0.3228  0.7974  0.4203
19886SOL    HW261100   4.833   1.021   0.829  0.0252 -1.9073 -0.6939
19887SOL     OW61101   2.615   1.649  10.126 -0.2073 -0.2609  0.0027
19887SOL    HW161102   2.588   1.677  10.038 -0.9530  1.1049  0.6386
19887SOL    HW261103   2.533   1.636  10.173  0.2055 -0.1349  0.7614
19888SOL     OW61104   3.065   0.640   4.900  0.3441  0.0161  0.3649
19888SOL    HW161105   3.112   0.713   4.940 -0.4220 -0.3193  1.9753
19888SOL    HW261106   3.110   0.624   4.817  3.3083 -0.4998  1.9225
19889SOL     OW61107   4.510   5.429   3.555  0.0566 -0.1697 -0.3319
19889SOL    HW161108   4.415   5.429   3.541  0.0326  1.1243 -0.2887
19889SOL    HW261109   4.529   5.343   3.593 -1.3099  0.0975  1.0062
19890SOL     OW61110   6.176   2.133   0.035 -0.1050 -0.4956 -0.1474
19890SOL    HW161111   6.092   2.158  -0.004  0.8569  1.5526 -1.0394
19890SOL    HW261112   6.192   2.200   0.102  0.6625 -1.0720  0.2605
19891SOL     OW61113   5.669   0.604   2.877  0.0679 -0.1171 -0.2196
19891SOL    HW161114   5.655   0.530   2.818 -0.0369  1.0419 -1.7226
19891SOL    HW261115   5.639   0.573   2.962 -0.3377 -1.6632 -0.8900
19892SOL     OW61116   1.667   7.313   6.746  0.2873 -0.0158  0.0341
19892SOL    HW161117   1.704   7.345   6.829  0.5804  0.7689 -0.3831
19892SOL    HW261118   1.643   7.393   6.699 -0.8086 -0.4816 -0.2247
19893SOL     OW61119   0.358   6.429   6.465  0.1856  0.0497  0.2448
19893SOL    HW161120   0.313   6.513   6.465  1.5047  0.7972  1.6623
19893SOL    HW261121   0.393   6.420   6.376 -1.7125 -0.0355 -0.5575
19894SOL     OW61122   1.859   5.737   2.514  0.2399  0.2459  0.0199
19894SOL    HW161123   1.891   5.822   2.484  0.3700  1.1535  2.4836
19894SOL    HW261124   1.928   5.675   2.489  3.2984  1.8444  3.4925
19895SOL     OW61125   4.975   1.609  12.048 -0.1917 -0.4188 -0.0168
19895SOL    HW161126   4.970   1.513  12.051 -1.3995 -0.4378 -1.4967
19895SOL    HW261127   4.899   1.638  12.098  0.7012 -0.1936  1.2422
19896SOL     OW61128   1.698   7.867   2.087 -0.1392 -0.1917  0.0685
19896SOL    HW161129   1.612   7.867   2.129  0.3851 -1.6953  1.2215
19896SOL    HW261130   1.757   7.902   2.154  0.4399 -0.9723 -0.0268
19897SOL     OW61131   3.566   2.704   2.744  0.2291 -0.5462  0.1971
19897SOL    HW161132   3.604   2.760   2.677 -0.8988  1.8140  1.3876
19897SOL    HW261133   3.510   2.643   2.696  1.5182 -0.7139 -1.1514
19898SOL     OW61134   3.669   7.451   2.936 -0.2433 -0.3422 -0.2304
19898SOL    HW161135   3.596   7.478   2.881  1.3868 -0.8095 -2.8000
19898SOL    HW261136   3.747   7.465   2.882  2.1898  3.8330  3.6038
19899SOL     OW61137   6.737   5.836   7.687 -0.2674  0.4227 -0.4407
19899SOL    HW161138   6.664   5.812   7.629 -0.5767 -0.9420  0.4857
19899SOL    HW261139   6.778   5.911   7.643 -2.2717  1.3021 -0.9369
19900SOL     OW61140   4.585   5.305   9.780  0.5402 -0.0272 -0.2002
19900SOL    HW161141   4.659   5.267   9.827  1.6214  1.3944 -0.6940
19900SOL    HW261142   4.605   5.290   9.687 -1.0545 -1.8552 -0.3195
19901SOL     OW61143   4.477   4.285   3.297 -0.5060 -0.4369  0.4420
19901SOL    HW161144   4.500   4.367   3.341 -0.6018  0.9282 -1.9177
19901SOL    HW261145   4.553   4.264   3.243 -0.2685 -2.2480  1.3770
19902SOL     OW61146   4.003   4.603   9.706  0.0270  0.5975  0.0935
19902SOL    HW161147   4.042   4.648   9.781  0.0016  0.3578  0.2514
19902SOL    HW261148   3.920   4.648   9.692 -0.4741 -0.0556  0.8943
19903SOL     OW61149   6.286   6.317   7.097  0.2152  0.3848  0.0173
19903SOL    HW161150   6.255   6.383   7.160  0.3982  1.1078 -0.6412
19903SOL    HW261151   6.351   6.363   7.044 -0.7384  0.1175 -1.4345
19904SOL     OW61152   2.154   5.412   6.035  0.3214 -0.7295 -0.0915
19904SOL    HW161153   2.110   5.397   5.951 -0.7837 -1.6856  0.6199
19904SOL    HW261154   2.160   5.507   6.044 -0.6582 -0.6083 -0.6963
19905SOL     OW61155   5.928   1.724  12.269  0.2442 -0.1140 -1.0635
19905SOL    HW161156   5.911   1.806  12.222 -1.3724  0.1760 -0.0160
19905SOL    HW261157   5.979   1.672  12.206 -0.3111  0.9520 -2.4632
19906SOL     OW61158   3.505   5.509   2.952 -0.0502  0.0438 -0.1390
19906SOL    HW161159   3.424   5.466   2.979 -0.6378  0.7214 -0.7627
19906SOL    HW261160   3.497   5.599   2.985  0.3072  0.2009 -0.4680
19907SOL     OW61161   2.848   3.331  11.567  0.0331 -0.1462  0.1853
19907SOL    HW161162   2.784   3.390  11.606  1.5112  2.1901 -0.7135
19907SOL    HW261163   2.828   3.332  11.473  0.1162 -1.0609  0.1476
19908SOL     OW61164   7.193   7.626   2.080 -0.4401 -0.8593 -0.2906
19908SOL    HW161165   7.175   7.714   2.112 -0.2253 -1.0557  0.3823
19908SOL    HW261166   7.145   7.569   2.139 -1.4442 -1.1584 -1.3522
19909SOL     OW61167   2.575   3.130  10.871 -0.4041  0.0172  0.5446
19909SOL    HW161168   2.647   3.141  10.809  0.4711 -0.0885  1.5166
19909SOL    HW261169   2.511   3.196  10.845  0.0743  0.1566 -0.2971
19910SOL     OW61170   5.317   7.143   4.215 -0.3602 -0.4619  0.3613
19910SOL    HW161171   5.375   7.185   4.151  0.4063 -0.8493  0.7820
19910SOL    HW261172   5.269   7.077   4.164 -0.0796 -0.4666  0.0991
19911SOL     OW61173   0.148   0.289   0.043  0.1866 -0.5705  0.2862
19911SOL    HW161174   0.138   0.212  -0.013 -0.2395 -1.2670  1.2946
19911SOL    HW261175   0.243   0.295   0.058  0.3789  0.0350 -1.0462
19912SOL     OW61176   5.967   3.740  10.792 -0.2548  0.2056  0.3859
19912SOL    HW161177   5.885   3.761  10.837  0.2420  0.8796  0.9876
19912SOL    HW261178   5.983   3.815  10.734 -0.4945 -0.3108 -0.3643
19913SOL     OW61179   5.590   4.330   6.042 -0.8589 -0.0622  0.2703
19913SOL    HW161180   5.553   4.249   6.077  1.0876 -2.4066 -2.5563
19913SOL    HW261181   5.584   4.320   5.947 -0.8253  3.3318 -0.2190
19914SOL     OW61182   0.201   2.417   7.648 -0.1746  0.1778  0.1373
19914SOL    HW161183   0.275   2.453   7.697 -0.3361  1.3357 -0.4241
19914SOL    HW261184   0.189   2.478   7.574 -1.2076 -0.4003 -0.1973
19915SOL     OW61185   4.201   0.042   6.872 -0.1936 -0.0518 -0.0944
19915SOL    HW161186   4.189  -0.052   6.861 -0.2248  0.1954 -2.8097
19915SOL    HW261187   4.173   0.059   6.962 -0.6627 -2.5428  0.3046
19916SOL     OW61188   0.653   1.160   6.811  0.3004  0.0521  0.2060
19916SOL    HW161189   0.592   1.090   6.832 -0.0822  0.1153 -0.6379
19916SOL    HW261190   0.598   1.236   6.794  0.6674  0.3665  0.3977
19917SOL     OW61191   3.193   3.271   0.491 -0.1085 -0.7159 -0.2585
19917SOL    HW161192   3.259   3.253   0.559  1.7672  3.0528 -0.8040
19917SOL    HW261193   3.110   3.274   0.539  0.8134 -0.6361  1.4094
19918SOL     OW61194   4.221   3.343   1.352 -0.3535  0.2345  0.2916
19918SOL    HW161195   4.297   3.285   1.353  0.6256  1.4714  0.0841
19918SOL    HW261196   4.236   3.403   1.279 -1.8446  0.1248 -0.1527
19919SOL     OW61197   1.361   0.645   3.207 -0.4578  0.4297 -0.0329
19919SOL    HW161198   1.265   0.645   3.206 -0.4668  0.0097 -0.9706
19919SOL    HW261199   1.385   0.578   3.143  0.4661  0.4508  0.2754
19920SOL     OW61200   6.602   5.472   1.458 -0.1887  0.4635 -0.0678
19920SOL    HW161201   6.696   5.481   1.441 -0.4636  1.0485 -1.3129
19920SOL    HW261202   6.588   5.521   1.539  0.3510  1.4661 -0.5746
19921SOL     OW61203   2.808   4.052   5.802 -0.1380  0.5349  0.0855
19921SOL    HW161204   2.801   4.027   5.710  0.2322  1.0418 -0.0868
19921SOL    HW261205   2.890   4.102   5.806 -0.3986  0.9195  0.5971
19922SOL     OW61206   7.608   3.595   9.018 -0.1989  0.4825 -0.2566
19922SOL    HW161207   7.580   3.524   8.961 -1.3890  0.1449  0.7119
19922SOL    HW261208   7.587   3.675   8.969  0.3694  0.1858 -0.9928
19923SOL     OW61209   1.328   4.868   6.302 -0.1994 -0.3634 -0.3114
19923SOL    HW161210   1.300   4.821   6.224 -0.7805  0.3739 -0.5584
19923SOL    HW261211   1.350   4.956   6.270  0.4496 -0.3293  0.2076
19924SOL     OW61212   3.742   3.527   0.056  0.1002 -0.2404 -0.1397
19924SOL    HW161213   3.741   3.479  -0.027  1.9795  1.5977 -1.3292
19924SOL    HW261214   3.832   3.519   0.087 -0.0581  0.8417  0.6292
19925SOL     OW61215   1.929   6.720   2.655 -0.2058 -0.6155 -0.0099
19925SOL    HW161216   1.983   6.724   2.733 -0.0147 -0.2469 -0.1583
19925SOL    HW261217   1.857   6.782   2.672 -0.7211 -1.2900  0.2910
19926SOL     OW61218   1.486   1.198   2.020  0.2614  0.3046  0.2131
19926SOL    HW161219   1.468   1.176   1.929  0.7070 -0.1187  0.2227
19926SOL    HW261220   1.487   1.294   2.022  1.2566  0.3260 -0.4399
19927SOL     OW61221   0.323   3.522   9.810  0.5431 -0.2381  0.1421
19927SOL    HW161222   0.269   3.596   9.838 -0.2344 -1.8108  3.2093
19927SOL    HW261223   0.395   3.520   9.872  2.4681 -0.1130 -1.9633
19928SOL     OW61224   2.203   3.649   0.557  0.4165 -0.2716  0.6392
19928SOL    HW161225   2.280   3.607   0.519  0.9959 -0.8568  2.3842
19928SOL    HW261226   2.217   3.645   0.651 -1.0804  0.9141  0.9574
19929SOL     OW61227   7.035   2.915   0.193 -0.5602 -0.5197  0.2549
19929SOL    HW161228   7.120   2.917   0.236 -0.7060  0.2447  0.5270
19929SOL    HW261229   7.051   2.948   0.105 -0.3888 -1.4099 -0.0575
19930SOL     OW61230   2.884   4.952   6.058  0.2237  0.0358 -0.2157
19930SOL    HW161231   2.860   4.866   6.091  0.7576 -0.1588 -0.3287
19930SOL    HW261232   2.817   4.973   5.993 -0.0542 -0.1777  0.0025
19931SOL     OW61233   0.384   3.288  10.596 -0.5276 -0.2569 -0.5309
19931SOL    HW161234   0.334   3.206  10.587 -0.4065 -0.4027  0.0552
19931SOL    HW261235   0.367   3.316  10.686 -0.7521  0.4898 -0.7969
19932SOL     OW61236   1.178   7.696   0.552 -0.3572 -0.2753 -0.1287
19932SOL    HW161237   1.178   7.784   0.590 -3.1007  0.5287 -1.7885
19932SOL    HW261238   1.209   7.708   0.462  1.0575 -1.3697  0.1603
19933SOL     OW61239   2.908   0.813   1.081  0.2217 -0.1473  0.3278
19933SOL    HW161240   3.000   0.839   1.073 -0.0650  0.5981 -0.7927
19933SOL    HW261241   2.910   0.717   1.088  1.0463 -0.2062 -0.5452
19934SOL     OW61242   0.115   3.673   1.940 -0.4868 -0.2056 -0.0964
19934SOL    HW161243   0.049   3.697   1.876 -1.4338  0.6558  1.1576
19934SOL    HW261244   0.156   3.594   1.904 -2.5032 -1.0384 -0.6935
19935SOL     OW61245   1.225   4.843   2.090  0.4588  0.0029 -0.6812
19935SOL    HW161246   1.217   4.879   2.002 -0.2840  0.5553 -0.3967
19935SOL    HW261247   1.189   4.911   2.147 -2.9309 -1.8878 -0.2738
19936SOL     OW61248   3.271   5.586  12.330  0.0715 -0.0906  0.2058
19936SOL    HW161249   3.303   5.613  12.416 -1.7684 -1.3651  1.3558
19936SOL    HW261250   3.350   5.575  12.278  1.1706  2.1071  1.2499
19937SOL     OW61251   1.378   1.718   3.804  0.0767  0.4245 -0.0779
19937SOL    HW161252   1.294   1.762   3.804 -1.0825 -1.6512  0.7764
19937SOL    HW261253   1.405   1.717   3.896  0.8547  0.6967 -0.2907
19938SOL     OW61254   1.132   6.783   0.350  0.2611 -0.4173 -0.6532
19938SOL    HW161255   1.226   6.766   0.352  0.0530 -1.5623  0.0091
19938SOL    HW261256   1.111   6.813   0.438  0.0318  0.0358 -0.8578
19939SOL     OW61257   7.616   2.580  10.100 -0.0050  0.3935  0.1638
19939SOL    HW161258   7.677   2.593  10.173 -0.8882 -0.4949  1.0977
19939SOL    HW261259   7.628   2.488  10.076  1.2390  0.9983 -1.7511
19940SOL     OW61260   1.102   4.012   9.946 -0.3100 -0.4505 -0.0731
19940SOL    HW161261   1.102   3.938  10.007 -1.7280  1.3063  2.2337
19940SOL    HW261262   1.192   4.043   9.945 -0.3245 -0.3172  1.4292
19941SOL     OW61263   0.541   3.033  10.210  0.0862  0.1174 -0.0194
19941SOL    HW161264   0.580   3.116  10.182  1.0713 -0.5664 -0.7422
19941SOL    HW261265   0.612   2.986  10.252 -0.8133  0.1731  1.6609
19942SOL     OW61266   5.976   4.926   3.358 -0.1173 -0.0123 -0.2250
19942SOL    HW161267   6.064   4.905   3.328 -0.3266  0.5082 -1.2228
19942SOL    HW261268   5.976   4.903   3.451  1.9978  2.7765  0.5650
19943SOL     OW61269   2.282   3.156  11.068 -0.5426  0.2910  0.1816
19943SOL    HW161270   2.236   3.077  11.039 -0.1792 -0.4329  1.4762
19943SOL    HW261271   2.224   3.196  11.133 -0.6610  1.0147 -0.3643
19944SOL     OW61272   2.717   7.025   8.082  0.3312  0.6633 -0.1714
19944SOL    HW161273   2.624   7.022   8.102  0.9207  1.2056  3.2625
19944SOL    HW261274   2.736   7.118   8.069  0.4395  0.5664 -0.7434
19945SOL     OW61275   4.659   0.270  12.224 -0.1201 -0.0985  0.0880
19945SOL    HW161276   4.702   0.215  12.289  0.0842  1.0941  1.0052
19945SOL    HW261277   4.673   0.225  12.141  3.0966  0.2871  0.2848
19946SOL     OW61278   3.822   1.289   4.774  0.4293  0.7645  0.1352
19946SOL    HW161279   3.761   1.294   4.847 -0.4859 -1.6140 -0.3785
19946SOL    HW261280   3.900   1.336   4.805 -0.1603  0.3879  2.3665
19947SOL     OW61281   1.859   5.594   7.964 -0.5655  0.3241 -0.0292
19947SOL    HW161282   1.837   5.503   7.983  0.9553  0.0394  0.4249
19947SOL    HW261283   1.846   5.640   8.047  3.7434 -0.4893  1.3353
19948SOL     OW61284   0.125   4.383   0.092 -0.3293  0.1556  0.5740
19948SOL    HW161285   0.140   4.311   0.030  0.1673  0.5199  0.2695
19948SOL    HW261286   0.079   4.342   0.165 -1.2484 -0.2142 -0.1910
19949SOL     OW61287   5.091   2.456   0.471 -0.3735  0.3610  0.1512
19949SOL    HW161288   5.081   2.375   0.520  1.0758  0.2306  0.2586
19949SOL    HW261289   5.054   2.523   0.529  2.3921  0.3925  2.0554
19950SOL     OW61290   4.017   2.325   3.536 -0.2023  1.3197 -0.0841
19950SOL    HW161291   4.091   2.266   3.547 -0.7340  0.5468 -0.5611
19950SOL    HW261292   4.002   2.361   3.624 -0.9097 -0.5251  0.5939
19951SOL     OW61293   7.321   2.988   3.481  0.6743  0.8876  0.0785
19951SOL    HW161294   7.256   2.932   3.437 -0.4096  1.4554  0.9150
19951SOL    HW261295   7.356   3.042   3.411  1.0298 -0.1520 -0.5769
19952SOL     OW61296   2.759   7.270   2.004 -0.2160 -0.0276 -0.4111
19952SOL    HW161297   2.730   7.349   2.050  0.9285 -0.1759  0.5937
19952SOL    HW261298   2.796   7.214   2.072  1.2214 -0.3931 -1.4384
19953SOL     OW61299   7.817   6.284   7.472  0.1615  0.0111  0.5981
19953SOL    HW161300   7.895   6.285   7.527  0.5201 -0.8500  0.1302
19953SOL    HW261301   7.811   6.194   7.442 -0.4903  0.2842 -0.1130
19954SOL     OW61302   0.696   3.425   0.589 -0.0953  0.2415  0.5754
19954SOL    HW161303   0.760   3.363   0.622 -1.0174 -1.1697 -0.1886
19954SOL    HW261304   0.720   3.509   0.630  2.0446 -0.2806  0.4968
19955SOL     OW61305   2.885   3.113   5.640  0.2705  0.3026  0.5643
19955SOL    HW161306   2.868   3.178   5.708  1.2568  0.9900  0.1717
19955SOL    HW261307   2.799   3.074   5.622 -0.3491  1.5303  0.7738
19956SOL     OW61308   4.349   6.459  10.210 -0.1451  0.5600 -0.9357
19956SOL    HW161309   4.325   6.512  10.133 -0.5209  0.8960 -0.5890
19956SOL    HW261310   4.286   6.387  10.210 -0.1256  0.5431 -0.9598
19957SOL     OW61311   1.737   0.705   9.636 -0.2108 -0.1335  0.1239
19957SOL    HW161312   1.692   0.626   9.669 -0.2828 -0.5084 -0.8544
19957SOL    HW261313   1.787   0.737   9.711 -0.6332 -0.7875  0.6950
19958SOL     OW61314   4.754   5.477  11.642 -0.0276  0.4734 -0.3868
19958SOL    HW161315   4.844   5.506  11.652 -0.2484  1.2122 -0.4407
19958SOL    HW261316   4.708   5.516  11.717 -0.6639  1.6943 -1.3660
19959SOL     OW61317   2.561   2.892   3.082 -0.1066  0.1762  0.9240
19959SOL    HW161318   2.536   2.962   3.141  1.0953  0.6809  0.8624
19959SOL    HW261319   2.644   2.921   3.043 -1.0568  0.0724 -1.3688
19960SOL     OW61320   4.094   5.856   2.195 -0.3142  0.2817  0.2021
19960SOL    HW161321   4.050   5.833   2.112  0.7232 -1.6316  0.1409
19960SOL    HW261322   4.022   5.864   2.258 -0.9492 -0.6750 -0.3643
19961SOL     OW61323   1.567   0.185   8.225  0.5269 -0.2940 -0.3246
19961SOL    HW161324   1.500   0.164   8.290  1.0773 -0.5133  0.1783
19961SOL    HW261325   1.522   0.241   8.162 -0.8465 -2.4993 -1.4322
19962SOL     OW61326   1.335   2.502   4.506  0.3543 -0.6352 -0.1260
19962SOL    HW161327   1.354   2.489   4.413  1.1724 -0.1796 -0.0327
19962SOL    HW261328   1.416   2.478   4.550  0.0272 -0.6765  0.4576
19963SOL     OW61329   6.103   0.504   1.363  0.5764  0.3640  0.0261
19963SOL    HW161330   6.085   0.544   1.278 -0.1554  0.0545  0.0310
19963SOL    HW261331   6.027   0.526   1.417  1.0701  0.6298  0.6361
19964SOL     OW61332   5.502   4.934   9.441 -0.2364  0.0401  0.4200
19964SOL    HW161333   5.572   4.872   9.461  0.9097  0.8932 -0.7704
19964SOL    HW261334   5.545   5.004   9.392 -2.0175  0.3581 -0.7908
19965SOL     OW61335   2.904   2.075   1.380  0.0284  0.4845  0.5270
19965SOL    HW161336   2.990   2.099   1.348  1.0750 -2.2541  1.0383
19965SOL    HW261337   2.908   2.092   1.474  0.5098 -0.8904  0.7681
19966SOL     OW61338   5.174   7.867   6.766 -0.0229  0.2800 -0.0297
19966SOL    HW161339   5.095   7.847   6.716  1.4753  0.3515 -2.5885
19966SOL    HW261340   5.145   7.927   6.834 -2.1656  0.2807 -0.8762
19967SOL     OW61341   7.210   2.419  11.500 -0.2199  0.0054  0.5867
19967SOL    HW161342   7.190   2.433  11.593  0.0038 -3.5103  1.2884
19967SOL    HW261343   7.136   2.369  11.467  0.1053  0.5006 -0.9622
19968SOL     OW61344   5.916   6.871  10.653 -0.1821 -0.0252  0.3705
19968SOL    HW161345   5.857   6.837  10.585  0.7308 -2.8285  0.8653
19968SOL    HW261346   6.002   6.876  10.612 -0.4167  2.9728 -0.0085
19969SOL     OW61347   7.942   7.031   1.837  0.0579  0.4577 -0.0858
19969SOL    HW161348   7.981   7.001   1.755 -2.5199 -3.7744 -0.0460
19969SOL    HW261349   8.000   6.997   1.905 -0.6916 -1.0489 -0.1485
19970SOL     OW61350   7.256   1.362   4.715  0.4519  0.5821 -0.1070
19970SOL    HW161351   7.283   1.449   4.745  0.1874  0.7649 -0.4024
19970SOL    HW261352   7.161   1.360   4.726  0.7520 -1.4629  4.7566
19971SOL     OW61353   7.785   2.002   8.140 -0.6827  0.0213  0.2440
19971SOL    HW161354   7.781   1.951   8.221  0.5156  1.6396  1.3620
19971SOL    HW261355   7.778   1.936   8.071  0.1775 -1.6090  1.6287
19972SOL     OW61356   0.023   7.060   9.676 -0.2437 -0.3103  0.3320
19972SOL    HW161357   0.116   7.057   9.652 -0.7382  1.1899 -2.1579
19972SOL    HW261358   0.016   7.132   9.738 -0.0441  1.2407 -1.3807
19973SOL     OW61359   5.267   5.279   3.384  0.0338  0.8231  0.0241
19973SOL    HW161360   5.270   5.305   3.476  0.1405  1.0705 -0.0490
19973SOL    HW261361   5.262   5.361   3.336 -0.9427  0.6677 -0.1556
19974SOL     OW61362   4.598   1.893   2.330  0.0368  0.2636  0.2085
19974SOL    HW161363   4.647   1.814   2.308 -0.8932 -0.1847 -0.3054
19974SOL    HW261364   4.557   1.873   2.414 -0.4379  0.0736 -0.0623
19975SOL     OW61365   3.340   0.275   9.953  0.9411 -0.0999  0.3459
19975SOL    HW161366   3.395   0.292  10.029  0.7833 -0.3593  0.5167
19975SOL    HW261367   3.345   0.356   9.901  1.3930 -0.0820  0.4149
19976SOL     OW61368   2.323   6.919   3.494 -0.0636  0.3401  0.0880
19976SOL    HW161369   2.387   6.973   3.450  0.1893  0.1574  0.2259
19976SOL    HW261370   2.334   6.832   3.456 -0.8633  0.5004 -0.5502
19977SOL     OW61371   2.502   6.053   4.306 -0.1809  0.0471  0.4487
19977SOL    HW161372   2.461   5.967   4.299 -2.6525  0.8081  3.1827
19977SOL    HW261373   2.433   6.115   4.281 -0.7835  1.3663  4.5730
19978SOL     OW61374   1.366   1.053   8.800 -0.4115  0.4920  0.1688
19978SOL    HW161375   1.360   0.958   8.795 -2.7751  0.5590  0.4940
19978SOL    HW261376   1.424   1.070   8.874 -0.3696 -0.6975  0.4262
19979SOL     OW61377   5.467   2.720   0.044 -0.0469 -0.0051 -0.2227
19979SOL    HW161378   5.552   2.688   0.013  0.0387  0.3981 -0.4183
19979SOL    HW261379   5.427   2.761  -0.033 -0.5081 -0.3723 -0.1810
19980SOL     OW61380   6.474   4.335   0.383 -0.0813  0.5120 -0.2730
19980SOL    HW161381   6.435   4.407   0.334 -1.4548  0.2004  0.3072
19980SOL    HW261382   6.428   4.336   0.467 -0.4151 -1.2808 -0.3997
19981SOL     OW61383   3.543   5.274   1.885 -1.0125 -0.0898 -0.4335
19981SOL    HW161384   3.454   5.257   1.853 -0.3268 -1.3848 -1.7421
19981SOL    HW261385   3.596   5.204   1.847  0.4507  0.2206  0.9324
19982SOL     OW61386   3.604   2.487   5.808 -0.4276 -0.1053 -0.2956
19982SOL    HW161387   3.609   2.535   5.725  0.0130  0.4310  0.0375
19982SOL    HW261388   3.692   2.494   5.845 -1.2287  1.7567  1.3848
19983SOL     OW61389   3.642   1.684   0.778  0.2949 -0.2261  0.4327
19983SOL    HW161390   3.710   1.704   0.715 -0.5677  0.8088 -0.1913
19983SOL    HW261391   3.686   1.630   0.844  1.6758  0.3163 -0.0117
19984SOL     OW61392   6.143   4.867   9.443 -0.4708  0.0392  0.5005
19984SOL    HW161393   6.139   4.877   9.539  0.5680  0.7333  0.4961
19984SOL    HW261394   6.237   4.874   9.423 -0.7976  1.4014 -0.7116
19985SOL     OW61395   3.871   1.357   6.762  0.1619 -0.4034  0.7606
19985SOL    HW161396   3.883   1.445   6.796 -2.2582  0.1961  0.2555
19985SOL    HW261397   3.951   1.338   6.714  0.6701  1.5705  0.7645
19986SOL     OW61398   2.249   4.383   6.573 -0.2557 -0.6779  0.3975
19986SOL    HW161399   2.293   4.368   6.657  0.2263  0.2548  0.3308
19986SOL    HW261400   2.286   4.316   6.514  0.0321 -0.7920  0.7059
19987SOL     OW61401   0.475   4.009  11.012  0.1075 -0.4216  0.1835
19987SOL    HW161402   0.507   3.926  10.978  2.0295 -0.2997  1.5456
19987SOL    HW261403   0.387   3.990  11.045  0.6575 -2.0208  0.7896
19988SOL     OW61404   6.347   2.401   4.216  0.1644 -0.5842  0.4658
19988SOL    HW161405   6.292   2.462   4.166  0.2176  0.4840  1.6589
19988SOL    HW261406   6.396   2.352   4.149 -1.1301 -0.5159 -0.5654
19989SOL     OW61407   4.140   4.418   1.675  0.7919  0.5613  0.4420
19989SOL    HW161408   4.202   4.484   1.645  1.0039 -0.7525 -2.2933
19989SOL    HW261409   4.195   4.343   1.699  0.3911 -0.3908 -1.4145
19990SOL     OW61410   2.407   5.223   6.656  0.2399 -0.3426 -0.2134
19990SOL    HW161411   2.442   5.223   6.745 -1.0820 -0.6621  0.3196
19990SOL    HW261412   2.337   5.157   6.658  0.8191 -1.0517 -1.7377
19991SOL     OW61413   0.669   3.705   9.436  0.6147  0.4169  0.2815
19991SOL    HW161414   0.598   3.650   9.471 -0.6870  1.8737  0.0547
19991SOL    HW261415   0.696   3.661   9.356 -0.7116  0.2943 -0.1343
19992SOL     OW61416   6.789   3.892   4.423  0.4485 -0.2371  0.1049
19992SOL    HW161417   6.719   3.948   4.387  0.9581 -0.2805 -0.9753
19992SOL    HW261418   6.851   3.953   4.462  0.5546 -0.0971 -0.2778
19993SOL     OW61419   5.928   6.315   6.492 -0.2759 -0.3038  0.0760
19993SOL    HW161420   5.938   6.398   6.445 -0.6400 -0.8581 -1.0324
19993SOL    HW261421   5.841   6.284   6.468 -0.2598 -0.8679  0.7159
19994SOL     OW61422   6.507   0.939   1.960 -0.0642 -0.5016 -0.2113
19994SOL    HW161423   6.443   0.867   1.964  0.6089 -1.2538 -1.8691
19994SOL    HW261424   6.544   0.932   1.872  0.7925  1.2381 -0.0222
19995SOL     OW61425   1.950   5.922  11.056 -0.6201  0.2231  0.1323
19995SOL    HW161426   1.920   5.920  11.147 -2.0703 -1.3272 -0.3123
19995SOL    HW261427   1.872   5.943  11.005  0.2672  1.5257 -0.7619
19996SOL     OW61428   4.183   0.237   6.253 -0.1026 -0.2076  0.0273
19996SOL    HW161429   4.150   0.273   6.336 -0.5987 -0.2671 -0.1394
19996SOL    HW261430   4.167   0.306   6.189  3.0354  1.1055  0.4764
19997SOL     OW61431   6.911   4.509   1.532 -0.1895  0.2911 -0.5694
19997SOL    HW161432   6.866   4.495   1.615 -0.8941 -1.8500 -1.2373
19997SOL    HW261433   6.843   4.540   1.472 -0.7978 -2.4695 -1.4502
19998SOL     OW61434   7.570   5.400   8.922  0.0199  0.1825  0.1837
19998SOL    HW161435   7.483   5.372   8.894 -0.4336 -0.0243  1.7358
19998SOL    HW261436   7.557   5.486   8.962  0.4662 -0.0174  0.7717
19999SOL     OW61437   6.440   7.067   5.044 -0.2379  0.2271 -0.1804
19999SOL    HW161438   6.378   7.135   5.018 -0.5359 -0.1235 -0.3903
19999SOL    HW261439   6.397   7.021   5.117 -1.2555 -1.4707 -1.7522
20000SOL     OW61440   1.382   1.015   0.946 -0.1404  0.7322 -0.1309
20000SOL    HW161441   1.390   0.927   0.983 -2.4034 -0.3720 -2.0316
20000SOL    HW261442   1.319   1.060   1.002 -1.1913  0.1122 -0.7792
20001SOL     OW61443   0.543   2.970   9.272  0.5398  0.0084 -0.6593
20001SOL    HW161444   0.625   2.929   9.299 -0.2888 -0.6550  1.0177
20001SOL    HW261445   0.539   3.052   9.322  0.6063  0.4990 -1.4454
20002SOL     OW61446   7.173   1.009   5.827  0.1315  0.1613  0.1462
20002SOL    HW161447   7.174   1.102   5.851  0.4636 -0.0272  0.9005
20002SOL    HW261448   7.165   0.963   5.911 -0.8278 -0.4716 -0.2836
20003SOL     OW61449   1.803   7.380   6.418  0.1479  0.3402 -0.0665
20003SOL    HW161450   1.793   7.287   6.440  0.1884  0.0207 -1.3327
20003SOL    HW261451   1.852   7.380   6.336 -0.9645  1.4299 -0.7585
20004SOL     OW61452   1.042   5.043   8.875  0.0167 -0.0529  0.4301
20004SOL    HW161453   0.959   5.004   8.849 -0.1323  0.8978 -0.6053
20004SOL    HW261454   1.018   5.130   8.909  0.5301 -0.0295  0.7491
20005SOL     OW61455   4.902   0.292   1.550  0.1636 -0.1501 -0.0446
20005SOL    HW161456   4.884   0.385   1.541 -1.4492 -0.2974  1.2253
20005SOL    HW261457   4.969   0.286   1.618 -0.6869  0.0445  0.8316
20006SOL     OW61458   0.381   7.983   4.244  0.6647 -0.9705  0.3933
20006SOL    HW161459   0.340   8.061   4.281  1.0371 -0.4572 -0.2351
20006SOL    HW261460   0.324   7.911   4.269  0.2109 -0.4672  0.8282
20007SOL     OW61461   0.846   2.271   5.253  0.2482  0.1193  0.0856
20007SOL    HW161462   0.920   2.236   5.205  0.4735 -0.9403  1.1578
20007SOL    HW261463   0.847   2.365   5.234  1.0584 -0.0866 -0.9554
20008SOL     OW61464   4.280   2.761   1.154 -0.5039  0.2274  0.2575
20008SOL    HW161465   4.208   2.702   1.134  0.4052 -0.6595 -0.5354
20008SOL    HW261466   4.351   2.732   1.097 -0.0854  2.2393 -0.3276
20009SOL     OW61467   0.793   7.749   0.536  0.3473  0.4291  0.3508
20009SOL    HW161468   0.846   7.740   0.456 -0.3689  0.1136 -0.1047
20009SOL    HW261469   0.825   7.680   0.593 -0.3685 -0.5582 -0.3989
20010SOL     OW61470   5.484   6.532   0.118 -0.3012  0.4796  0.2831
20010SOL    HW161471   5.527   6.494   0.194 -0.0477 -0.2525 -0.2119
20010SOL    HW261472   5.398   6.560   0.150 -0.1983  0.1791  0.8284
20011SOL     OW61473   6.827   5.872  10.879  0.0290  0.1076  0.4412
20011SOL    HW161474   6.840   5.943  10.816  0.4970 -1.4311 -1.2840
20011SOL    HW261475   6.749   5.898  10.928 -0.9720  0.9245 -1.4710
20012SOL     OW61476   1.125   2.858   8.280 -0.3739  0.2966 -0.0151
20012SOL    HW161477   1.219   2.848   8.293 -0.4916 -0.7599  0.1330
20012SOL    HW261478   1.116   2.911   8.201  0.3406  1.8087  0.8675
20013SOL     OW61479   4.102   7.387  11.554  0.0833 -1.4446 -0.2433
20013SOL    HW161480   4.128   7.363  11.643 -0.5994 -0.3739  0.2678
20013SOL    HW261481   4.049   7.312  11.524 -1.0062 -1.1497  0.8598
20014SOL     OW61482   0.293   7.043   2.833  0.3610 -0.1661  0.1825
20014SOL    HW161483   0.256   7.128   2.856 -1.2900 -0.9720  0.6453
20014SOL    HW261484   0.322   7.006   2.916 -2.6980 -1.7291  0.6984
20015SOL     OW61485   3.091   0.873   1.332  0.0557  0.2997  0.5127
20015SOL    HW161486   3.133   0.819   1.265  0.1382  1.0040 -0.0104
20015SOL    HW261487   3.035   0.812   1.381  0.5014 -0.3416  0.2260
20016SOL     OW61488   1.195   2.446   9.800  0.2468  0.4391 -0.5024
20016SOL    HW161489   1.283   2.408   9.795  0.5038  1.0485 -0.7922
20016SOL    HW261490   1.174   2.468   9.709 -0.1824  0.3443 -0.4251
20017SOL     OW61491   1.150   1.485   4.268 -0.5363  0.0620  0.1614
20017SOL    HW161492   1.118   1.409   4.316 -1.3995  0.0759 -0.3661
20017SOL    HW261493   1.075   1.545   4.265 -0.5107  0.0479 -1.2184
20018SOL     OW61494   3.479   7.214   3.245  0.0308  0.0944  0.2931
20018SOL    HW161495   3.544   7.234   3.178 -0.4635  0.0787 -0.1995
20018SOL    HW261496   3.525   7.159   3.308  0.5515  0.2656  0.0649
20019SOL     OW61497   1.458   7.545   2.185  0.1846 -0.5901  0.1766
20019SOL    HW161498   1.406   7.614   2.146 -1.1267 -0.7473  1.5342
20019SOL    HW261499   1.539   7.544   2.135 -1.1805 -0.5025 -2.2124
20020SOL     OW61500   2.787   6.109   7.446 -0.0602  0.4913 -0.6293
20020SOL    HW161501   2.783   6.198   7.478  0.2115  0.4087 -0.3727
20020SOL    HW261502   2.744   6.057   7.514  1.1129  0.2270 -0.0762
20021SOL     OW61503   3.583   2.130   1.277 -0.1334 -0.2700 -0.3160
20021SOL    HW161504   3.572   2.223   1.297  2.2778 -0.0034  0.0345
20021SOL    HW261505   3.592   2.127   1.182  0.2703 -0.0769 -0.2853
20022SOL     OW61506   2.282   6.066   9.039  0.3390  0.1586 -0.2862
20022SOL    HW161507   2.302   6.135   9.103  0.2763 -0.6273  0.6125
20022SOL    HW261508   2.356   6.006   9.045  0.3076  0.0547 -0.9305
20023SOL     OW61509   0.368   7.472   1.697  0.4698 -0.2423 -0.5668
20023SOL    HW161510   0.372   7.519   1.780 -2.4397  0.2902 -0.6209
20023SOL    HW261511   0.344   7.383   1.722  1.2043 -0.5071 -0.7736
20024SOL     OW61512   5.340   4.934   6.068  0.7123 -0.1327  0.2002
20024SOL    HW161513   5.349   4.903   6.159  0.7093  1.1242  0.6508
20024SOL    HW261514   5.362   5.027   6.073  3.2235 -0.5251 -1.5171
20025SOL     OW61515   0.305   0.333   2.182 -0.5408 -0.6521  0.3162
20025SOL    HW161516   0.249   0.393   2.232  0.6913  0.3988  0.4959
20025SOL    HW261517   0.383   0.385   2.162  0.5572 -2.1897  0.4372
20026SOL     OW61518   5.295   4.835   7.969  0.5693  0.3386  0.2659
20026SOL    HW161519   5.308   4.930   7.971 -0.1220  0.4383  2.0421
20026SOL    HW261520   5.228   4.819   8.035  1.6189 -1.5143  0.9636
20027SOL     OW61521   4.810   1.491   8.430  0.2664  0.2548  0.7353
20027SOL    HW161522   4.786   1.532   8.514 -3.0403  0.5834 -0.2160
20027SOL    HW261523   4.822   1.399   8.451 -0.7891  0.2898  1.5598
20028SOL     OW61524   4.004   7.072   7.469  0.6956 -0.1367 -0.3900
20028SOL    HW161525   4.002   7.135   7.398  0.1374 -0.7084 -0.8976
20028SOL    HW261526   3.932   7.012   7.450  0.6010 -0.3596  0.6001
20029SOL     OW61527   1.822   4.337  11.014  0.0266 -0.1772 -0.4888
20029SOL    HW161528   1.878   4.270  10.976 -0.8276 -0.2788 -1.6387
20029SOL    HW261529   1.872   4.418  11.006  0.0299 -0.2656 -1.5256
20030SOL     OW61530   2.629   3.457  12.290 -0.1934 -0.1691 -0.1481
20030SOL    HW161531   2.553   3.475  12.235  0.3266  0.4572 -0.6861
20030SOL    HW261532   2.677   3.389  12.244  0.8001  1.1007 -1.0484
20031SOL     OW61533   2.074   2.286  10.026 -0.1413  0.3799  0.8033
20031SOL    HW161534   2.153   2.247  10.063 -0.6842 -0.7613  0.7910
20031SOL    HW261535   2.106   2.363   9.978  1.0218 -0.3307  0.3825
20032SOL     OW61536   0.039   2.111   9.801  0.2654  0.6680 -0.3345
20032SOL    HW161537   0.051   2.155   9.717 -0.0913  1.2881 -0.0670
20032SOL    HW261538   0.112   2.143   9.855  0.0724  0.8349 -0.1751
20033SOL     OW61539   7.820   7.476   8.352 -0.3667 -0.1629  0.2304
20033SOL    HW161540   7.776   7.395   8.376  0.1870 -0.2794  0.8848
20033SOL    HW261541   7.785   7.498   8.266  0.5328 -1.8892 -0.6269
20034SOL     OW61542   3.510   6.218   4.701  0.2216  0.0915 -0.1508
20034SOL    HW161543   3.433   6.162   4.691 -0.3312  0.8569 -0.2433
20034SOL    HW261544   3.584   6.158   4.693 -0.1610 -0.0858 -4.8331
20035SOL     OW61545   1.657   0.405   3.686  0.0313  0.0413  0.0959
20035SOL    HW161546   1.637   0.496   3.661  2.7950  1.0196  1.0900
20035SOL    HW261547   1.726   0.379   3.625 -1.9679 -2.1725 -1.4028
20036SOL     OW61548   0.114   0.666   0.851  0.5882 -0.2307  0.1927
20036SOL    HW161549   0.111   0.642   0.943  1.6188  1.4595  0.7202
20036SOL    HW261550   0.028   0.706   0.834 -0.0480 -1.5950  0.0691
20037SOL     OW61551   0.004   3.850   1.155  0.3497  0.0939 -0.4765
20037SOL    HW161552  -0.043   3.904   1.218  1.0863  1.8568 -1.3718
20037SOL    HW261553  -0.058   3.835   1.084  0.1892 -0.1388 -0.2889
20038SOL     OW61554   0.494   7.435   9.071 -0.6821  0.8951  0.3083
20038SOL    HW161555   0.403   7.428   9.041 -0.2385  0.0480 -0.9094
20038SOL    HW261556   0.546   7.395   9.001  0.4647 -0.7013  1.9753
20039SOL     OW61557   0.880   1.791   9.606  0.3745 -0.0143 -0.4122
20039SOL    HW161558   0.945   1.721   9.606 -0.0569 -0.4197  0.1654
20039SOL    HW261559   0.837   1.785   9.521  0.3981 -0.3970 -0.3961
20040SOL     OW61560   0.808   0.473   4.610  0.0203 -0.0055 -0.8029
20040SOL    HW161561   0.730   0.464   4.557  0.3873  0.9241 -1.5305
20040SOL    HW261562   0.880   0.480   4.547  0.7641 -1.2972 -0.1508
20041SOL     OW61563   4.397   5.826   6.936  0.5347 -0.4337 -0.3875
20041SOL    HW161564   4.325   5.888   6.933  0.9426  0.1779  1.1640
20041SOL    HW261565   4.356   5.741   6.921 -0.3823 -0.0157 -0.3150
20042SOL     OW61566   4.520   2.547   5.704  0.3555 -0.1378 -0.2811
20042SOL    HW161567   4.535   2.473   5.645  0.3303  0.0992 -0.5873
20042SOL    HW261568   4.496   2.619   5.646 -1.7381 -0.4217  0.1354
20043SOL     OW61569   3.986   0.559   8.250  0.0384  0.2845 -0.2732
20043SOL    HW161570   3.962   0.469   8.272 -0.0463  0.4170  0.1882
20043SOL    HW261571   3.909   0.594   8.206  0.0574  0.1434 -0.4199
20044SOL     OW61572   1.113   3.407   8.991 -0.4814  0.0774 -0.1827
20044SOL    HW161573   1.105   3.312   8.981 -0.4653  0.0982 -0.3956
20044SOL    HW261574   1.030   3.442   8.957 -0.7135  0.1088  0.3937
20045SOL     OW61575   6.807   4.569   2.169 -0.3410  0.4206 -0.1742
20045SOL    HW161576   6.768   4.513   2.236  0.3120 -0.4697 -0.5115
20045SOL    HW261577   6.771   4.537   2.086  0.5846  0.0060 -0.4321
20046SOL     OW61578   7.634   7.105   5.195 -0.4905  0.0296 -0.2666
20046SOL    HW161579   7.588   7.144   5.269  0.5331 -1.5183  1.2449
20046SOL    HW261580   7.588   7.022   5.179  0.6229 -0.6692  0.0696
20047SOL     OW61581   1.808   4.094   1.987  0.4434  0.0879  0.4762
20047SOL    HW161582   1.765   4.009   1.995  0.4250  0.0037 -0.4010
20047SOL    HW261583   1.737   4.156   1.975  0.5074  0.0960  0.1343
20048SOL     OW61584   1.614   4.577   8.759 -0.2155  0.7098  0.6442
20048SOL    HW161585   1.594   4.485   8.772 -0.1583  0.3098 -1.6540
20048SOL    HW261586   1.538   4.612   8.712  0.2423  1.5569  0.5092
20049SOL     OW61587   5.650   7.811   8.074 -0.4388 -0.1846  0.5095
20049SOL    HW161588   5.718   7.831   8.011  0.5017 -0.5781  1.3716
20049SOL    HW261589   5.654   7.716   8.085 -1.7883 -0.3384 -0.1520
20050SOL     OW61590   2.390   6.625  12.421 -0.3017  0.6385  0.0365
20050SOL    HW161591   2.313   6.572  12.440 -0.1950  0.3871 -0.2314
20050SOL    HW261592   2.400   6.622  12.326  0.3767  0.1899  0.1103
20051SOL     OW61593   4.701   0.028   3.846 -0.2512  0.0966  0.2410
20051SOL    HW161594   4.713   0.123   3.851  1.1916  0.2663 -3.5251
20051SOL    HW261595   4.781  -0.005   3.807 -1.5343 -2.4103 -0.5188
20052SOL     OW61596   7.703   2.807   4.546  0.1362  0.1399  0.0200
20052SOL    HW161597   7.686   2.724   4.590 -1.7267  0.6317  0.3128
20052SOL    HW261598   7.741   2.783   4.461  0.3984 -0.9559  0.4383
20053SOL     OW61599   4.612   7.857   6.791 -0.5254 -0.0578  0.0611
20053SOL    HW161600   4.602   7.805   6.712  1.7319  1.0586 -1.0436
20053SOL    HW261601   4.680   7.812   6.841 -0.5773  0.2863  0.4493
20054SOL     OW61602   3.299   5.399   0.643 -0.9717 -0.4097 -0.1096
20054SOL    HW161603   3.386   5.437   0.651 -0.2082 -2.3257  1.7063
20054SOL    HW261604   3.242   5.458   0.692  0.0526 -1.1480  2.0759
20055SOL     OW61605   6.027   0.539   4.587  0.1266  0.3438  0.0789
20055SOL    HW161606   6.075   0.469   4.543  1.4451  0.2569  1.5806
20055SOL    HW261607   6.092   0.584   4.640 -1.1296  1.3242  0.8584
20056SOL     OW61608   2.620   0.500  10.449 -0.0285 -0.1111 -0.3571
20056SOL    HW161609   2.639   0.569  10.386 -0.8356 -0.5738 -1.1310
20056SOL    HW261610   2.705   0.462  10.470  0.3165  0.4967 -0.6433
20057SOL     OW61611   5.796   6.023  10.075  0.5898  0.2678  0.0999
20057SOL    HW161612   5.864   5.957  10.078  0.5027 -0.2404 -3.9585
20057SOL    HW261613   5.833   6.095  10.024 -1.2522  0.7881 -0.6016
20058SOL     OW61614   2.544   3.810  12.425  0.2436  0.2301 -0.2212
20058SOL    HW161615   2.487   3.813  12.347  0.6475  0.1060 -0.5251
20058SOL    HW261616   2.576   3.900  12.435 -0.1359  0.3386  0.0522
20059SOL     OW61617   4.088   7.297   2.909 -0.6640 -0.6405 -0.1318
20059SOL    HW161618   4.047   7.216   2.878 -0.6713 -0.3074 -1.0331
20059SOL    HW261619   4.032   7.367   2.875 -1.0898 -0.2685  1.2937
20060SOL     OW61620   3.724   1.244   7.796  0.2850  0.3020 -0.4933
20060SOL    HW161621   3.702   1.258   7.704 -2.7250 -2.4148 -0.3422
20060SOL    HW261622   3.799   1.185   7.795  2.0738  2.4223 -1.0575
20061SOL     OW61623   0.792   4.414   1.284 -0.0562  0.0904 -0.4902
20061SOL    HW161624   0.711   4.442   1.240  0.3785  1.4916 -0.4588
20061SOL    HW261625   0.835   4.496   1.308  0.4352 -0.6437  1.2626
20062SOL     OW61626   7.396   4.049   4.210 -0.3704  0.6339 -0.1281
20062SOL    HW161627   7.377   3.990   4.136  1.8221 -0.6029  0.2060
20062SOL    HW261628   7.486   4.079   4.194 -0.5391  1.8596  1.0704
20063SOL     OW61629   5.277   6.228   0.424  0.2392 -0.1070  0.0050
20063SOL    HW161630   5.224   6.272   0.491  0.5377  1.5375 -0.7941
20063SOL    HW261631   5.264   6.281   0.345  2.6605  0.0441 -0.3557
20064SOL     OW61632   7.602   7.107   2.336  0.5117  0.0941 -0.0712
20064SOL    HW161633   7.534   7.152   2.286  1.7587  2.2083  0.0150
20064SOL    HW261634   7.620   7.027   2.287  0.3582  1.1695 -1.9798
20065SOL     OW61635   1.829   1.750   8.178  0.1772  0.1283  0.3608
20065SOL    HW161636   1.862   1.672   8.134 -0.5651  0.7291 -1.3573
20065SOL    HW261637   1.850   1.736   8.270  1.9216 -1.1372 -0.1736
20066SOL     OW61638   5.746   1.836   5.829  0.0775  0.2177 -0.2794
20066SOL    HW161639   5.690   1.853   5.904  0.8490 -0.5053  0.4755
20066SOL    HW261640   5.696   1.868   5.754 -0.6394  1.0980  0.5470
20067SOL     OW61641   4.360   2.755   1.480  0.1646 -0.3724 -0.1530
20067SOL    HW161642   4.450   2.781   1.458 -0.2892  0.3796 -1.1934
20067SOL    HW261643   4.311   2.766   1.399 -0.8397 -0.9760  0.3467
20068SOL     OW61644   5.655   7.618   5.973 -0.1637 -0.1233 -0.3580
20068SOL    HW161645   5.578   7.615   6.029 -0.8349 -2.1262 -1.2891
20068SOL    HW261646   5.690   7.707   5.985 -1.3231  0.1110  1.7502
20069SOL     OW61647   1.412   5.947  10.275  0.4286 -0.4602 -0.2083
20069SOL    HW161648   1.328   5.988  10.294  0.4528 -0.7691  0.6243
20069SOL    HW261649   1.390   5.871  10.222  0.2942  0.0900 -0.9470
20070SOL     OW61650   2.357   3.996   0.715  0.2826 -0.2589 -0.4286
20070SOL    HW161651   2.403   4.068   0.758 -1.5075  0.6813  0.0332
20070SOL    HW261652   2.299   3.961   0.783  0.7278 -1.8160 -0.8023
20071SOL     OW61653   7.031   7.755   1.325  0.6455  0.7865 -0.0846
20071SOL    HW161654   7.108   7.769   1.270  0.6043  0.1898 -0.2987
20071SOL    HW261655   6.960   7.798   1.278  0.8505  1.4055  0.1505
20072SOL     OW61656   1.082   7.803  10.610  0.2707 -0.0221  0.0939
20072SOL    HW161657   1.011   7.839  10.557 -0.3144 -0.9289  0.2416
20072SOL    HW261658   1.162   7.838  10.569 -0.2452  1.2354  0.1011
20073SOL     OW61659   0.401   0.175   8.851  0.0736  0.8770 -0.3671
20073SOL    HW161660   0.355   0.239   8.906  0.3499  0.4169  0.4241
20073SOL    HW261661   0.332   0.122   8.811 -0.1265  1.1151 -0.3387
20074SOL     OW61662   6.645   0.278   1.589 -0.4586  0.6629  0.1558
20074SOL    HW161663   6.643   0.306   1.497  0.9351  1.1303  0.2444
20074SOL    HW261664   6.692   0.348   1.634  1.1248 -0.7279  0.7776
20075SOL     OW61665   7.956   4.428   4.980 -0.0374  0.4458  0.7600
20075SOL    HW161666   7.950   4.496   4.913 -3.4383  1.5322  1.9081
20075SOL    HW261667   7.893   4.361   4.951  0.6839 -0.5382  1.4085
20076SOL     OW61668   2.463   4.139   9.894  0.6518  0.2746 -0.0294
20076SOL    HW161669   2.552   4.135   9.931  0.5444  0.6583  0.2726
20076SOL    HW261670   2.473   4.109   9.804  0.9309 -0.6430  0.2873
20077SOL     OW61671   2.291   6.281   1.362 -0.4217  0.4972  0.0704
20077SOL    HW161672   2.344   6.207   1.334 -0.9715 -0.0556  0.4837
20077SOL    HW261673   2.350   6.356   1.355  0.5019 -0.1410  0.7575
20078SOL     OW61674   3.262   6.807   0.099 -0.4397 -0.1670  0.2328
20078SOL    HW161675   3.241   6.818   0.192  0.7769 -0.6896  0.5955
20078SOL    HW261676   3.351   6.771   0.099 -0.3457  0.0180 -1.1455
20079SOL     OW61677   5.756   0.543   1.075  0.1389  0.5544  0.5117
20079SOL    HW161678   5.788   0.513   1.160 -1.1833 -0.3834  0.7246
20079SOL    HW261679   5.799   0.627   1.061  0.2981  0.7933  2.1787
20080SOL     OW61680   6.301   6.102   6.611  0.4395 -0.2975 -0.0231
20080SOL    HW161681   6.266   6.187   6.583  2.2754  0.4817 -0.1089
20080SOL    HW261682   6.235   6.068   6.671  0.5764  2.2009  1.7240
20081SOL     OW61683   0.235   4.288   2.294 -0.0214 -0.7263  0.6160
20081SOL    HW161684   0.279   4.307   2.377 -0.6661  1.7787  0.4607
20081SOL    HW261685   0.224   4.373   2.252 -2.5799 -1.5390 -0.5739
20082SOL     OW61686   4.908   4.919   4.376  0.5759  0.2750 -0.1942
20082SOL    HW161687   4.905   4.873   4.460 -0.3186 -1.2011 -0.9846
20082SOL    HW261688   4.985   4.883   4.331  1.1186  1.1423  0.0071
20083SOL     OW61689   0.430   4.638  11.503  0.2834 -0.3298  0.4751
20083SOL    HW161690   0.502   4.634  11.566 -0.8390  1.2688  1.9404
20083SOL    HW261691   0.442   4.721  11.457  0.9357 -1.3506 -1.3165
20084SOL     OW61692   1.199   5.371  12.017  0.4451 -0.1779  0.1130
20084SOL    HW161693   1.219   5.349  11.926 -0.1117  1.2791 -0.3968
20084SOL    HW261694   1.207   5.289  12.065 -0.3073 -1.1817 -1.4378
20085SOL     OW61695   1.039   5.060   9.533 -0.4731 -0.0066  0.2477
20085SOL    HW161696   1.009   5.081   9.445  1.1287 -0.5945 -0.4841
20085SOL    HW261697   1.133   5.078   9.530 -0.4314  0.1733  1.9123
20086SOL     OW61698   0.149   3.999   8.249  0.4310  0.1664  0.6843
20086SOL    HW161699   0.218   4.060   8.223  1.9192 -0.4722  2.8234
20086SOL    HW261700   0.081   4.054   8.286  0.0104  0.7577 -0.8638
20087SOL     OW61701   4.501   0.106   6.823 -0.0976  0.3924  0.2434
20087SOL    HW161702   4.413   0.072   6.836 -1.2116  3.0208  0.1288
20087SOL    HW261703   4.553   0.030   6.796 -1.8851 -1.5817  2.0034
20088SOL     OW61704   0.600   6.898   2.733 -0.2525  0.3337 -0.5780
20088SOL    HW161705   0.591   6.881   2.827  1.5576  0.3126 -0.3773
20088SOL    HW261706   0.673   6.842   2.706  0.4586  1.7114 -1.6078
20089SOL     OW61707   7.603   7.018   5.563  0.0577 -0.0699 -0.0331
20089SOL    HW161708   7.600   6.960   5.639  1.9391 -2.1765 -1.4491
20089SOL    HW261709   7.696   7.034   5.548 -0.3415  3.4597  0.2835
20090SOL     OW61710   6.460   3.168  12.206 -0.2330  0.4711 -0.1949
20090SOL    HW161711   6.380   3.128  12.170  0.3810 -1.6084  0.6135
20090SOL    HW261712   6.494   3.221  12.134 -1.2545 -0.2436 -1.2447
20091SOL     OW61713   2.067   5.244   9.382  0.1796  0.6826  0.0279
20091SOL    HW161714   2.059   5.311   9.314 -2.3973 -0.1324 -0.5912
20091SOL    HW261715   2.040   5.163   9.340  1.0476 -0.3623  1.3657
20092SOL     OW61716   3.341   4.326   6.407 -0.4664 -0.1595 -0.4725
20092SOL    HW161717   3.405   4.348   6.339  1.0427  0.2643  1.0104
20092SOL    HW261718   3.265   4.381   6.387  1.2668  2.6748  0.1547
20093SOL     OW61719   1.212   0.374   3.602 -0.1154 -0.1733 -0.1275
20093SOL    HW161720   1.243   0.389   3.691 -0.6488  2.2146 -0.2811
20093SOL    HW261721   1.131   0.424   3.596 -0.5985 -1.0834 -1.6727
20094SOL     OW61722   1.131   5.843   3.286 -0.3497 -0.1005 -0.1435
20094SOL    HW161723   1.187   5.800   3.350 -1.9312 -0.2663  1.1755
20094SOL    HW261724   1.142   5.937   3.302 -0.9794 -0.1451  0.6206
20095SOL     OW61725   3.333   6.138   8.589 -0.1059  0.5395 -0.0673
20095SOL    HW161726   3.278   6.118   8.665 -0.9097  0.7824 -0.5694
20095SOL    HW261727   3.410   6.181   8.626  0.7502 -1.6491  0.8445
20096SOL     OW61728   4.568   6.598   2.594  0.2035  0.8150  0.5122
20096SOL    HW161729   4.588   6.654   2.669 -0.4523  0.5713  0.8769
20096SOL    HW261730   4.623   6.521   2.606  0.9374  1.2758  0.1331
20097SOL     OW61731   4.131   7.453   4.840 -0.0880  0.3982 -0.4768
20097SOL    HW161732   4.211   7.407   4.864 -0.3064 -0.2246 -0.9321
20097SOL    HW261733   4.124   7.524   4.904 -0.2601 -0.7644  0.8486
20098SOL     OW61734   2.327   2.205  10.122 -0.4548 -0.3262 -0.0591
20098SOL    HW161735   2.281   2.142  10.177 -0.1710 -0.2589  0.2570
20098SOL    HW261736   2.396   2.240  10.178 -0.0557 -0.3809 -0.5074
20099SOL     OW61737   5.369   6.714   7.697 -0.3698 -0.2720 -0.0238
20099SOL    HW161738   5.301   6.703   7.631 -0.0522  1.0021 -0.6071
20099SOL    HW261739   5.325   6.756   7.771 -0.3792 -0.1292 -0.1097
20100SOL     OW61740   3.199   2.543   0.407 -0.4096  0.7297 -0.2888
20100SOL    HW161741   3.293   2.543   0.424 -0.4533  0.9742 -0.0297
20100SOL    HW261742   3.161   2.499   0.483 -0.4029 -0.6240 -1.0537
20101SOL     OW61743   1.576   2.967   6.285 -0.1447  1.0807 -0.2865
20101SOL    HW161744   1.616   3.009   6.209  1.0736  1.8682  0.7563
20101SOL    HW261745   1.524   3.035   6.326 -0.7129  0.6884 -0.3456
20102SOL     OW61746   0.574   7.130   0.522  0.2726  0.0947  0.7182
20102SOL    HW161747   0.509   7.175   0.577  0.8207  0.6139  0.9466
20102SOL    HW261748   0.529   7.115   0.439  0.5538  2.4867  0.0516
20103SOL     OW61749   1.208   1.154   3.794 -0.4593  0.4570 -0.2741
20103SOL    HW161750   1.212   1.077   3.850 -0.6888  0.6404 -0.0083
20103SOL    HW261751   1.272   1.214   3.831 -0.1452  0.3270 -0.5905
20104SOL     OW61752   5.536   7.104   8.315 -0.0235  0.0376  0.1536
20104SOL    HW161753   5.454   7.107   8.364 -0.5413  1.4869 -0.7297
20104SOL    HW261754   5.583   7.030   8.352 -2.8149 -2.5497 -1.0952
20105SOL     OW61755   0.608   0.310   7.283 -0.5099  0.0210 -0.2776
20105SOL    HW161756   0.658   0.348   7.211 -0.6510  0.2822 -0.2388
20105SOL    HW261757   0.530   0.366   7.291 -1.7437 -1.4140 -1.5223
20106SOL     OW61758   1.891   5.374   4.034 -0.6014  0.3662 -0.1018
20106SOL    HW161759   1.901   5.279   4.044  0.5064  0.4629 -0.2059
20106SOL    HW261760   1.972   5.402   3.991 -0.5876  1.4584  0.6103
20107SOL     OW61761   0.476   2.333   7.071 -0.3983 -0.8281 -0.2594
20107SOL    HW161762   0.444   2.309   7.158 -0.7639 -0.2423 -0.2274
20107SOL    HW261763   0.453   2.425   7.061  1.9896 -0.1213  0.0813
20108SOL     OW61764   0.326   6.678   1.493 -0.0973  0.3380 -0.3428
20108SOL    HW161765   0.360   6.681   1.404 -0.3990 -0.6614 -0.5102
20108SOL    HW261766   0.387   6.730   1.544  1.8294 -1.5369 -0.5928
20109SOL     OW61767   5.912   3.577   6.114 -0.3470 -0.0679  0.0514
20109SOL    HW161768   5.880   3.523   6.042  1.0386 -2.1341  0.8862
20109SOL    HW261769   5.843   3.643   6.127 -0.8966  0.0115 -2.7158
20110SOL     OW61770   4.951   3.641   5.506 -0.3510  0.4401 -0.0140
20110SOL    HW161771   4.904   3.657   5.424  0.3237  1.4235 -0.2247
20110SOL    HW261772   4.909   3.698   5.570 -0.1343  0.5306  0.0494
20111SOL     OW61773   1.152   7.241  12.003 -0.4766  0.3094 -0.6663
20111SOL    HW161774   1.220   7.208  11.944 -0.9087 -0.3827 -0.7874
20111SOL    HW261775   1.070   7.211  11.964 -0.7105 -3.2357  2.0176
20112SOL     OW61776   7.964   6.690   8.911  0.5245  0.1854 -0.1952
20112SOL    HW161777   7.870   6.709   8.909 -0.1893 -2.8476  0.4247
20112SOL    HW261778   8.001   6.761   8.964 -1.7218  0.4574  1.1406
20113SOL     OW61779   7.730   1.760   6.923 -0.3135  0.4067 -0.1043
20113SOL    HW161780   7.814   1.764   6.876  0.0743  0.7666  0.6015
20113SOL    HW261781   7.664   1.757   6.854  0.3284 -1.3513 -0.6891
20114SOL     OW61782   3.619   2.207  10.253  0.1991  0.3242  0.3242
20114SOL    HW161783   3.681   2.135  10.237 -0.3281 -0.2648  0.8588
20114SOL    HW261784   3.663   2.261  10.319 -0.0654 -0.3787  1.0906
20115SOL     OW61785   1.887   4.243  11.671 -0.8543 -0.0815 -0.2538
20115SOL    HW161786   1.829   4.268  11.743 -0.7429 -1.1218  0.2084
20115SOL    HW261787   1.832   4.189  11.614 -1.3561  1.8468 -1.7208
20116SOL     OW61788   4.597   4.934   0.429 -0.6824  0.3630 -0.1167
20116SOL    HW161789   4.529   4.867   0.432 -0.2780 -0.0288  1.4440
20116SOL    HW261790   4.676   4.887   0.403 -0.4743  0.2771  0.6337
20117SOL     OW61791   6.201   5.040   9.844 -0.3284 -0.6336  0.2167
20117SOL    HW161792   6.139   5.077   9.908 -1.3073 -1.1564 -0.3988
20117SOL    HW261793   6.287   5.065   9.877 -0.8876  0.9115  0.6103
20118SOL     OW61794   0.357   5.636   7.820 -0.4758 -0.4957 -0.1256
20118SOL    HW161795   0.350   5.731   7.809  1.3161 -0.3970 -0.8463
20118SOL    HW261796   0.293   5.614   7.888 -0.7227  1.2624  0.2505
20119SOL     OW61797   2.734   5.725   5.825  0.0864 -0.2267  0.2971
20119SOL    HW161798   2.661   5.779   5.853  1.6982  2.4979 -0.3617
20119SOL    HW261799   2.717   5.706   5.733  0.3213  0.6572  0.0645
20120SOL     OW61800   4.844   0.865   5.998  0.3188  0.7037  0.3158
20120SOL    HW161801   4.757   0.847   5.963  0.3630  2.1457 -0.6118
20120SOL    HW261802   4.828   0.908   6.082  0.2077 -2.2852  1.9333
20121SOL     OW61803   7.004   1.107  10.658 -0.1710 -0.1567 -0.3494
20121SOL    HW161804   7.059   1.164  10.713 -1.0722 -0.2187  0.6448
20121SOL    HW261805   6.992   1.157  10.577  0.2867  0.4208 -0.0719
20122SOL     OW61806   7.665   7.856   7.071  0.3631 -0.2318 -0.3515
20122SOL    HW161807   7.709   7.932   7.032  2.2919 -1.3689 -0.5122
20122SOL    HW261808   7.681   7.863   7.165  0.7569 -0.5601 -0.3917
20123SOL     OW61809   5.602   1.346  11.857 -0.1261 -0.5596  0.1688
20123SOL    HW161810   5.634   1.436  11.846 -0.2192 -0.6411 -0.8247
20123SOL    HW261811   5.648   1.295  11.791  0.1742 -1.3192  0.9455
20124SOL     OW61812   3.790   0.262   8.801  0.0339 -0.4349  0.2906
20124SOL    HW161813   3.818   0.353   8.794 -1.2018 -0.0748 -0.3096
20124SOL    HW261814   3.832   0.230   8.881  1.6139  0.2271 -0.2258
20125SOL     OW61815   1.721   5.293   0.687  0.2688  0.4281  0.5182
20125SOL    HW161816   1.684   5.285   0.775 -0.3019 -0.1798  0.2243
20125SOL    HW261817   1.735   5.203   0.658 -0.2555  0.6012 -0.3057
20126SOL     OW61818   7.551   3.610  11.912 -1.3532  0.0909 -0.2857
20126SOL    HW161819   7.583   3.675  11.850 -2.6347 -0.1108 -1.2096
20126SOL    HW261820   7.565   3.526  11.868  0.3811 -0.3032  0.9372
20127SOL     OW61821   7.109   3.641   3.080 -0.5011  0.2283  0.1388
20127SOL    HW161822   7.090   3.559   3.034 -0.7817 -0.2368  1.0457
20127SOL    HW261823   7.054   3.707   3.036 -0.3735 -0.0952 -0.5115
20128SOL     OW61824   2.641   7.554   4.098 -0.6074 -0.1393  0.6078
20128SOL    HW161825   2.734   7.568   4.083 -0.8483 -0.0594 -0.9615
20128SOL    HW261826   2.621   7.472   4.052 -1.7690  1.0604 -1.1405
20129SOL     OW61827   3.836   4.661   0.817  0.1240 -0.2210  0.2266
20129SOL    HW161828   3.783   4.734   0.785 -0.2472  0.1569  1.6118
20129SOL    HW261829   3.826   4.593   0.751 -0.0990  0.7250 -0.7430
20130SOL     OW61830   5.081   6.528   8.124  0.1824  0.0088  0.1517
20130SOL    HW161831   5.052   6.608   8.167  2.2042  0.7635  0.1935
20130SOL    HW261832   5.031   6.458   8.167  0.4164  0.9679  2.0797
20131SOL     OW61833   3.925   7.262   1.182  0.4850  0.5070  0.3734
20131SOL    HW161834   3.897   7.315   1.107 -1.1263 -2.0074 -0.9847
20131SOL    HW261835   4.007   7.222   1.153  0.4543  0.4159  0.4119
20132SOL     OW61836   2.392   7.321   4.184 -0.2843 -0.0860 -0.1991
20132SOL    HW161837   2.333   7.394   4.166  1.1052  1.4094  1.0103
20132SOL    HW261838   2.356   7.279   4.262  0.0864  0.6918  0.4080
20133SOL     OW61839   0.996   4.948   1.703  0.5505  0.2202  0.7129
20133SOL    HW161840   1.011   4.854   1.706 -2.7926 -0.5937 -2.2577
20133SOL    HW261841   0.936   4.965   1.776 -0.3798 -0.3423  0.0884
20134SOL     OW61842   5.938   5.886   9.841  0.0674 -0.0523  0.2922
20134SOL    HW161843   5.927   5.909   9.749  0.1995 -0.8815  0.0553
20134SOL    HW261844   6.033   5.885   9.854  0.0371  0.7492  0.6297
20135SOL     OW61845   3.644   4.337   6.682 -0.3193  0.0726  0.7195
20135SOL    HW161846   3.600   4.386   6.613  0.4283 -0.3339 -0.0625
20135SOL    HW261847   3.737   4.360   6.672  0.1654 -2.0135 -0.1350
20136SOL     OW61848   7.320   2.334   7.427  0.4668 -0.3348  0.0947
20136SOL    HW161849   7.267   2.339   7.347  1.4457 -0.5804 -0.5954
20136SOL    HW261850   7.297   2.250   7.466  1.1561 -0.9712 -0.8132
20137SOL     OW61851   2.395   5.093  12.054 -0.4992 -0.3477 -0.1030
20137SOL    HW161852   2.374   5.130  12.139 -1.8901  1.4856 -1.1887
20137SOL    HW261853   2.346   5.011  12.051  0.6328 -1.1393  1.3342
20138SOL     OW61854   2.733   3.403   4.312 -0.0234 -0.1182  0.6506
20138SOL    HW161855   2.738   3.354   4.230 -1.7600  0.4421  0.1698
20138SOL    HW261856   2.813   3.456   4.313  0.4146 -0.7358 -0.2770
20139SOL     OW61857   0.444   0.735  11.800  0.3514  0.0788 -0.1550
20139SOL    HW161858   0.379   0.709  11.734 -0.4395 -0.2701  0.7410
20139SOL    HW261859   0.444   0.831  11.796 -1.1323  0.1510  0.6529
20140SOL     OW61860   5.284   3.552  11.531 -0.6008  0.1059 -0.2146
20140SOL    HW161861   5.222   3.545  11.603 -1.1004 -1.5177 -0.7581
20140SOL    HW261862   5.254   3.627  11.480 -1.3287  0.1429  0.2621
20141SOL     OW61863   0.394   4.602   4.152 -0.0933 -0.6991 -0.4335
20141SOL    HW161864   0.433   4.551   4.223 -1.2880 -1.4387 -0.2963
20141SOL    HW261865   0.423   4.558   4.072 -1.2958 -1.7406 -0.3095
20142SOL     OW61866   2.533   5.652   8.742  0.3570  0.1178 -0.0274
20142SOL    HW161867   2.453   5.703   8.751 -1.2674 -2.2528 -0.2929
20142SOL    HW261868   2.603   5.718   8.740 -1.4251  2.1917  1.5164
20143SOL     OW61869   5.454   5.130   2.435  0.4547 -0.0938  0.2012
20143SOL    HW161870   5.454   5.051   2.381  0.9852 -0.6241  0.9540
20143SOL    HW261871   5.546   5.141   2.461  0.0397 -0.5414  1.9606
20144SOL     OW61872   6.643   5.223   6.502  0.2582  0.4951 -0.1730
20144SOL    HW161873   6.598   5.153   6.454 -0.4025  0.3004  0.7025
20144SOL    HW261874   6.688   5.273   6.434  0.2089 -0.3916 -0.8862
20145SOL     OW61875   2.258   2.664   9.253  0.0644  0.1293  0.4410
20145SOL    HW161876   2.162   2.670   9.254  0.0712  0.5609 -0.3445
20145SOL    HW261877   2.287   2.749   9.287  0.1863 -0.8545  2.9465
20146SOL     OW61878   3.226   5.741   9.589  0.6089  0.0134  0.0456
20146SOL    HW161879   3.168   5.701   9.525  2.2060 -2.3122 -0.0517
20146SOL    HW261880   3.175   5.742   9.671 -0.7379  1.2324 -0.7544
20147SOL     OW61881   6.299   7.133   1.280 -0.3198  0.0101 -0.1161
20147SOL    HW161882   6.274   7.163   1.193  1.6884  0.3338 -0.6278
20147SOL    HW261883   6.390   7.105   1.271  0.1450  0.6091  1.9900
20148SOL     OW61884   1.657   3.621   8.106  1.1812 -0.7694 -0.0003
20148SOL    HW161885   1.732   3.676   8.082  0.7571  0.7863  1.9179
20148SOL    HW261886   1.684   3.532   8.085  1.7655  0.1005 -3.6297
20149SOL     OW61887   2.024   5.916   8.703 -0.2100 -0.0772 -0.0550
20149SOL    HW161888   2.028   5.821   8.689 -0.5787  0.0792 -1.2834
20149SOL    HW261889   2.044   5.926   8.796 -3.0711 -1.5788  0.8415
20150SOL     OW61890   1.048   4.655   0.640 -0.4103 -0.3282  0.1749
20150SOL    HW161891   1.122   4.638   0.581 -1.0518  1.9575 -1.4457
20150SOL    HW261892   1.088   4.694   0.718  0.2308 -0.9459  0.1651
20151SOL     OW61893   0.522   5.169   3.915 -0.1575 -0.3397  0.3759
20151SOL    HW161894   0.565   5.132   3.838 -0.6255 -1.0243  0.4371
20151SOL    HW261895   0.548   5.261   3.915 -2.2535  0.3915 -2.1190
20152SOL     OW61896   6.380   6.014   5.054 -0.1300  0.3887  0.0982
20152SOL    HW161897   6.298   6.039   5.096 -0.5121 -1.1359  0.3090
20152SOL    HW261898   6.444   6.075   5.089 -1.1975  1.7678 -0.2589
20153SOL     OW61899   7.481   1.907   4.386 -0.3050  0.0720  0.0095
20153SOL    HW161900   7.472   1.830   4.442  0.5740  1.2233  1.8411
20153SOL    HW261901   7.533   1.876   4.311 -0.5685 -1.2680  0.3568
20154SOL     OW61902   2.029   5.231   5.421  0.3939  0.1918  0.2400
20154SOL    HW161903   1.953   5.246   5.476  0.6072  0.5947  0.4327
20154SOL    HW261904   2.078   5.162   5.465 -0.2196 -0.5768 -0.2607
20155SOL     OW61905   6.422   6.358   4.184  0.0791 -0.3590 -0.2933
20155SOL    HW161906   6.481   6.297   4.229  1.3521  0.9033 -0.1695
20155SOL    HW261907   6.370   6.398   4.255  1.5759  1.0931  0.0582
20156SOL     OW61908   3.242   5.308   4.264  0.2959 -0.0174  0.1804
20156SOL    HW161909   3.293   5.298   4.344  1.3285  1.1797 -0.3060
20156SOL    HW261910   3.187   5.229   4.260 -0.7390  0.4874  2.7211
20157SOL     OW61911   1.099   3.687   3.206  0.1068  0.1761  0.0754
20157SOL    HW161912   1.035   3.738   3.155 -0.6877  0.4938  1.3450
20157SOL    HW261913   1.183   3.726   3.183 -0.0147 -0.7414 -2.2130
20158SOL     OW61914   7.588   7.545   1.756 -0.1369  0.6784 -0.9408
20158SOL    HW161915   7.569   7.591   1.674 -0.5388  0.5422 -0.9275
20158SOL    HW261916   7.548   7.599   1.824 -0.9499  0.1237 -0.9619
20159SOL     OW61917   2.570   5.030   5.141 -0.0367 -0.2720 -0.0517
20159SOL    HW161918   2.603   5.000   5.225  0.6231  3.0822  1.0113
20159SOL    HW261919   2.476   5.042   5.156 -0.3728 -1.9411 -0.5910
20160SOL     OW61920   6.039   5.366   3.640 -0.2770  0.0500  0.4353
20160SOL    HW161921   6.067   5.376   3.731 -0.0869  1.6335  0.2295
20160SOL    HW261922   6.030   5.271   3.628  0.3787 -0.2254  1.8860
20161SOL     OW61923   4.462   6.133   4.737  0.2578 -0.0275 -0.2969
20161SOL    HW161924   4.512   6.073   4.792  0.9604  0.6271 -0.2003
20161SOL    HW261925   4.373   6.127   4.770  0.5877  0.0480  0.6634
20162SOL     OW61926   3.979   0.066   0.558 -0.1407 -0.0631 -0.2983
20162SOL    HW161927   4.043  -0.005   0.554 -1.3089 -1.2506  0.8108
20162SOL    HW261928   4.030   0.144   0.580  1.2019 -0.4863 -1.6953
20163SOL     OW61929   4.245   6.141  10.245  0.3733  0.4774  0.0408
20163SOL    HW161930   4.267   6.143  10.338 -1.1379  0.3636  0.4298
20163SOL    HW261931   4.149   6.143  10.243  0.3859  0.9837 -1.5286
20164SOL     OW61932   0.815   0.190   1.690 -0.3420  0.3069  0.3620
20164SOL    HW161933   0.870   0.194   1.768 -0.9199  1.8081  0.7294
20164SOL    HW261934   0.766   0.108   1.699  0.3481 -0.0420  1.0395
20165SOL     OW61935   2.898   7.853   9.918 -0.3956 -0.4033 -0.3702
20165SOL    HW161936   2.846   7.904   9.980 -0.0419  0.4307 -0.7299
20165SOL    HW261937   2.857   7.767   9.916 -0.4461 -0.4323  0.9767
20166SOL     OW61938   0.484   2.164   6.839 -0.0502 -0.2033  0.2374
20166SOL    HW161939   0.521   2.197   6.921  0.5040  0.7947 -0.3994
20166SOL    HW261940   0.427   2.235   6.809 -0.3754 -0.6324 -0.1702
20167SOL     OW61941   1.405   1.871   1.080  0.3821 -0.5124  0.3598
20167SOL    HW161942   1.405   1.960   1.117  1.3266 -0.5595  0.5025
20167SOL    HW261943   1.366   1.817   1.149 -1.9008  0.0275 -0.4174
20168SOL     OW61944   5.521   2.561   9.450  0.2720 -0.3060  0.0234
20168SOL    HW161945   5.504   2.595   9.362  0.1010 -0.0132  0.1671
20168SOL    HW261946   5.595   2.612   9.481  1.0390 -1.1638 -0.3670
20169SOL     OW61947   0.174   3.373  11.206  0.1190 -0.8096 -0.0393
20169SOL    HW161948   0.158   3.412  11.121 -0.8667 -1.5600 -0.2180
20169SOL    HW261949   0.189   3.280  11.188 -1.1339 -1.1799  0.6735
20170SOL     OW61950   0.665   4.499   9.793 -0.0637  0.3024  0.8327
20170SOL    HW161951   0.609   4.574   9.771 -0.6684 -0.0365  1.1712
20170SOL    HW261952   0.748   4.516   9.749 -0.3150  1.0012  0.6259
20171SOL     OW61953   2.372   2.526   9.819  0.8452 -0.0333  0.0340
20171SOL    HW161954   2.298   2.550   9.875  1.1831  0.4236  0.2898
20171SOL    HW261955   2.363   2.581   9.741  0.9158  0.0235  0.0660
20172SOL     OW61956   1.391   5.472   2.886 -0.1144  0.5058  0.1816
20172SOL    HW161957   1.437   5.492   2.805 -1.1665  0.9808 -0.3143
20172SOL    HW261958   1.298   5.489   2.867 -0.5186 -0.4373  1.1421
20173SOL     OW61959   3.204   2.118   3.843  0.4912 -0.0578 -0.4237
20173SOL    HW161960   3.192   2.025   3.824  1.7340 -0.3904  0.2886
20173SOL    HW261961   3.299   2.130   3.848  0.4375  0.2646  3.9242
20174SOL     OW61962   2.601   1.619   2.824 -0.9025 -0.0239  0.1120
20174SOL    HW161963   2.693   1.641   2.813 -0.4934 -0.5010  2.1208
20174SOL    HW261964   2.600   1.556   2.897 -2.9626  1.3730  1.3870
20175SOL     OW61965   2.835   6.330   7.243 -0.4971 -0.7077  0.5907
20175SOL    HW161966   2.927   6.303   7.239 -0.1601  0.4967 -0.8034
20175SOL    HW261967   2.836   6.422   7.215 -2.2630 -1.0568 -0.8272
20176SOL     OW61968   1.001   2.226   5.030  0.2752  0.5387  0.0350
20176SOL    HW161969   1.050   2.247   4.950 -0.1006  1.7826  0.1201
20176SOL    HW261970   0.944   2.153   5.004 -0.0403  1.1061 -0.9192
20177SOL     OW61971   6.845   0.213   3.006 -0.6650  0.0581 -0.2229
20177SOL    HW161972   6.846   0.304   3.036 -2.7270  0.4155 -1.0666
20177SOL    HW261973   6.912   0.210   2.938 -1.5211  1.3646 -1.1800
20178SOL     OW61974   2.711   3.757   2.810 -0.1652  0.1090 -0.3638
20178SOL    HW161975   2.789   3.791   2.766  1.1465  3.1157  3.6314
20178SOL    HW261976   2.638   3.798   2.764  0.7828  0.1174 -1.9651
20179SOL     OW61977   3.227   2.474   6.860  0.1013  0.4715 -0.6645
20179SOL    HW161978   3.264   2.438   6.779  1.6694 -0.6043  0.4736
20179SOL    HW261979   3.292   2.452   6.927 -1.5168  0.6728  1.0202
20180SOL     OW61980   2.403   6.406   6.734 -0.5300 -0.2084  0.2361
20180SOL    HW161981   2.426   6.318   6.765 -2.2569 -0.7354  0.1303
20180SOL    HW261982   2.350   6.390   6.656 -0.2096  0.9684 -0.2409
20181SOL     OW61983   3.996   4.560  11.003  0.1985 -0.1161 -0.1239
20181SOL    HW161984   3.993   4.472  11.041 -0.8538  0.7341  1.9308
20181SOL    HW261985   4.002   4.619  11.079 -0.9380  1.6608 -1.3249
20182SOL     OW61986   0.960   2.013   6.335 -0.3007 -0.4445 -0.4354
20182SOL    HW161987   0.908   1.985   6.410  0.5212 -0.7300  0.0424
20182SOL    HW261988   0.907   2.080   6.292 -0.7120 -0.1712  0.4822
20183SOL     OW61989   7.117   3.338   6.795 -0.2322 -0.1786 -0.1099
20183SOL    HW161990   7.049   3.357   6.860 -0.6795  0.5871 -0.7867
20183SOL    HW261991   7.155   3.424   6.774 -1.7263 -0.0176 -2.6185
20184SOL     OW61992   5.669   4.808  11.342 -0.3815 -0.0067 -0.1452
20184SOL    HW161993   5.606   4.836  11.276  0.3516  0.2873 -0.7316
20184SOL    HW261994   5.654   4.867  11.416 -1.0058 -0.1456 -0.1581
20185SOL     OW61995   1.740   1.786  10.474 -0.2371 -0.2946  0.6563
20185SOL    HW161996   1.826   1.749  10.491 -0.7622 -1.3661  1.0931
20185SOL    HW261997   1.755   1.880  10.467  0.4629  0.0400  4.5553
20186SOL     OW61998   0.041   5.726   8.841  0.3016 -0.0044 -0.4035
20186SOL    HW161999  -0.001   5.640   8.842  0.7427 -0.3112 -2.8675
20186SOL    HW262000   0.134   5.706   8.830  0.4062  0.7811 -0.9735
20187SOL     OW62001   0.589   6.713   9.761 -0.0408  0.1637 -0.4433
20187SOL    HW162002   0.591   6.630   9.712 -0.4580 -0.0746 -0.0723
20187SOL    HW262003   0.507   6.754   9.734 -0.8076 -0.4549  0.8036
20188SOL     OW62004   3.682   6.575   5.819  0.0006 -0.0586  0.2968
20188SOL    HW162005   3.636   6.588   5.736 -1.2633 -0.2948  0.9414
20188SOL    HW262006   3.646   6.494   5.854  2.0921 -1.1389  0.0776
20189SOL     OW62007   3.688   2.021   4.102  0.4201  0.4208 -0.0973
20189SOL    HW162008   3.720   2.085   4.166  1.3909  0.6188 -0.7596
20189SOL    HW262009   3.709   2.059   4.017  0.7383 -0.6375 -0.5057
20190SOL     OW62010   1.577   2.555  10.122 -0.1267  0.4739  0.3791
20190SOL    HW162011   1.502   2.604  10.088 -0.5446 -1.0500 -1.0082
20190SOL    HW262012   1.608   2.607  10.197 -0.5792  2.7909 -0.9522
20191SOL     OW62013   6.623   5.932   9.844  0.5941  0.2445 -0.1780
20191SOL    HW162014   6.595   5.975   9.763 -0.4848 -1.3239 -0.7061
20191SOL    HW262015   6.593   5.989   9.914  1.7659  1.7569 -0.8675
20192SOL     OW62016   1.294   0.921   4.612  0.3436 -0.0481  0.2034
20192SOL    HW162017   1.262   1.001   4.653 -1.4431  0.9524 -2.8337
20192SOL    HW262018   1.223   0.858   4.625  0.9850 -0.6311  1.0195
20193SOL     OW62019   1.899   3.845   8.679  0.0547 -0.4532  0.3888
20193SOL    HW162020   1.973   3.856   8.739  0.7712 -2.5403 -0.0558
20193SOL    HW262021   1.837   3.790   8.727 -1.9288  2.3263  1.2831
20194SOL     OW62022   5.520   0.853  12.251  0.3256 -0.0412  0.1556
20194SOL    HW162023   5.476   0.836  12.334 -0.0507 -0.2593 -0.0865
20194SOL    HW262024   5.612   0.838  12.269  0.5469  2.0456  1.1319
20195SOL     OW62025   2.223   2.887  10.979 -0.3509 -0.1904 -0.2905
20195SOL    HW162026   2.130   2.873  10.964 -0.1598 -1.3678 -0.4463
20195SOL    HW262027   2.243   2.835  11.057  0.0478  0.5915  0.1448
20196SOL     OW62028   4.346   7.866   2.718  0.2946 -0.0325 -0.2609
20196SOL    HW162029   4.329   7.794   2.657 -1.2104  0.4163 -0.4103
20196SOL    HW262030   4.338   7.826   2.804  0.4937 -0.2555 -0.3432
20197SOL     OW62031   7.963   2.694   3.844  0.2082 -0.5242  0.1010
20197SOL    HW162032   7.895   2.740   3.796  0.1264 -1.0436 -0.2921
20197SOL    HW262033   8.000   2.633   3.781 -0.0448 -1.3746  0.7537
20198SOL     OW62034   0.925   2.443   9.899  0.3592  0.2113 -1.0021
20198SOL    HW162035   0.929   2.353   9.933  1.1954  0.8497  0.6734
20198SOL    HW262036   1.004   2.451   9.845 -0.2996 -0.3932 -2.0929
20199SOL     OW62037   6.319   5.704  10.642 -0.2903  0.8121 -0.0209
20199SOL    HW162038   6.390   5.769  10.649 -0.1086  0.5728  0.4290
20199SOL    HW262039   6.280   5.720  10.556  2.9710 -1.7536 -2.2249
20200SOL     OW62040   6.957   7.281   6.267  0.4275 -0.1757  0.6463
20200SOL    HW162041   6.948   7.228   6.187 -0.3127 -2.3676  2.0934
20200SOL    HW262042   7.047   7.315   6.263  0.6359 -0.8169 -0.7788
20201SOL     OW62043   4.585   2.213   0.668  0.2582  0.4176  0.1702
20201SOL    HW162044   4.653   2.187   0.606 -0.1694 -2.8990  0.9195
20201SOL    HW262045   4.503   2.197   0.622 -0.0546 -1.4091  1.2759
20202SOL     OW62046   6.253   5.277   6.827  0.1435  0.1038 -0.4829
20202SOL    HW162047   6.342   5.258   6.799  0.5426  2.2759 -0.8661
20202SOL    HW262048   6.263   5.313   6.915 -0.5331 -1.0626  0.0926
20203SOL     OW62049   0.719   5.897  11.127 -0.3653  0.6582 -0.3893
20203SOL    HW162050   0.723   5.913  11.222 -0.8669  1.9891 -0.5613
20203SOL    HW262051   0.630   5.924  11.102 -0.0693  0.8209 -1.3131
20204SOL     OW62052   2.903   4.979   4.524  0.8009 -0.4060 -0.2349
20204SOL    HW162053   2.938   4.898   4.487 -1.8213 -1.3130 -0.9100
20204SOL    HW262054   2.868   4.954   4.609  1.8079  0.5042  0.4813
20205SOL     OW62055   6.257   2.492  12.232 -0.1360  0.0409  0.1883
20205SOL    HW162056   6.211   2.489  12.148  1.1958  0.9266 -0.6049
20205SOL    HW262057   6.345   2.461  12.212 -0.2036 -1.1828  1.5957
20206SOL     OW62058   5.404   4.573   5.357  0.3791 -0.0073 -0.9740
20206SOL    HW162059   5.368   4.537   5.276  0.8544 -2.0884 -0.3464
20206SOL    HW262060   5.466   4.506   5.386 -1.9075 -0.8355  2.6206
20207SOL     OW62061   3.039   7.128   7.968 -0.1120  0.0380 -0.0647
20207SOL    HW162062   3.119   7.107   8.016  0.9273  0.3434 -1.5906
20207SOL    HW262063   2.994   7.044   7.959 -1.5435  0.2579  3.3469
20208SOL     OW62064   5.248   2.057  10.716 -0.0805 -0.3784  0.0897
20208SOL    HW162065   5.255   2.077  10.809  0.3899 -0.3983  0.0581
20208SOL    HW262066   5.195   1.976  10.713 -2.2825  0.9698  0.1937
20209SOL     OW62067   2.141   0.203   4.023  0.2352 -0.0626 -0.0021
20209SOL    HW162068   2.071   0.183   4.085  0.0959 -1.5571 -0.5804
20209SOL    HW262069   2.095   0.230   3.943  0.3432 -0.1127 -0.0813
20210SOL     OW62070   7.863   3.405   8.167 -0.2339  0.0437  0.4728
20210SOL    HW162071   7.769   3.423   8.163 -0.4988 -0.9794  1.4962
20210SOL    HW262072   7.899   3.480   8.214 -0.6214  0.1683  0.5768
20211SOL     OW62073   2.606   3.149   2.203 -0.2668  0.0166  0.4073
20211SOL    HW162074   2.634   3.237   2.178 -1.3563 -0.1443 -1.6190
20211SOL    HW262075   2.688   3.101   2.217  0.3458  1.1717  0.9336
20212SOL     OW62076   6.914   6.727   1.834  0.6327  0.3580  0.0167
20212SOL    HW162077   6.911   6.715   1.739  0.8381 -2.4739  0.2675
20212SOL    HW262078   6.826   6.757   1.857  0.1873 -0.1051 -0.9734
20213SOL     OW62079   1.974   2.247  10.581  0.3642  0.4709  0.2046
20213SOL    HW162080   2.064   2.228  10.556  0.2323  0.8398 -0.5674
20213SOL    HW262081   1.965   2.209  10.669  1.4595  1.0148  0.5632
20214SOL     OW62082   2.780   7.313   5.959  0.7159  0.0313 -0.1335
20214SOL    HW162083   2.703   7.318   5.902  2.1148  1.9297 -1.9953
20214SOL    HW262084   2.853   7.339   5.903  2.4233  0.4462  2.1495
20215SOL     OW62085   2.750   7.344   6.865  0.4790 -0.7418 -0.5448
20215SOL    HW162086   2.718   7.278   6.803  1.4281 -1.9197  0.1783
20215SOL    HW262087   2.705   7.425   6.839 -1.3082 -1.8182 -0.9710
20216SOL     OW62088   0.732   6.934   1.737  0.4748  0.0303 -0.1797
20216SOL    HW162089   0.698   6.980   1.813 -0.2194  2.0570 -1.6228
20216SOL    HW262090   0.813   6.979   1.715  0.4057 -0.1975 -0.9354
20217SOL     OW62091   1.074   7.279   9.888 -0.0343  0.4907 -0.3887
20217SOL    HW162092   1.054   7.357   9.939  0.4952  1.1259 -1.1165
20217SOL    HW262093   1.038   7.206   9.939  1.6032  0.9413  1.5575
20218SOL     OW62094   1.861   2.509   5.344  0.2460 -0.4317  0.1084
20218SOL    HW162095   1.866   2.596   5.384  1.8995  0.0892 -1.1281
20218SOL    HW262096   1.938   2.463   5.376 -0.7224 -1.5581  0.9122
20219SOL     OW62097   1.440   7.084   6.564 -0.2452 -0.6304 -0.5544
20219SOL    HW162098   1.352   7.116   6.584 -0.0149 -0.7991  0.8680
20219SOL    HW262099   1.425   6.997   6.526 -0.6869 -1.3967  1.2308
20220SOL     OW62100   7.978   6.505   2.074 -0.6084  0.2720 -0.3335
20220SOL    HW162101   7.969   6.510   1.978 -0.6834  0.5151 -0.3153
20220SOL    HW262102   7.889   6.494   2.106 -0.5231 -0.4412 -0.3237
20221SOL     OW62103   4.312   6.123   0.994 -0.5140 -0.2659 -0.7018
20221SOL    HW162104   4.226   6.144   1.032  0.1438  1.2431  0.0512
20221SOL    HW262105   4.296   6.046   0.939 -2.2393 -0.3253 -0.1805
20222SOL     OW62106   6.048   6.919   6.125 -0.1693  0.6306  0.2268
20222SOL    HW162107   6.087   6.963   6.050 -0.2317 -0.7405 -0.6419
20222SOL    HW262108   6.121   6.901   6.184 -0.0136  1.0966  0.1742
20223SOL     OW62109   0.925   1.621   4.335 -0.1389 -0.1282 -0.2067
20223SOL    HW162110   0.914   1.709   4.300 -0.1646 -0.2914 -0.6195
20223SOL    HW262111   0.845   1.575   4.309  0.0132 -0.3596 -0.2676
20224SOL     OW62112   6.738   5.410   0.679 -0.1840 -0.1300  0.2642
20224SOL    HW162113   6.705   5.500   0.684 -0.0326 -0.1293  1.5762
20224SOL    HW262114   6.826   5.414   0.715  0.6650 -0.4554 -1.6351
20225SOL     OW62115   7.340   6.516   0.274  0.4478 -0.1160 -0.5032
20225SOL    HW162116   7.298   6.469   0.201  0.7093 -1.2710  0.0583
20225SOL    HW262117   7.434   6.504   0.260  0.5863  1.5575 -1.1718
20226SOL     OW62118   4.920   5.092   6.051 -0.2440  0.3962  0.1098
20226SOL    HW162119   4.834   5.111   6.088 -0.0361 -1.2133  1.5754
20226SOL    HW262120   4.942   5.005   6.085  2.2886  1.0663  0.4359
20227SOL     OW62121   1.033   4.694   9.881 -0.5046  0.3615  0.3234
20227SOL    HW162122   1.124   4.706   9.906 -0.5882 -2.0065  2.1157
20227SOL    HW262123   0.987   4.678   9.964 -2.4459  0.7737 -0.5969
20228SOL     OW62124   1.802   5.032   7.466  0.5175 -0.2899 -0.0288
20228SOL    HW162125   1.844   4.980   7.534  0.5945 -0.4489 -0.1964
20228SOL    HW262126   1.753   4.969   7.414 -0.3864 -0.0423  0.4912
20229SOL     OW62127   1.339   4.883   7.909  0.1502 -0.2781  0.6747
20229SOL    HW162128   1.404   4.863   7.976  1.4792 -1.0687 -0.7758
20229SOL    HW262129   1.378   4.955   7.859  0.9445 -2.0814 -1.4701
20230SOL     OW62130   6.843   5.338   8.528  0.2159 -0.0056 -0.4278
20230SOL    HW162131   6.919   5.396   8.538  0.0484 -0.0139  1.0737
20230SOL    HW262132   6.800   5.370   8.449  1.3478  0.4939 -0.8781
20231SOL     OW62133   5.677   3.359  10.235 -0.0993  0.0149 -0.5323
20231SOL    HW162134   5.730   3.377  10.312  0.1227  0.0179 -0.6835
20231SOL    HW262135   5.699   3.429  10.174  0.4554 -0.5253 -0.9652
20232SOL     OW62136   1.811   6.470   8.256 -0.0440 -0.4791  0.8334
20232SOL    HW162137   1.885   6.475   8.195  0.4567 -1.4158  1.3465
20232SOL    HW262138   1.752   6.406   8.217 -1.3911  1.3921 -0.3834
20233SOL     OW62139   6.724   5.030   8.210  0.5125  0.0218  0.4423
20233SOL    HW162140   6.668   5.093   8.164  0.7742 -0.4183 -0.5218
20233SOL    HW262141   6.691   4.945   8.181 -2.0076 -0.4909  4.2273
20234SOL     OW62142   5.944   2.592   9.996  0.2992 -0.2174 -0.1710
20234SOL    HW162143   5.994   2.511  10.003 -0.3717 -0.5705  0.6814
20234SOL    HW262144   5.871   2.581  10.057  0.9149  1.5566  0.9745
20235SOL     OW62145   0.082   1.975   6.221 -0.4143  0.1295  0.6617
20235SOL    HW162146   0.013   1.962   6.156  0.7600 -0.1463 -0.5975
20235SOL    HW262147   0.062   2.059   6.262 -0.7644  0.7140 -0.6376
20236SOL     OW62148   7.785   7.657   1.463  0.1652 -0.5752 -0.1910
20236SOL    HW162149   7.717   7.707   1.508 -0.2549 -0.0616 -1.3436
20236SOL    HW262150   7.852   7.641   1.529 -0.6380 -0.2589  0.7183
20237SOL     OW62151   5.121   4.601   8.762 -0.1313  0.1413  0.1998
20237SOL    HW162152   5.116   4.572   8.671  1.1379  1.9268 -0.5245
20237SOL    HW262153   5.196   4.554   8.798 -2.4448 -2.9693  1.4061
20238SOL     OW62154   7.145   0.212   5.382  0.6912  0.9573 -0.4880
20238SOL    HW162155   7.205   0.173   5.445  2.3383  1.3871 -1.7167
20238SOL    HW262156   7.172   0.303   5.376 -1.8622  1.9115  0.9033
20239SOL     OW62157   0.622   3.865   0.198 -0.2689  0.1809 -0.1864
20239SOL    HW162158   0.557   3.931   0.222  1.3664  1.4644  0.8963
20239SOL    HW262159   0.606   3.793   0.259  0.4322  1.2406  1.3229
20240SOL     OW62160   2.492   1.206   2.964  0.0849  0.4547  0.4378
20240SOL    HW162161   2.518   1.185   2.874  0.5200 -0.9656  0.8599
20240SOL    HW262162   2.398   1.224   2.958  0.1243  0.4518 -0.3080
20241SOL     OW62163   7.276   3.104   6.772 -0.3135 -0.1972 -0.5960
20241SOL    HW162164   7.354   3.123   6.823 -0.9516 -1.8051  1.0792
20241SOL    HW262165   7.229   3.188   6.768  0.1124  0.1367  0.8397
20242SOL     OW62166   0.541   4.835   4.229  0.5266 -0.2822  0.0273
20242SOL    HW162167   0.464   4.783   4.251 -1.3206  1.6958 -1.2732
20242SOL    HW262168   0.540   4.838   4.133 -0.4747  3.3630  0.0045
20243SOL     OW62169   2.231   0.009   6.747 -0.0427 -0.4765  0.2065
20243SOL    HW162170   2.253  -0.084   6.734  1.6223  0.1051 -1.6222
20243SOL    HW262171   2.291   0.039   6.815 -0.2905 -0.6299  0.4951
20244SOL     OW62172   0.249   3.182  11.940  0.0447 -0.2268 -0.0940
20244SOL    HW162173   0.182   3.250  11.939  0.1752 -0.0758  0.7897
20244SOL    HW262174   0.296   3.195  12.023  1.0815 -0.4083 -0.6328
20245SOL     OW62175   7.864   5.242   8.010 -0.3932 -0.2836  0.1318
20245SOL    HW162176   7.860   5.198   8.095 -0.8968 -0.6730 -0.0862
20245SOL    HW262177   7.958   5.245   7.989 -0.3792 -1.9813 -0.2067
20246SOL     OW62178   5.548   3.806  12.320  0.2654 -0.0071 -0.5556
20246SOL    HW162179   5.564   3.734  12.260 -0.1314  0.1284 -0.8330
20246SOL    HW262180   5.555   3.767  12.407 -0.1819 -0.4387 -0.7033
20247SOL     OW62181   0.423   1.023   4.190  0.4963  0.3151  0.1637
20247SOL    HW162182   0.329   1.035   4.194  0.5589  0.5509  1.2673
20247SOL    HW262183   0.436   0.956   4.124 -0.4388  0.3517 -0.0683
20248SOL     OW62184   2.001   2.913   1.648  0.0674  0.8624 -0.2471
20248SOL    HW162185   2.022   2.940   1.559 -0.2115  0.6694 -0.3734
20248SOL    HW262186   1.908   2.935   1.659  0.2308  1.3701  0.1792
20249SOL     OW62187   5.265   6.457   6.265  0.0330  0.0505 -0.2746
20249SOL    HW162188   5.216   6.479   6.186  0.0069 -0.2697 -0.3473
20249SOL    HW262189   5.207   6.482   6.337 -0.1323 -0.0937 -0.3581
20250SOL     OW62190   2.222   5.194   6.211  0.4986 -0.7919  0.3033
20250SOL    HW162191   2.260   5.117   6.168  0.0080 -0.2827 -1.1111
20250SOL    HW262192   2.231   5.264   6.147  0.3665  0.1872  1.3247
20251SOL     OW62193   0.331   5.746   7.204 -0.0256 -0.0133 -0.6270
20251SOL    HW162194   0.368   5.743   7.115  2.1150 -0.6551  0.2088
20251SOL    HW262195   0.361   5.831   7.239 -0.6206  0.1139 -0.4270
20252SOL     OW62196   7.258   2.206   5.463  0.5482 -0.2831  0.2709
20252SOL    HW162197   7.219   2.286   5.427 -0.6923 -0.5300  1.0039
20252SOL    HW262198   7.314   2.172   5.392 -2.5299 -1.2796 -1.8815
20253SOL     OW62199   5.734   7.482  11.232 -0.3627 -0.1740 -0.4892
20253SOL    HW162200   5.792   7.550  11.265  0.8068 -1.2721 -0.1904
20253SOL    HW262201   5.666   7.529  11.184  0.2550  1.2031 -0.0565
20254SOL     OW62202   6.001   6.023   6.435  0.5892  0.2574  0.3415
20254SOL    HW162203   5.997   6.017   6.340 -0.6749  3.9532  0.0186
20254SOL    HW262204   6.039   6.109   6.453 -0.1895  0.1161  3.1612
20255SOL     OW62205   4.621   0.180   0.555  0.5614 -0.5009 -0.3272
20255SOL    HW162206   4.540   0.201   0.601  0.5468  2.3973 -1.4803
20255SOL    HW262207   4.593   0.142   0.472  0.2144  1.9154 -1.3963
20256SOL     OW62208   6.595   5.310   6.172  0.0382 -0.5768  0.2529
20256SOL    HW162209   6.605   5.400   6.142  1.8362  0.1416  2.5975
20256SOL    HW262210   6.514   5.310   6.223 -0.9823 -0.8378 -1.3009
20257SOL     OW62211   0.848   4.775  10.502 -0.2619  0.3790 -0.2613
20257SOL    HW162212   0.905   4.736  10.568 -0.3171  1.6590  0.5712
20257SOL    HW262213   0.906   4.799  10.430 -0.2639 -1.4574 -0.9404
20258SOL     OW62214   6.458   3.411   9.264  0.1994 -0.3080 -0.2115
20258SOL    HW162215   6.365   3.406   9.245  0.1920 -1.4517  0.0875
20258SOL    HW262216   6.462   3.464   9.344 -0.1896 -0.2156 -0.2496
20259SOL     OW62217   5.051   3.891   2.727 -0.1998 -0.0742  0.1188
20259SOL    HW162218   4.958   3.867   2.733 -0.4247  1.0372  1.5622
20259SOL    HW262219   5.089   3.822   2.673 -2.0884  0.1412 -1.6222
20260SOL     OW62220   2.325   3.345   3.244 -0.5799  0.5482  0.3937
20260SOL    HW162221   2.318   3.398   3.324 -3.4881 -0.2440  0.7907
20260SOL    HW262222   2.249   3.371   3.191 -0.1085 -0.7352 -0.9724
20261SOL     OW62223   4.838   4.982   1.479 -0.0639 -0.1520  0.7539
20261SOL    HW162224   4.823   5.070   1.514  1.4519  0.3722  0.1926
20261SOL    HW262225   4.824   4.923   1.553  0.2137  0.6900  1.4914
20262SOL     OW62226   1.718   6.297   9.445  0.1878 -0.0885  0.2410
20262SOL    HW162227   1.669   6.320   9.366 -1.5518 -1.8300  0.7175
20262SOL    HW262228   1.804   6.269   9.414  0.7607  2.4517 -0.6881
20263SOL     OW62229   2.797   0.424   6.839  0.0623 -0.0251  0.2278
20263SOL    HW162230   2.766   0.404   6.751  1.8251 -0.0526 -0.4143
20263SOL    HW262231   2.737   0.493   6.870 -1.7417 -1.3309 -0.2169
20264SOL     OW62232   2.736   2.000   3.249  0.0062 -0.4924 -0.3621
20264SOL    HW162233   2.646   2.009   3.282  0.7324  1.9385  1.2187
20264SOL    HW262234   2.727   2.008   3.154 -1.4737 -0.6244 -0.2643
20265SOL     OW62235   5.737   4.748   4.494 -0.1145 -0.2039 -0.3525
20265SOL    HW162236   5.686   4.673   4.526 -0.8480  0.7459  0.8459
20265SOL    HW262237   5.823   4.713   4.474 -0.1316 -1.2142  1.1666
20266SOL     OW62238   4.547   0.195   3.126 -0.0618 -0.0477 -0.0859
20266SOL    HW162239   4.563   0.280   3.167  0.7780  0.7742 -2.0315
20266SOL    HW262240   4.504   0.215   3.043 -0.1993 -1.5464 -0.4089
20267SOL     OW62241   1.650   5.445   5.374  0.4297  0.3760 -0.0078
20267SOL    HW162242   1.641   5.367   5.319 -1.2227 -0.8321  1.8728
20267SOL    HW262243   1.560   5.476   5.387  1.0300  2.7221 -0.7769
20268SOL     OW62244   4.958   7.018   6.195 -0.5477 -0.3232 -0.1091
20268SOL    HW162245   4.876   7.033   6.147 -0.6362 -0.4446  0.0027
20268SOL    HW262246   4.930   6.986   6.281 -0.3713 -2.6066 -0.8194
20269SOL     OW62247   3.100   3.812   2.300  1.0279  0.4165  0.7953
20269SOL    HW162248   3.165   3.788   2.234 -1.0455 -1.0739 -0.8061
20269SOL    HW262249   3.098   3.908   2.296  0.4385  0.3845 -1.9283
20270SOL     OW62250   3.717   6.739   0.711  0.2698 -1.0091 -0.4047
20270SOL    HW162251   3.711   6.765   0.803  2.3511 -0.2997 -0.4182
20270SOL    HW262252   3.811   6.741   0.691 -0.1076 -1.3472 -2.4933
20271SOL     OW62253   3.392   5.843  10.419 -0.0998 -0.1112  0.0509
20271SOL    HW162254   3.320   5.845  10.356 -0.4542  1.5202  0.4517
20271SOL    HW262255   3.386   5.927  10.464  1.6722 -0.2074  0.5384
20272SOL     OW62256   2.946   2.028   9.383 -0.0978 -0.2814 -0.4311
20272SOL    HW162257   2.874   1.998   9.327  0.0128  0.3273 -0.9127
20272SOL    HW262258   2.993   2.092   9.330  0.0742  0.2361  0.3226
20273SOL     OW62259   0.665   6.510   5.745  0.1335  0.1400 -0.1627
20273SOL    HW162260   0.572   6.494   5.757  0.5298 -1.5961  0.9143
20273SOL    HW262261   0.673   6.606   5.744 -1.7389  0.3278 -1.2295
20274SOL     OW62262   2.366   0.145   0.879 -0.3907 -0.2431 -0.0026
20274SOL    HW162263   2.359   0.060   0.835 -0.2464 -0.4527  0.3694
20274SOL    HW262264   2.458   0.169   0.871 -0.3079 -0.4062  0.3980
20275SOL     OW62265   0.771   4.112   0.335  1.0333 -0.0433 -0.1296
20275SOL    HW162266   0.796   4.203   0.347 -0.2125  0.3071 -0.0431
20275SOL    HW262267   0.688   4.104   0.382  1.2398 -1.2815  0.0497
20276SOL     OW62268   7.279   7.548   7.055 -1.1756 -0.1030  0.2222
20276SOL    HW162269   7.279   7.590   7.141 -1.3734 -1.9462  1.1639
20276SOL    HW262270   7.284   7.454   7.073  2.1915 -0.4969 -1.8335
20277SOL     OW62271   4.497   0.888   3.605 -0.8614  0.4875  0.0697
20277SOL    HW162272   4.441   0.827   3.558 -0.8947  0.1028  0.6080
20277SOL    HW262273   4.444   0.967   3.615 -0.4144  1.0527 -1.6650
20278SOL     OW62274   6.579   4.666  12.161  0.1624  0.4145  0.7028
20278SOL    HW162275   6.520   4.736  12.189 -1.4654 -1.2511  1.6436
20278SOL    HW262276   6.567   4.597  12.227  2.7395 -0.2489  0.5980
20279SOL     OW62277   5.372   5.583   0.333 -0.1175  0.0038 -0.6116
20279SOL    HW162278   5.455   5.574   0.288  0.0258  1.5259 -0.7125
20279SOL    HW262279   5.324   5.648   0.282 -0.4833  0.7641  0.6683
20280SOL     OW62280   3.629   5.188  12.053 -0.2062 -0.1514 -0.1339
20280SOL    HW162281   3.686   5.207  11.978 -0.0227  0.4173  0.1443
20280SOL    HW262282   3.647   5.096  12.074  1.4255  0.3159  0.6339
20281SOL     OW62283   6.069   1.175   5.127 -0.3881 -0.4021 -0.0918
20281SOL    HW162284   6.072   1.251   5.069  1.0025 -1.6512 -1.7551
20281SOL    HW262285   6.123   1.109   5.084 -0.6747 -1.9956  1.8203
20282SOL     OW62286   3.894   5.694   4.143  0.1082  0.1384 -0.1830
20282SOL    HW162287   3.801   5.680   4.162  0.0245 -0.3054 -0.8938
20282SOL    HW262288   3.940   5.635   4.204 -0.1732 -1.6256 -1.6045
20283SOL     OW62289   0.042   6.185   3.429  0.1379 -0.2554  0.1775
20283SOL    HW162290   0.100   6.188   3.353 -0.8697  1.6464 -0.5951
20283SOL    HW262291   0.065   6.262   3.480  0.3513 -1.1608  1.4738
20284SOL     OW62292   6.721   3.310   1.044  0.7627 -0.1962 -0.6999
20284SOL    HW162293   6.742   3.267   1.127 -0.4356 -0.9322 -0.7557
20284SOL    HW262294   6.688   3.396   1.069 -1.9477 -1.2884 -0.1912
20285SOL     OW62295   4.682   1.773   1.839  0.5562  0.0911 -0.8170
20285SOL    HW162296   4.695   1.710   1.910 -0.0952 -0.6337 -1.3278
20285SOL    HW262297   4.752   1.753   1.776  0.5557  0.1027 -0.8211
20286SOL     OW62298   0.593   5.644   6.694 -0.0494  0.6165 -0.0576
20286SOL    HW162299   0.557   5.634   6.782  1.7803 -0.0509  0.6763
20286SOL    HW262300   0.643   5.725   6.698  0.2618  0.4430 -0.3985
20287SOL     OW62301   0.342   0.554   1.308  0.8156 -0.0496 -0.0919
20287SOL    HW162302   0.324   0.491   1.378  2.5887 -0.3225  0.1676
20287SOL    HW262303   0.437   0.564   1.309  0.8562  0.2030 -2.2533
20288SOL     OW62304   6.040   0.115   0.143  0.2905 -0.0270  0.1382
20288SOL    HW162305   5.974   0.047   0.160 -0.0516  0.1695 -0.3594
20288SOL    HW262306   6.082   0.087   0.061 -0.7029  0.9818 -0.7503
20289SOL     OW62307   4.966   6.860   2.637  0.5403  0.1796 -0.4203
20289SOL    HW162308   4.920   6.912   2.703 -1.3479  0.6552 -1.9972
20289SOL    HW262309   4.909   6.864   2.560  2.1448 -1.2045 -1.7589
20290SOL     OW62310   0.522   2.505   2.757 -0.1821  0.0312 -0.1343
20290SOL    HW162311   0.431   2.535   2.755 -0.4348 -0.6923  0.1328
20290SOL    HW262312   0.561   2.553   2.829  0.1850  1.7941 -1.4529
20291SOL     OW62313   7.535   1.542   4.194  0.4650  0.2127  0.3451
20291SOL    HW162314   7.556   1.451   4.218 -0.3334 -0.6965 -2.0753
20291SOL    HW262315   7.442   1.551   4.214  0.8198  0.9950  1.8164
20292SOL     OW62316   5.354   4.269   4.855 -0.0795  0.0022  0.0737
20292SOL    HW162317   5.294   4.227   4.915  1.7332 -1.1359  1.1873
20292SOL    HW262318   5.327   4.238   4.768 -0.5264 -1.2209  0.6291
20293SOL     OW62319   5.050   3.667   9.983  0.6027 -0.1646  0.4980
20293SOL    HW162320   5.091   3.669  10.069 -1.2100 -0.0693  1.3991
20293SOL    HW262321   4.976   3.727   9.990  0.3027 -0.3076 -1.0695
20294SOL     OW62322   1.401   2.885   3.359  0.5406 -0.4561  0.0851
20294SOL    HW162323   1.480   2.939   3.361  1.7456 -2.1439  0.3825
20294SOL    HW262324   1.370   2.891   3.268  0.4182  0.9878  0.1982
20295SOL     OW62325   1.632   7.293   8.373 -0.4525  0.2230  0.1474
20295SOL    HW162326   1.678   7.209   8.373 -3.2180 -1.4287  0.3794
20295SOL    HW262327   1.687   7.350   8.320  2.8212 -0.8948  2.0328
20296SOL     OW62328   7.015   3.252   6.554 -0.0792  0.2768  0.4766
20296SOL    HW162329   7.037   3.304   6.631 -2.6615  0.5501  1.1091
20296SOL    HW262330   7.017   3.162   6.585 -0.6568  0.3560  0.7561
20297SOL     OW62331   1.052   5.558  10.289  0.7173 -0.3122 -0.2252
20297SOL    HW162332   0.973   5.510  10.315 -0.7739  1.8390 -0.4688
20297SOL    HW262333   1.087   5.592  10.372  0.7255 -0.3204 -0.2251
20298SOL     OW62334   1.205   0.709   0.590 -0.1056  0.2614 -0.2111
20298SOL    HW162335   1.269   0.772   0.622  0.0168  0.3170 -0.5662
20298SOL    HW262336   1.233   0.625   0.626 -1.0926  0.6055  1.5082
20299SOL     OW62337   1.261   2.974   2.593 -0.1698  0.3792 -0.5058
20299SOL    HW162338   1.209   2.937   2.522  0.3162  1.4633 -1.4682
20299SOL    HW262339   1.305   3.049   2.554  1.5503 -0.0546  0.4471
20300SOL     OW62340   4.332   6.156   9.727  0.5023  0.1566 -0.1191
20300SOL    HW162341   4.324   6.179   9.820  3.7534  1.0558  0.0790
20300SOL    HW262342   4.302   6.065   9.722  2.7003 -0.8553  2.4337
20301SOL     OW62343   1.759   2.008   8.644 -0.0983  0.3558  0.0493
20301SOL    HW162344   1.733   2.098   8.661 -0.2783  0.3141  0.0032
20301SOL    HW262345   1.768   2.002   8.549  0.2452  0.4135  0.0778
20302SOL     OW62346   0.512   3.790  10.412 -0.0228 -0.1968 -0.2025
20302SOL    HW162347   0.581   3.764  10.474  0.2510 -1.1252 -0.8669
20302SOL    HW262348   0.432   3.792  10.465 -0.2022 -3.1427 -0.1736
20303SOL     OW62349   2.117   4.282   3.772 -0.2926  0.6897 -0.3953
20303SOL    HW162350   2.102   4.374   3.792  0.8141  0.5618  1.2148
20303SOL    HW262351   2.203   4.263   3.810 -0.4783 -0.9924 -0.7472
20304SOL     OW62352   0.986   5.717  10.770  0.4619  0.3161 -0.1082
20304SOL    HW162353   0.973   5.630  10.734  0.9278  0.3494 -0.3646
20304SOL    HW262354   0.942   5.715  10.855  1.3356 -0.4922  0.3424
20305SOL     OW62355   1.839   3.865   1.239  0.1047  0.1069  0.4463
20305SOL    HW162356   1.769   3.801   1.248  0.2609 -0.0593  0.4887
20305SOL    HW262357   1.820   3.909   1.156 -0.4260  0.5316  0.7850
20306SOL     OW62358   7.355   6.961   0.132 -0.0483  0.5357 -0.2335
20306SOL    HW162359   7.437   6.926   0.168  0.5282  1.1326 -0.9392
20306SOL    HW262360   7.382   7.030   0.072 -1.0701  0.6720 -0.5639
20307SOL     OW62361   7.754   5.598  11.316  0.5946 -0.2586 -0.6281
20307SOL    HW162362   7.847   5.609  11.296  0.6868 -0.6237 -0.4165
20307SOL    HW262363   7.713   5.577  11.231  0.5199  0.9872 -0.9135
20308SOL     OW62364   0.425   7.469   4.723 -0.1168  0.6916 -0.0335
20308SOL    HW162365   0.427   7.455   4.629  1.0770 -0.1540  0.1052
20308SOL    HW262366   0.397   7.386   4.760  1.6347  0.2912  0.4710
20309SOL     OW62367   6.298   3.767  10.492 -0.0795 -0.1097 -0.4488
20309SOL    HW162368   6.252   3.851  10.498  1.7339  0.8701  1.1379
20309SOL    HW262369   6.276   3.733  10.405 -1.7588  1.4615 -0.6919
20310SOL     OW62370   6.164   7.664   8.517  0.2023 -0.3135 -0.4090
20310SOL    HW162371   6.183   7.723   8.443  1.7858 -0.6770 -0.3189
20310SOL    HW262372   6.227   7.689   8.584 -2.1023  0.9477  1.4144
20311SOL     OW62373   6.252   2.868   2.504 -0.4397  0.3081  0.4158
20311SOL    HW162374   6.179   2.929   2.514 -0.8682  0.2203 -1.6829
20311SOL    HW262375   6.230   2.817   2.426 -0.0229 -2.4629  1.9808
20312SOL     OW62376   5.363   5.165   9.171 -0.0258  0.6771 -0.5283
20312SOL    HW162377   5.432   5.157   9.237  0.0552  0.3188 -0.6553
20312SOL    HW262378   5.361   5.259   9.150  0.2630  0.7233 -0.3570
20313SOL     OW62379   3.297   0.938  12.470 -0.2207 -0.0407 -0.3901
20313SOL    HW162380   3.276   0.944  12.563  2.0683 -0.2484  0.1964
20313SOL    HW262381   3.225   0.983  12.426 -0.4401  1.6996  1.5981
20314SOL     OW62382   4.355   3.994   7.839 -0.7226  0.1110 -0.2010
20314SOL    HW162383   4.414   4.053   7.792 -1.4995  1.3666  0.3459
20314SOL    HW262384   4.404   3.967   7.917  0.1192 -1.0273 -1.0923
20315SOL     OW62385   1.437   4.017   5.026  0.3132  0.5801 -0.5928
20315SOL    HW162386   1.460   4.020   5.119 -1.3451 -2.0634 -0.0022
20315SOL    HW262387   1.470   3.933   4.995 -2.3537 -0.2826 -1.3751
20316SOL     OW62388   4.320   7.698   6.578 -0.3710 -0.3078 -0.2276
20316SOL    HW162389   4.330   7.692   6.673  0.6274  0.2889 -0.2773
20316SOL    HW262390   4.241   7.750   6.566  0.3375  0.9573  0.3172
20317SOL     OW62391   3.974   6.595  10.479  0.2532  0.2166 -0.0574
20317SOL    HW162392   3.987   6.508  10.440  2.5419  0.7736 -0.6596
20317SOL    HW262393   3.883   6.593  10.510 -0.0312 -2.0823 -0.7982
20318SOL     OW62394   3.111   6.998   7.343  0.0636  0.4064 -0.2215
20318SOL    HW162395   3.064   6.986   7.425  0.4292  1.8960  0.2420
20318SOL    HW262396   3.048   6.972   7.275  0.2035 -2.0921  0.5271
20319SOL     OW62397   2.618   7.534   2.004  0.1336  0.3810 -0.1573
20319SOL    HW162398   2.675   7.559   2.077 -0.2430  2.0024 -0.3890
20319SOL    HW262399   2.667   7.560   1.926  1.7952 -3.7644 -0.7904
20320SOL     OW62400   7.317   1.894   1.461 -0.7208 -0.5379 -0.3422
20320SOL    HW162401   7.318   1.989   1.473 -2.3109 -0.6964  1.5347
20320SOL    HW262402   7.361   1.859   1.539 -2.5465 -1.3819  0.3611
20321SOL     OW62403   1.149   2.224   3.220  0.3922  0.2936 -0.2471
20321SOL    HW162404   1.213   2.294   3.206  1.1716  0.0367  1.6404
20321SOL    HW262405   1.084   2.262   3.280 -0.1421 -0.0556 -0.6001
20322SOL     OW62406   3.312   4.559   3.751  0.4487  0.2984  0.5019
20322SOL    HW162407   3.261   4.594   3.678 -1.5347 -2.5317  0.3837
20322SOL    HW262408   3.292   4.618   3.824  1.1026  2.1650 -0.7386
20323SOL     OW62409   5.701   4.896  11.867 -0.1295  0.0484  0.2542
20323SOL    HW162410   5.650   4.974  11.849 -0.2998  0.0759  0.8426
20323SOL    HW262411   5.762   4.922  11.936 -0.7516 -0.5519  1.0569
20324SOL     OW62412   0.553   2.701   9.946  0.7041  0.1141 -0.3781
20324SOL    HW162413   0.493   2.765   9.986 -0.6901 -1.3068 -0.1081
20324SOL    HW262414   0.564   2.733   9.856 -0.6256  0.3257 -0.4945
20325SOL     OW62415   0.068   1.192  10.261  0.0976  0.2620  0.2384
20325SOL    HW162416   0.024   1.140  10.193  2.0889 -0.9666 -0.2142
20325SOL    HW262417   0.095   1.127  10.326  1.3635  0.9229  0.3951
20326SOL     OW62418   0.962   2.797   2.747 -0.1745 -0.1097 -0.3400
20326SOL    HW162419   0.872   2.808   2.779 -0.5606  0.1833 -1.4924
20326SOL    HW262420   1.016   2.808   2.825 -1.1681 -0.9684  0.4968
20327SOL     OW62421   6.243   4.459   4.790 -0.3610 -0.0068  0.2484
20327SOL    HW162422   6.277   4.449   4.879  1.3617  1.0998 -0.2425
20327SOL    HW262423   6.152   4.428   4.795  0.1979 -1.5211  1.9954
20328SOL     OW62424   5.990   0.408  11.992 -0.4527  0.2608  0.4707
20328SOL    HW162425   5.932   0.379  11.922 -2.5998  1.3086  1.7091
20328SOL    HW262426   5.939   0.394  12.072  1.0436  1.1621  1.6211
20329SOL     OW62427   1.210   7.111   5.110 -0.0723 -0.2967 -0.0447
20329SOL    HW162428   1.212   7.039   5.047  0.0779  1.0509 -1.6584
20329SOL    HW262429   1.123   7.150   5.099  0.6255  1.1266 -0.8519
20330SOL     OW62430   5.844   7.651   4.581 -0.0541 -0.4834  0.3230
20330SOL    HW162431   5.786   7.576   4.593 -1.5485  0.6023  0.1830
20330SOL    HW262432   5.801   7.722   4.629  0.8263  0.5113 -0.3305
20331SOL     OW62433   6.992   1.517  12.225 -0.2468  0.3225 -0.0486
20331SOL    HW162434   6.920   1.458  12.205  0.2901 -0.7527  1.0444
20331SOL    HW262435   6.962   1.568  12.301 -0.3799  0.8577 -0.4561
20332SOL     OW62436   4.910   5.217  10.580 -0.2114 -0.4439  0.4783
20332SOL    HW162437   4.936   5.239  10.490  0.0807 -1.6981  0.2371
20332SOL    HW262438   4.817   5.236  10.583 -0.4549 -1.3687 -0.4278
20333SOL     OW62439   4.688   3.895  11.078 -0.2835  0.1153  0.1600
20333SOL    HW162440   4.725   3.883  11.165 -0.8497  2.2428  0.7678
20333SOL    HW262441   4.620   3.828  11.070  2.8695 -3.3015 -0.6386
20334SOL     OW62442   4.949   2.985   9.068 -0.2447 -0.2306 -0.0510
20334SOL    HW162443   4.999   2.913   9.106 -0.3085  0.7115  1.9368
20334SOL    HW262444   4.861   2.950   9.056 -0.4317 -0.3365  1.4806
20335SOL     OW62445   6.365   6.968   4.659 -0.3538  0.5582 -0.6717
20335SOL    HW162446   6.334   6.878   4.664  1.1680  0.0845  1.4670
20335SOL    HW262447   6.408   6.974   4.574 -0.4193 -0.7589 -0.8152
20336SOL     OW62448   3.940   2.202   7.091 -0.0964 -0.0000  0.1082
20336SOL    HW162449   4.016   2.147   7.070  1.9254  1.5652  2.6153
20336SOL    HW262450   3.914   2.174   7.179 -1.5301  0.4480 -0.1520
20337SOL     OW62451   0.084   6.285  12.251  0.4196  0.8437  0.4739
20337SOL    HW162452   0.045   6.370  12.230 -2.2121 -0.7013 -1.5384
20337SOL    HW262453   0.035   6.254  12.327 -2.1476 -0.8342 -1.6901
20338SOL     OW62454   2.515   7.480  10.241  0.4554 -0.1378  0.2641
20338SOL    HW162455   2.548   7.422  10.172 -2.3362 -0.5097 -0.9058
20338SOL    HW262456   2.529   7.431  10.322  0.1449 -1.4851 -0.4690
20339SOL     OW62457   6.891   7.376   5.197 -0.0372 -0.1595 -0.0077
20339SOL    HW162458   6.855   7.288   5.196  0.4382 -0.3584  0.2677
20339SOL    HW262459   6.974   7.368   5.244  0.2905  0.3253 -0.4886
20340SOL     OW62460   3.782   2.260   6.005  0.4570  0.8873  0.1651
20340SOL    HW162461   3.757   2.330   6.065 -1.2733 -0.1772  0.7632
20340SOL    HW262462   3.878   2.260   6.007  0.4641  2.1679  1.3860
20341SOL     OW62463   1.470   1.602   5.481 -0.0890 -0.1175  0.1643
20341SOL    HW162464   1.494   1.694   5.485 -3.7843  1.1856 -2.3380
20341SOL    HW262465   1.392   1.595   5.537 -0.2135 -1.5853 -0.1551
20342SOL     OW62466   2.878   4.225   1.455  0.7233 -0.2240 -0.3047
20342SOL    HW162467   2.904   4.279   1.530  0.1417  0.8493 -0.8414
20342SOL    HW262468   2.792   4.260   1.430 -0.0879 -1.9951 -0.1427
20343SOL     OW62469   1.512   0.310   6.127  0.3160  0.2955 -0.0654
20343SOL    HW162470   1.429   0.323   6.081  0.0250  0.5638  0.5193
20343SOL    HW262471   1.527   0.393   6.173  0.9540  0.2774 -0.2362
20344SOL     OW62472   0.925   2.637   4.991  0.3066  0.4736 -0.2071
20344SOL    HW162473   0.982   2.591   5.053  0.7666  1.0116 -0.2256
20344SOL    HW262474   0.842   2.589   4.994  0.4554  0.2559  0.5247
20345SOL     OW62475   5.999   0.006   5.284  0.8561  0.0112  0.3193
20345SOL    HW162476   6.060  -0.052   5.239  0.3399  0.0681 -0.4754
20345SOL    HW262477   5.926  -0.051   5.310  0.2612  0.3206 -0.6270
20346SOL     OW62478   0.216   0.799   0.160 -0.1950 -0.0553 -0.5891
20346SOL    HW162479   0.281   0.865   0.184  0.2170 -0.5626 -0.2904
20346SOL    HW262480   0.165   0.786   0.240 -0.4218  0.0598 -0.7127
20347SOL     OW62481   7.703   5.730   6.097  0.8657  0.4587  0.6797
20347SOL    HW162482   7.740   5.742   6.009  0.2411  1.8120  0.5740
20347SOL    HW262483   7.764   5.774   6.155  1.6556 -1.0404  1.0561
20348SOL     OW62484   1.301   7.773  11.920  0.3467  0.6345  0.2700
20348SOL    HW162485   1.295   7.684  11.955 -1.2888  0.7437  0.3501
20348SOL    HW262486   1.381   7.809  11.959  0.8886 -0.6946  0.4428
20349SOL     OW62487   4.453   2.001   4.532  0.3017  0.0737 -0.0827
20349SOL    HW162488   4.415   2.077   4.576 -0.2711 -0.5500  0.5209
20349SOL    HW262489   4.426   2.009   4.441  0.1145  0.5040  0.0107
20350SOL     OW62490   1.652   5.809   0.986 -0.1029 -0.3452  0.2984
20350SOL    HW162491   1.748   5.808   0.988 -0.0940  0.1146  2.7190
20350SOL    HW262492   1.630   5.836   0.897  2.0764  2.0333  0.3580
20351SOL     OW62493   1.074   2.847   1.949  0.4656  0.0555 -0.0204
20351SOL    HW162494   1.000   2.904   1.971  0.2056 -0.0091 -0.6892
20351SOL    HW262495   1.140   2.865   2.016 -0.1691  0.0903  0.6005
20352SOL     OW62496   0.548   1.988   8.112 -0.7280  0.3563  0.1432
20352SOL    HW162497   0.507   2.074   8.124 -0.6912  0.3809  0.0907
20352SOL    HW262498   0.525   1.940   8.192 -1.2663  0.2090 -0.0928
20353SOL     OW62499   3.556   0.092   5.790  0.2733 -0.6157 -0.0503
20353SOL    HW162500   3.607   0.159   5.745 -1.2726 -0.2368 -1.3176
20353SOL    HW262501   3.622   0.038   5.835  1.7516 -0.0079 -1.3894
20354SOL     OW62502   6.353   3.427  10.032 -0.6620  0.5140  0.4919
20354SOL    HW162503   6.393   3.383   9.957 -1.1728  0.0417  0.4931
20354SOL    HW262504   6.408   3.505  10.046  0.3847 -0.2304  0.6300
20355SOL     OW62505   0.547   5.872   6.312 -0.1098  0.1386  0.0038
20355SOL    HW162506   0.618   5.936   6.300 -0.3505  0.3879 -0.1059
20355SOL    HW262507   0.534   5.870   6.407  0.4317 -0.3390  0.0744
20356SOL     OW62508   6.086   4.199   1.518  0.1294  0.4717  0.1392
20356SOL    HW162509   6.152   4.258   1.484  0.9386 -0.1635  0.5845
20356SOL    HW262510   6.134   4.135   1.570 -0.7134 -0.5870 -0.3356
20357SOL     OW62511   0.287   5.412  11.215  0.0959 -0.7012  0.2239
20357SOL    HW162512   0.317   5.390  11.128 -1.2369 -2.6081  0.1854
20357SOL    HW262513   0.338   5.489  11.240 -0.7461  1.0586 -2.9438
20358SOL     OW62514   4.759   5.091   4.212 -0.1199 -0.0957  0.7970
20358SOL    HW162515   4.685   5.124   4.262 -1.8317 -1.1219 -0.9141
20358SOL    HW262516   4.789   5.015   4.261 -0.0751  0.4284  1.5937
20359SOL     OW62517   4.978   6.506   2.728  0.3215 -0.1531  0.0111
20359SOL    HW162518   4.985   6.547   2.641  0.0577 -1.2609 -0.5534
20359SOL    HW262519   5.067   6.505   2.762  0.9484 -2.2766 -1.4909
20360SOL     OW62520   6.112   3.226   8.258 -0.2773 -0.7996  0.8562
20360SOL    HW162521   6.022   3.257   8.245 -0.4465 -1.9164 -0.8942
20360SOL    HW262522   6.167   3.293   8.217 -0.5491 -1.8086 -1.2936
20361SOL     OW62523   5.686   2.340   4.059  0.3564  0.1146  0.2507
20361SOL    HW162524   5.752   2.297   4.005 -0.1384 -2.7479  1.7006
20361SOL    HW262525   5.608   2.344   4.004  1.3771  2.6534 -1.1435
20362SOL     OW62526   3.184   6.291   9.515 -0.2720  0.1669  0.1772
20362SOL    HW162527   3.260   6.233   9.525 -0.1968  0.3135  0.4494
20362SOL    HW262528   3.197   6.332   9.430 -0.4109 -0.3439 -0.0966
20363SOL     OW62529   6.795   2.507  10.135 -0.2101 -0.4816  0.5188
20363SOL    HW162530   6.804   2.442  10.065  0.2879  1.2275 -1.0920
20363SOL    HW262531   6.702   2.527  10.137 -0.5607 -2.0494  1.8510
20364SOL     OW62532   1.845   5.774   8.396  0.2803 -0.0547 -0.1386
20364SOL    HW162533   1.846   5.867   8.372 -0.9870  0.5572  1.8833
20364SOL    HW262534   1.927   5.740   8.362  2.0537  2.4389  1.2574
20365SOL     OW62535   0.135   0.455  10.381  0.1172 -0.5517 -0.1984
20365SOL    HW162536   0.133   0.518  10.453 -0.2653 -0.8051  0.0152
20365SOL    HW262537   0.119   0.371  10.423 -0.2139 -0.6867 -0.5927
20366SOL     OW62538   3.715   0.236   0.647  0.1352 -0.0878  0.4494
20366SOL    HW162539   3.756   0.213   0.563  0.9038  1.2412  0.4316
20366SOL    HW262540   3.787   0.237   0.709 -0.3607 -0.5935  1.0524
20367SOL     OW62541   0.335   0.966   3.589 -0.0338 -0.0492  0.5101
20367SOL    HW162542   0.311   0.874   3.589  1.7242 -0.5824 -1.3866
20367SOL    HW262543   0.299   1.000   3.671  0.7257 -2.7986  2.1162
20368SOL     OW62544   6.054   1.406   7.282 -0.1067  0.3954 -0.2450
20368SOL    HW162545   6.136   1.378   7.242  0.3888  0.6083  0.5912
20368SOL    HW262546   6.011   1.325   7.309 -1.2992  0.1115 -2.7415
20369SOL     OW62547   5.323   1.557  11.622 -0.0333  0.0214 -0.0359
20369SOL    HW162548   5.408   1.597  11.603  0.4747 -1.2209 -0.5249
20369SOL    HW262549   5.260   1.611  11.575  0.6781 -0.0416 -1.0963
20370SOL     OW62550   6.015   2.898  11.787 -0.2147  0.0925 -0.8287
20370SOL    HW162551   6.007   2.971  11.849  1.3208 -1.0805  0.8477
20370SOL    HW262552   6.097   2.915  11.741 -0.2711 -0.1570 -1.0167
20371SOL     OW62553   4.758   5.638   9.111 -0.1644  0.1845  0.1229
20371SOL    HW162554   4.684   5.699   9.107  0.7702  1.3269 -0.2658
20371SOL    HW262555   4.740   5.574   9.042 -0.6147  0.6516 -0.2007
20372SOL     OW62556   2.337   1.147   9.713 -0.2116 -0.1849  0.2856
20372SOL    HW162557   2.324   1.059   9.678  1.1166 -0.3252  0.0837
20372SOL    HW262558   2.282   1.151   9.791 -0.9332 -0.8884 -0.1719
20373SOL     OW62559   4.427   1.813   2.534 -0.2723  0.3720  0.2026
20373SOL    HW162560   4.492   1.782   2.598  0.5106  0.4147 -0.5492
20373SOL    HW262561   4.346   1.821   2.585  0.4692  1.0221  1.3383
20374SOL     OW62562   5.343   0.117  11.139 -0.1926  0.0890  0.4015
20374SOL    HW162563   5.265   0.074  11.106 -0.0558 -0.5713  0.9178
20374SOL    HW262564   5.377   0.058  11.206  2.6617 -1.3298 -2.0589
20375SOL     OW62565   7.594   4.757   2.311 -0.1041  0.0348 -0.3197
20375SOL    HW162566   7.563   4.721   2.227 -0.4537  1.1354 -0.6793
20375SOL    HW262567   7.627   4.681   2.358  0.3193 -0.5814 -1.5523
20376SOL     OW62568   0.201   5.940   0.921  0.2026  0.0866 -0.2445
20376SOL    HW162569   0.217   5.987   0.839 -0.3520  0.0781 -0.3595
20376SOL    HW262570   0.195   6.008   0.988  0.8949  0.0807 -0.1619
20377SOL     OW62571   4.000   2.843  12.297 -0.4803  0.0224  0.3199
20377SOL    HW162572   3.932   2.899  12.260  1.7637  1.4899 -1.8877
20377SOL    HW262573   3.989   2.759  12.251 -0.2899  0.5296 -0.6851
20378SOL     OW62574   7.749   4.939   0.693 -0.1695  0.4774  0.1419
20378SOL    HW162575   7.687   4.866   0.683 -1.5850  1.4732  1.1756
20378SOL    HW262576   7.776   4.960   0.604 -1.3892  0.0450 -0.3477
20379SOL     OW62577   5.062   4.903   1.355  0.5563  0.1269 -0.2265
20379SOL    HW162578   4.978   4.931   1.392 -0.0559  1.2475 -2.2760
20379SOL    HW262579   5.083   4.970   1.290  2.0641 -1.1567 -1.1500
20380SOL     OW62580   7.628   0.538   8.095 -0.2515 -0.5709  0.0625
20380SOL    HW162581   7.545   0.557   8.052 -0.0211  1.0851  0.2844
20380SOL    HW262582   7.607   0.475   8.164 -0.8803 -2.0841 -1.4446
20381SOL     OW62583   2.804   6.726   7.613  0.3884  0.1684  0.4212
20381SOL    HW162584   2.840   6.805   7.572  0.2196 -0.0396 -0.1338
20381SOL    HW262585   2.855   6.654   7.576  0.6994  0.0317  1.1020
20382SOL     OW62586   2.658   3.600   0.270  0.0862 -0.4838  0.2613
20382SOL    HW162587   2.740   3.617   0.317 -0.4226 -0.5297  1.1929
20382SOL    HW262588   2.685   3.586   0.180  0.8948  1.8512  0.0501
20383SOL     OW62589   4.097   2.274   6.241  0.6630  0.0552 -0.1724
20383SOL    HW162590   4.118   2.188   6.204  0.6242 -0.7515  1.5759
20383SOL    HW262591   4.158   2.285   6.314 -0.1416  0.9400  0.4050
20384SOL     OW62592   4.292   2.304   1.869  0.4192  0.1841  0.3977
20384SOL    HW162593   4.281   2.399   1.863 -0.0412  0.1278  0.3649
20384SOL    HW262594   4.206   2.270   1.894  0.4714 -0.2636 -0.0070
20385SOL     OW62595   0.065   5.542   5.810  0.2046  0.4352 -0.2854
20385SOL    HW162596   0.054   5.469   5.872  0.8057  1.6691  1.3597
20385SOL    HW262597   0.158   5.538   5.786  0.2132  0.6018 -0.2763
20386SOL     OW62598   1.208   7.148   7.151  0.2409  0.6503 -0.2336
20386SOL    HW162599   1.249   7.182   7.230  0.1443  0.9404 -0.3081
20386SOL    HW262600   1.276   7.094   7.110 -0.0527 -0.3859  0.6020
20387SOL     OW62601   7.570   2.854  12.033 -0.1896 -0.0161  0.0317
20387SOL    HW162602   7.475   2.843  12.025 -0.0824 -1.1304  0.1328
20387SOL    HW262603   7.581   2.915  12.106 -0.8357  0.5230 -0.3077
20388SOL     OW62604   2.853   0.690   6.485  0.3782  0.0956  0.3322
20388SOL    HW162605   2.775   0.692   6.428  0.3756  1.3943  0.3669
20388SOL    HW262606   2.908   0.622   6.446 -0.7902 -0.8985  0.3383
20389SOL     OW62607   6.850   4.855   0.272 -0.3938  0.4728 -0.0163
20389SOL    HW162608   6.843   4.923   0.206  0.6066 -0.1862 -0.8451
20389SOL    HW262609   6.902   4.786   0.230 -0.7371 -0.4754  1.0510
20390SOL     OW62610   7.287   0.448   2.495  0.2390 -0.4868  0.1607
20390SOL    HW162611   7.352   0.443   2.425  0.3864 -1.0573  0.3287
20390SOL    HW262612   7.211   0.402   2.459 -0.5457  1.2532 -0.5188
20391SOL     OW62613   4.397   1.648   1.014 -0.7501 -0.3864 -0.2053
20391SOL    HW162614   4.372   1.603   0.933 -2.6135  2.0325 -1.1109
20391SOL    HW262615   4.367   1.590   1.084 -0.3553 -1.8893 -1.2267
20392SOL     OW62616   4.362   5.569   2.725 -0.4441 -0.0855  0.2240
20392SOL    HW162617   4.391   5.641   2.671  1.7514 -1.5500 -0.7109
20392SOL    HW262618   4.443   5.533   2.763 -1.5906 -1.1574  1.8323
20393SOL     OW62619   6.518   1.635   4.479  0.6348 -0.5575 -0.2968
20393SOL    HW162620   6.540   1.543   4.472  0.2792 -0.8126  1.4909
20393SOL    HW262621   6.440   1.645   4.424  1.7713 -0.8717 -2.0343
20394SOL     OW62622   1.553   7.982   4.841  0.3044  0.0262 -0.3768
20394SOL    HW162623   1.591   8.019   4.921 -0.5465  0.5299 -0.1938
20394SOL    HW262624   1.470   8.028   4.831 -0.5270 -1.4546 -0.4491
20395SOL     OW62625   0.337   2.012  12.046  0.0641 -0.2044 -0.5598
20395SOL    HW162626   0.242   2.005  12.039 -0.0918  1.3309 -0.2553
20395SOL    HW262627   0.370   1.964  11.969 -1.0163  0.7973 -1.6917
20396SOL     OW62628   0.439   6.175  10.812 -0.7415 -0.1626 -0.1983
20396SOL    HW162629   0.472   6.234  10.880 -2.3628  1.5444 -0.7974
20396SOL    HW262630   0.492   6.096  10.821  4.0143  2.4526 -1.5048
20397SOL     OW62631   3.689   2.803   6.904 -0.2251 -0.4737  0.6809
20397SOL    HW162632   3.675   2.794   6.810  0.7625  0.9676  0.3536
20397SOL    HW262633   3.706   2.897   6.917  0.9072 -0.8334  2.0980
20398SOL     OW62634   0.462   4.787   7.757  0.6800  0.0343 -0.4482
20398SOL    HW162635   0.495   4.788   7.667 -0.1420  0.4941 -0.7574
20398SOL    HW262636   0.367   4.798   7.748  0.3731 -1.5860  0.3984
20399SOL     OW62637   3.674   5.569  11.980 -0.0726  0.0247 -0.0006
20399SOL    HW162638   3.687   5.600  11.890  1.6470  0.2851  0.3182
20399SOL    HW262639   3.760   5.574  12.020 -0.3258 -2.2618  0.9976
20400SOL     OW62640   7.722   6.140   9.677  0.0752 -0.0109  0.1149
20400SOL    HW162641   7.677   6.210   9.629  0.4721  0.1491 -0.0201
20400SOL    HW262642   7.655   6.107   9.738  0.4465  1.8700  1.6522
20401SOL     OW62643   3.838   7.278  10.037  0.5059  0.7622  0.5475
20401SOL    HW162644   3.858   7.198   9.988 -2.3993  0.1911  0.0883
20401SOL    HW262645   3.923   7.315  10.059  1.9423 -1.7206 -0.4309
20402SOL     OW62646   0.138   5.170   1.545 -0.1950 -0.0742  0.1706
20402SOL    HW162647   0.058   5.199   1.589  0.4450  0.2565  1.1468
20402SOL    HW262648   0.189   5.250   1.532  0.7865 -0.5029  1.2428
20403SOL     OW62649   4.712   5.390   3.098 -0.4038 -0.3409  0.1921
20403SOL    HW162650   4.687   5.440   3.175 -2.2509 -1.2061  0.2056
20403SOL    HW262651   4.788   5.339   3.126  0.3090  0.9744  0.7472
20404SOL     OW62652   1.027   2.957   8.613  0.2407 -0.5244 -0.1815
20404SOL    HW162653   0.990   2.902   8.545  2.3213 -1.3355 -0.7469
20404SOL    HW262654   1.018   3.047   8.580 -0.2521 -0.7838 -0.7603
20405SOL     OW62655   7.387   1.583   6.915  0.1991 -0.0680  0.4112
20405SOL    HW162656   7.334   1.515   6.955  0.5428 -0.9279 -0.5570
20405SOL    HW262657   7.396   1.556   6.823  0.6220  1.1018  0.0872
20406SOL     OW62658   0.940   4.219   2.551 -0.2815 -0.0575  0.0463
20406SOL    HW162659   0.918   4.158   2.621  1.4669 -0.1762  0.5387
20406SOL    HW262660   0.894   4.300   2.574 -1.7248 -0.8256 -0.0266
20407SOL     OW62661   7.778   0.210   8.618 -0.3938 -0.6608 -0.4806
20407SOL    HW162662   7.690   0.182   8.644 -1.2865  0.4915 -2.0474
20407SOL    HW262663   7.800   0.154   8.543 -1.1198  0.9865 -2.0051
20408SOL     OW62664   0.221   5.773  10.612 -0.1113  0.2669 -0.4015
20408SOL    HW162665   0.275   5.845  10.644  0.7722 -0.7047  0.3799
20408SOL    HW262666   0.134   5.810  10.603  0.2755  1.3660  0.1919
20409SOL     OW62667   2.386   1.421   8.633 -0.4573  0.5221 -0.4045
20409SOL    HW162668   2.468   1.454   8.596 -0.3398 -0.8565 -1.4262
20409SOL    HW262669   2.326   1.420   8.559 -0.7979 -0.4117 -0.1195
20410SOL     OW62670   5.121   7.957   8.509 -0.0713  0.4889 -0.2051
20410SOL    HW162671   5.186   7.947   8.578 -1.0222  1.9989  0.9951
20410SOL    HW262672   5.071   7.875   8.509  0.8832 -0.0961 -0.1393
20411SOL     OW62673   5.944   2.015   4.973 -0.0214 -0.8857  0.1503
20411SOL    HW162674   5.907   2.072   5.040 -0.4211 -1.0177  0.0484
20411SOL    HW262675   6.004   2.071   4.924  2.9124 -1.5720  2.6865
20412SOL     OW62676   2.795   2.100  11.693 -0.0953 -0.2489  1.0325
20412SOL    HW162677   2.834   2.160  11.757 -0.8219 -0.1327  1.3815
20412SOL    HW262678   2.866   2.041  11.669  0.6824  0.8471  0.5551
20413SOL     OW62679   1.449   0.465   4.943 -0.4192  0.4661 -0.4221
20413SOL    HW162680   1.537   0.493   4.920 -0.4945  1.3329  0.2987
20413SOL    HW262681   1.394   0.542   4.926 -0.7315  0.5768  0.9507
20414SOL     OW62682   1.698   4.257   1.419  0.3482 -0.4570 -0.4820
20414SOL    HW162683   1.766   4.205   1.462 -1.0090 -2.1516 -0.2681
20414SOL    HW262684   1.630   4.267   1.486 -1.6070 -2.7509 -1.9587
20415SOL     OW62685   0.851   0.536   6.811  0.7267 -0.3004 -0.2091
20415SOL    HW162686   0.882   0.616   6.769  1.6896  0.8862  2.5247
20415SOL    HW262687   0.917   0.515   6.876 -0.4727 -2.2387  0.4970
20416SOL     OW62688   3.724   5.911   7.310 -0.2647 -0.8506  0.1233
20416SOL    HW162689   3.785   5.947   7.374  1.0957  0.3624 -1.7250
20416SOL    HW262690   3.758   5.824   7.291  0.1827 -0.6620  0.0334
20417SOL     OW62691   2.772   5.991   3.961  0.2525  0.3251  0.0888
20417SOL    HW162692   2.756   6.083   3.937 -0.0112  0.1874 -0.2701
20417SOL    HW262693   2.813   5.953   3.883 -1.1444 -0.2777 -0.3792
20418SOL     OW62694   4.778   6.316   6.439 -0.3312 -0.3821  0.0711
20418SOL    HW162695   4.743   6.237   6.398 -0.2551 -0.4716  0.1752
20418SOL    HW262696   4.746   6.312   6.529 -1.9549  0.7102 -0.4177
20419SOL     OW62697   7.210   2.044   2.719 -0.3679  0.2144 -0.2910
20419SOL    HW162698   7.199   2.108   2.790 -2.5844 -0.1466 -0.2283
20419SOL    HW262699   7.133   2.057   2.663  1.2469  0.3748 -2.5728
20420SOL     OW62700   4.402   1.145  10.719 -0.7545 -0.3881 -0.5172
20420SOL    HW162701   4.338   1.079  10.691 -0.2745 -0.3973 -1.6582
20420SOL    HW262702   4.350   1.212  10.763 -1.6700 -0.0509 -2.0366
20421SOL     OW62703   7.285   4.726   9.391 -0.1396 -0.2574 -0.1546
20421SOL    HW162704   7.364   4.672   9.382  0.7591  0.9100  0.3604
20421SOL    HW262705   7.226   4.674   9.445 -0.9568 -2.4136 -2.9094
20422SOL     OW62706   4.819   2.689   1.115  0.3019  0.1570 -0.1930
20422SOL    HW162707   4.794   2.597   1.106 -0.6886  0.5109 -1.3126
20422SOL    HW262708   4.857   2.694   1.202 -0.4512 -1.1383  0.2568
20423SOL     OW62709   7.321   2.729   2.941  0.3290  0.4338  0.0326
20423SOL    HW162710   7.281   2.810   2.908  0.1295  0.8076  1.1469
20423SOL    HW262711   7.357   2.686   2.863 -2.5170 -0.0945 -1.1008
20424SOL     OW62712   2.045   5.889   3.181  0.1490  0.4077 -0.9036
20424SOL    HW162713   2.000   5.816   3.139  0.3301 -0.1263 -0.1881
20424SOL    HW262714   2.075   5.854   3.265  2.7604  0.4140 -1.7227
20425SOL     OW62715   6.542   5.722   8.638  0.0160  0.2135 -0.1791
20425SOL    HW162716   6.520   5.774   8.561 -1.5567  0.3590  0.3289
20425SOL    HW262717   6.505   5.636   8.619 -0.4659  0.2794  0.4460
20426SOL     OW62718   0.859   2.107   0.782  0.3582 -0.6568 -0.5676
20426SOL    HW162719   0.861   2.037   0.848  0.1472  0.3496  0.5370
20426SOL    HW262720   0.770   2.105   0.747  0.3049 -0.8364 -0.4226
20427SOL     OW62721   7.906   0.436  11.075  0.1875 -0.4509  0.2910
20427SOL    HW162722   7.930   0.528  11.069  1.1855 -0.7809 -1.3935
20427SOL    HW262723   7.909   0.417  11.169 -0.0022  1.1995  0.6710
20428SOL     OW62724   4.337   1.254   5.559  0.4983  0.3036  0.2998
20428SOL    HW162725   4.394   1.214   5.494 -0.0473 -3.2954  1.7973
20428SOL    HW262726   4.365   1.217   5.643 -1.3846  1.6098  1.6112
20429SOL     OW62727   3.430   0.720   1.120  0.0834  0.4380  0.1883
20429SOL    HW162728   3.496   0.765   1.174  0.3903 -0.7597  0.8431
20429SOL    HW262729   3.386   0.661   1.181 -0.7773  0.3414 -0.5118
20430SOL     OW62730   6.212   0.135   1.787 -0.3839  0.5701 -0.3358
20430SOL    HW162731   6.235   0.096   1.871 -0.2399  0.4905 -0.4133
20430SOL    HW262732   6.292   0.176   1.756 -0.1758 -0.2538 -0.9051
20431SOL     OW62733   1.363   6.064   8.570 -0.2187  0.0856  0.2591
20431SOL    HW162734   1.332   5.992   8.624  1.0089 -0.8509 -0.2161
20431SOL    HW262735   1.349   6.142   8.623 -0.3491 -0.6504  1.3366
20432SOL     OW62736   7.061   2.785   4.053 -0.6533  0.5141 -0.2134
20432SOL    HW162737   7.012   2.761   3.974  0.9848  0.8350 -1.3798
20432SOL    HW262738   7.153   2.766   4.031 -0.1598  0.5896  1.6314
20433SOL     OW62739   3.026   1.752  10.856  0.1046 -0.0493 -0.3363
20433SOL    HW162740   3.001   1.755  10.948 -0.1453 -0.4239 -0.3877
20433SOL    HW262741   3.039   1.658  10.838 -0.6411 -0.0621 -0.8849
20434SOL     OW62742   4.088   0.653   1.292 -0.0819 -0.2816  0.7341
20434SOL    HW162743   4.140   0.575   1.314 -1.7116 -2.1200 -1.3753
20434SOL    HW262744   4.140   0.699   1.226  0.0703 -0.6396  0.6014
20435SOL     OW62745   5.394   7.759   0.701  0.1326  0.2209 -0.1388
20435SOL    HW162746   5.352   7.683   0.661 -0.3034  0.2541  0.2456
20435SOL    HW262747   5.396   7.739   0.794  1.3236  0.0534 -0.1831
20436SOL     OW62748   7.022   7.527  10.617 -0.5281  0.2886 -0.0043
20436SOL    HW162749   6.939   7.546  10.573  0.0594 -0.8778 -1.7027
20436SOL    HW262750   7.079   7.601  10.594 -1.0145  1.0066  1.0271
20437SOL     OW62751   1.821   2.086  12.460 -0.0326 -0.2166 -0.6645
20437SOL    HW162752   1.731   2.057  12.445 -0.5571  0.9477  0.0954
20437SOL    HW262753   1.865   2.009  12.497 -0.4678 -1.0579 -1.8435
20438SOL     OW62754   2.559   3.993   5.925  0.1433  0.4208  0.2646
20438SOL    HW162755   2.616   4.047   5.869  2.3326  1.0928  2.9224
20438SOL    HW262756   2.593   3.904   5.915  0.0291  0.4060 -0.0181
20439SOL     OW62757   1.444   2.762   8.351  0.3109  0.7522  0.4204
20439SOL    HW162758   1.397   2.713   8.419 -1.1164  0.4321 -0.7481
20439SOL    HW262759   1.469   2.843   8.394  1.8814 -0.5540  2.1254
20440SOL     OW62760   6.789   7.830   3.901  0.3768 -0.1526  0.1141
20440SOL    HW162761   6.878   7.800   3.885  0.4813 -0.6778  1.5421
20440SOL    HW262762   6.733   7.755   3.881  0.3288 -0.1228  0.1353
20441SOL     OW62763   6.619   2.964  11.404 -0.0783 -0.1554  0.6660
20441SOL    HW162764   6.654   2.956  11.315 -0.5035  1.2050  0.3425
20441SOL    HW262765   6.546   2.902  11.406  0.4638 -0.8213  0.3622
20442SOL     OW62766   4.221   1.618   7.400 -0.0922  0.6732 -0.4004
20442SOL    HW162767   4.168   1.599   7.478  0.5785  1.3132  0.2331
20442SOL    HW262768   4.217   1.538   7.348 -0.4887  0.2044  0.3304
20443SOL     OW62769   2.912   3.751   8.823  0.6406  0.1173  0.0045
20443SOL    HW162770   2.965   3.721   8.897 -0.1171  0.7801  0.8369
20443SOL    HW262771   2.845   3.684   8.812  0.9820 -0.1725 -0.3400
20444SOL     OW62772   6.348   7.952   1.303  0.9263  0.0438  0.3342
20444SOL    HW162773   6.341   8.020   1.371  1.3837  0.5526 -0.1181
20444SOL    HW262774   6.304   7.989   1.227  1.9683  0.2280 -0.2009
20445SOL     OW62775   7.912   2.728  12.196 -0.2736  0.0243  0.0219
20445SOL    HW162776   7.878   2.775  12.273  1.4110  0.1328  0.7380
20445SOL    HW262777   7.883   2.781  12.121 -0.3108  0.9794  0.6867
20446SOL     OW62778   0.443   5.879  11.040 -0.3726 -0.3776  0.1929
20446SOL    HW162779   0.396   5.797  11.024  0.5278 -0.7048 -0.9294
20446SOL    HW262780   0.477   5.904  10.954 -0.1510  0.8820  0.6234
20447SOL     OW62781   1.771   6.070  11.516 -0.4364  0.0613 -0.1681
20447SOL    HW162782   1.785   6.145  11.574 -0.4555  0.3760 -0.5673
20447SOL    HW262783   1.690   6.091  11.468 -0.0757  0.1059 -0.7713
20448SOL     OW62784   1.920   6.360   0.209 -0.4666  0.3064 -0.2627
20448SOL    HW162785   1.950   6.328   0.124  0.7674  0.5754  0.0526
20448SOL    HW262786   1.913   6.281   0.263  0.9069  0.3528  0.0162
20449SOL     OW62787   4.293   2.590   9.832 -0.4293  0.1894  0.5151
20449SOL    HW162788   4.345   2.563   9.908 -1.9138 -1.2733  1.0750
20449SOL    HW262789   4.358   2.622   9.768  1.0184 -0.3972  1.6382
20450SOL     OW62790   0.119   6.052   7.618 -0.1130 -0.3303  0.3200
20450SOL    HW162791   0.076   6.138   7.618  0.6975  0.0898  1.3442
20450SOL    HW262792   0.046   5.990   7.619 -0.7067  0.3512  0.5345
20451SOL     OW62793   7.642   2.736   5.912  0.4939  0.0392  0.4635
20451SOL    HW162794   7.585   2.728   5.836 -0.7324  1.3547  1.1996
20451SOL    HW262795   7.720   2.781   5.879 -0.4010  1.3911  0.1469
20452SOL     OW62796   0.665   3.479  10.705  0.6347  0.4243 -0.7002
20452SOL    HW162797   0.683   3.393  10.666 -0.4556  0.1421 -0.6172
20452SOL    HW262798   0.745   3.528  10.692  2.3078 -1.4508  1.6360
20453SOL     OW62799   6.252   3.186   0.788  0.0318 -0.4954  0.0619
20453SOL    HW162800   6.268   3.092   0.784  0.1707 -0.5475  1.4089
20453SOL    HW262801   6.328   3.222   0.834 -1.3954 -0.1531  2.3193
20454SOL     OW62802   3.632   2.797   4.655  0.3697  0.0164  0.7704
20454SOL    HW162803   3.669   2.723   4.607 -1.0440  0.3257 -0.8713
20454SOL    HW262804   3.544   2.768   4.680  0.2506  0.7165  1.1877
20455SOL     OW62805   3.340   1.694   6.319 -0.2498 -0.6752  0.0383
20455SOL    HW162806   3.341   1.785   6.346  2.0208 -0.2085 -1.3663
20455SOL    HW262807   3.274   1.690   6.250 -0.3683 -0.1135  0.1161
20456SOL     OW62808   4.491   4.081   2.471 -0.9478  0.1697  0.0656
20456SOL    HW162809   4.455   4.169   2.459  1.6488  1.1282 -1.4941
20456SOL    HW262810   4.545   4.088   2.550  0.7012  0.5571 -1.0509
20457SOL     OW62811   4.316   1.762  11.032 -0.0524  0.0212  0.6129
20457SOL    HW162812   4.358   1.684  10.994 -0.3913  0.1868 -0.1192
20457SOL    HW262813   4.226   1.757  11.002 -0.6337 -0.4231  2.3157
20458SOL     OW62814   2.901   3.085   9.550  0.0333  0.2121 -0.1995
20458SOL    HW162815   2.893   2.991   9.566 -1.2070  0.3277 -0.0496
20458SOL    HW262816   2.985   3.095   9.505 -0.9729 -1.2974 -2.5862
20459SOL     OW62817   2.150   6.087   2.204 -0.2327  0.4227 -0.3687
20459SOL    HW162818   2.214   6.110   2.137 -0.9803 -2.8132 -2.3900
20459SOL    HW262819   2.065   6.103   2.162 -0.7972  1.5474  1.1025
20460SOL     OW62820   3.537   5.656   4.991  0.2687 -0.3084 -0.2416
20460SOL    HW162821   3.536   5.605   4.910  0.5328 -0.2700 -0.2694
20460SOL    HW262822   3.456   5.707   4.989  0.2394 -0.3644 -0.4455
20461SOL     OW62823   7.621   7.287   7.019  0.9372  0.4931 -0.1237
20461SOL    HW162824   7.533   7.276   7.056  0.8778 -1.0164 -0.6324
20461SOL    HW262825   7.607   7.329   6.935  0.3872 -2.0160 -1.3823
20462SOL     OW62826   4.112   0.984   5.207  0.5746 -0.1665 -0.4498
20462SOL    HW162827   4.054   0.994   5.282  1.5268 -1.0870  0.4463
20462SOL    HW262828   4.089   1.056   5.148  0.3052  1.0288  1.0628
20463SOL     OW62829   7.473   1.950   8.305  0.3510 -0.0238  0.0332
20463SOL    HW162830   7.419   2.025   8.281  0.4365 -0.1999 -0.7210
20463SOL    HW262831   7.500   1.911   8.222 -0.0879 -1.1885  0.4130
20464SOL     OW62832   2.937   1.396   3.689  0.3564  0.3981  0.2137
20464SOL    HW162833   3.016   1.404   3.635 -0.1582 -1.1625 -0.8515
20464SOL    HW262834   2.870   1.443   3.640  0.1535 -0.0381  0.0711
20465SOL     OW62835   1.940   2.932  10.638 -0.0550 -0.2593 -0.0535
20465SOL    HW162836   1.938   2.924  10.734 -0.2101 -0.2531 -0.0554
20465SOL    HW262837   1.861   2.981  10.617  1.1294  1.8026 -0.0018
20466SOL     OW62838   6.731   4.414   1.118 -0.6450 -0.2617  0.7360
20466SOL    HW162839   6.685   4.498   1.122 -1.1281 -0.5021  0.2430
20466SOL    HW262840   6.692   4.362   1.189 -1.9728 -0.8742 -0.3959
20467SOL     OW62841   0.545   6.831   7.256  0.1566  0.4288 -0.1081
20467SOL    HW162842   0.586   6.809   7.173  1.6624  1.0098  0.4363
20467SOL    HW262843   0.615   6.873   7.307 -0.4613 -0.7071  1.7850
20468SOL     OW62844   3.987   1.027   2.965 -0.2106  0.0757  0.7023
20468SOL    HW162845   3.957   1.058   3.050  1.2865 -0.0926  1.3200
20468SOL    HW262846   3.999   0.932   2.976  0.4608  0.1262  0.4588
20469SOL     OW62847   5.244   6.085   7.454  0.1502 -0.2670 -0.0893
20469SOL    HW162848   5.183   6.013   7.434 -0.2018  0.0847 -0.2863
20469SOL    HW262849   5.188   6.153   7.491  0.6243 -0.4802  1.0622
20470SOL     OW62850   2.086   2.688  11.938  0.6264  0.4041 -0.2640
20470SOL    HW162851   2.162   2.630  11.927  1.6275  1.5123  0.5275
20470SOL    HW262852   2.080   2.700  12.033 -2.6234 -2.3094  0.0346
20471SOL     OW62853   3.346   3.980   6.907 -0.3478 -0.3350 -0.4141
20471SOL    HW162854   3.408   3.939   6.968  0.7055  0.0753 -1.1827
20471SOL    HW262855   3.303   3.906   6.864  0.7353 -0.6657 -0.9846
20472SOL     OW62856   5.392   5.255   8.873  0.7000 -0.3359  0.1689
20472SOL    HW162857   5.320   5.199   8.843 -0.2374  0.4536  0.8664
20472SOL    HW262858   5.367   5.343   8.844 -0.3926  0.5380  3.3025
20473SOL     OW62859   7.734   3.918   0.441  0.2427  0.0841 -0.1460
20473SOL    HW162860   7.700   3.876   0.362  0.5305  0.9731 -0.7659
20473SOL    HW262861   7.828   3.924   0.427  0.4875 -0.9565  0.8742
20474SOL     OW62862   6.892   6.850  11.705 -0.1428 -0.4716  0.5955
20474SOL    HW162863   6.881   6.933  11.659 -1.4892 -1.1740 -0.4296
20474SOL    HW262864   6.949   6.870  11.779 -2.0680  1.8111  1.5702
20475SOL     OW62865   5.894   2.795   1.539 -0.3441 -0.2370  0.1146
20475SOL    HW162866   5.905   2.719   1.482  1.5009 -0.6535  0.9424
20475SOL    HW262867   5.934   2.867   1.490  1.3007 -0.6081  0.8453
20476SOL     OW62868   1.372   3.203   5.749 -0.2155  0.3090 -0.1105
20476SOL    HW162869   1.426   3.262   5.803  0.5364  0.6065 -1.1515
20476SOL    HW262870   1.317   3.262   5.698 -0.0108  0.0827 -0.5935
20477SOL     OW62871   5.218   7.427   8.661 -0.1850  0.0845  0.0543
20477SOL    HW162872   5.139   7.421   8.715  0.3487 -0.9073  0.7491
20477SOL    HW262873   5.289   7.439   8.724  0.6206 -2.4667 -0.2808
20478SOL     OW62874   1.909   4.476  12.111  0.0103 -0.3899  0.1685
20478SOL    HW162875   1.942   4.386  12.112  0.2228 -0.3154 -0.1175
20478SOL    HW262876   1.959   4.522  12.177 -1.4087 -0.9420  1.6953
20479SOL     OW62877   0.078   2.206  11.300  0.5404 -0.2588  0.4316
20479SOL    HW162878   0.146   2.183  11.363 -1.6572 -0.1537  3.0947
20479SOL    HW262879   0.073   2.302  11.305 -1.2159 -0.3760  2.0379
20480SOL     OW62880   2.984   2.615  12.068  0.1729 -0.3778  0.1061
20480SOL    HW162881   2.914   2.669  12.031 -0.0576 -1.0227 -0.4243
20480SOL    HW262882   2.983   2.635  12.162 -1.8024 -1.5640  0.3793
20481SOL     OW62883   0.855   7.831   2.900  0.5349  0.0819 -0.1905
20481SOL    HW162884   0.915   7.903   2.916  0.6172 -0.3267  1.4866
20481SOL    HW262885   0.792   7.835   2.972  1.6116 -2.5723  1.0517
20482SOL     OW62886   7.888   0.325   8.323 -0.4401  0.9065  0.6002
20482SOL    HW162887   7.797   0.298   8.333 -0.2243  0.6693  2.3787
20482SOL    HW262888   7.895   0.406   8.373  0.5586  0.3072  1.4779
20483SOL     OW62889   4.415   7.686   9.946 -0.1652 -0.0097 -0.0843
20483SOL    HW162890   4.360   7.740   9.889  2.3965  1.4054 -1.3607
20483SOL    HW262891   4.380   7.701  10.034 -2.4332 -0.0385 -0.8942
20484SOL     OW62892   2.452   6.738   2.979 -0.6190 -0.3458 -0.0857
20484SOL    HW162893   2.427   6.660   2.930 -0.1260  0.4881 -1.7243
20484SOL    HW262894   2.514   6.706   3.045 -0.0798 -1.2908 -1.0238
20485SOL     OW62895   7.024   5.041   2.293 -0.2751  0.0278  0.1022
20485SOL    HW162896   6.981   4.972   2.243 -0.2634 -0.5156  0.8253
20485SOL    HW262897   7.113   5.008   2.306 -0.1366  0.3865  0.0606
20486SOL     OW62898   1.532   6.651  12.022  0.5662 -0.4212 -0.0817
20486SOL    HW162899   1.595   6.579  12.020  2.1002  0.7378  2.4966
20486SOL    HW262900   1.585   6.730  12.030 -1.1592  0.6233  1.8930
20487SOL     OW62901   0.836   0.730   0.210  0.0459  0.0938 -0.2151
20487SOL    HW162902   0.927   0.722   0.236  0.3196 -1.0033 -1.4482
20487SOL    HW262903   0.836   0.719   0.115 -1.3904 -0.1300 -0.2173
20488SOL     OW62904   1.286   3.066   6.373  0.6550 -0.1690  0.4124
20488SOL    HW162905   1.216   3.117   6.413 -1.3806 -1.5932 -1.1854
20488SOL    HW262906   1.251   2.977   6.365  2.2993 -0.7394 -1.2072
20489SOL     OW62907   3.799   6.718   9.777  0.0532  0.0383  0.0418
20489SOL    HW162908   3.711   6.754   9.790 -0.5249 -1.1638 -0.3963
20489SOL    HW262909   3.847   6.789   9.734 -0.4225  1.0441  1.1059
20490SOL     OW62910   3.151   1.736   0.999  0.7555  0.7015 -0.0873
20490SOL    HW162911   3.204   1.763   0.924  0.7340  2.7751  0.5767
20490SOL    HW262912   3.203   1.761   1.075  0.3070 -0.3869  0.5889
20491SOL     OW62913   5.125   7.016   0.515 -0.5729 -0.4219  0.3442
20491SOL    HW162914   5.065   7.089   0.523 -1.2296 -0.7818 -0.9236
20491SOL    HW262915   5.068   6.939   0.509  0.0505 -0.8825  0.2192
20492SOL     OW62916   4.598   4.290   5.155  0.8270  0.3635 -0.4093
20492SOL    HW162917   4.680   4.337   5.169  0.6928  0.5981 -0.4059
20492SOL    HW262918   4.620   4.222   5.091  0.9907  0.5173 -0.5174
20493SOL     OW62919   5.962   2.880  10.090  0.0822  0.0861  0.1319
20493SOL    HW162920   5.925   2.941  10.027  0.9610 -0.1474 -0.6191
20493SOL    HW262921   5.981   2.801  10.039  0.7078 -0.1424  0.7029
20494SOL     OW62922   1.163   2.446   0.027  0.2642  0.1389 -0.3622
20494SOL    HW162923   1.107   2.463  -0.049 -0.6826 -0.6759  0.1401
20494SOL    HW262924   1.102   2.431   0.099  1.1098 -1.0619  0.1348
20495SOL     OW62925   2.876   5.267  11.077 -0.4710 -0.1373 -0.5800
20495SOL    HW162926   2.877   5.351  11.124 -3.8527  0.6989 -1.6950
20495SOL    HW262927   2.817   5.212  11.129 -0.6715 -0.7528 -1.4464
20496SOL     OW62928   6.498   2.805   2.554  0.3073 -0.0538  0.2029
20496SOL    HW162929   6.409   2.841   2.552  0.5091  0.4455 -1.4153
20496SOL    HW262930   6.488   2.715   2.523  0.0556 -0.8649  2.4744
20497SOL     OW62931   5.544   2.147   3.574 -0.5102 -0.3441  0.2233
20497SOL    HW162932   5.461   2.158   3.619 -0.9774 -0.0917 -0.6731
20497SOL    HW262933   5.524   2.093   3.498  0.4314 -1.5048  0.7675
20498SOL     OW62934   2.310   7.674   6.142  0.1637  0.2277  0.0857
20498SOL    HW162935   2.366   7.621   6.086  0.4738  0.6067  0.0365
20498SOL    HW262936   2.283   7.747   6.086 -1.7431 -0.8140 -0.4401
20499SOL     OW62937   1.663   3.265   7.496 -0.0347  0.4682  0.3069
20499SOL    HW162938   1.617   3.181   7.487 -2.0554  1.6444 -1.3043
20499SOL    HW262939   1.593   3.329   7.513  1.1299  2.1455 -0.8687
20500SOL     OW62940   4.460   0.897   9.987 -0.2143 -0.3917 -0.1191
20500SOL    HW162941   4.545   0.854   9.988 -0.0139  0.0148  1.2226
20500SOL    HW262942   4.457   0.949  10.067 -1.1684  0.6986 -0.8249
20501SOL     OW62943   3.640   2.874   3.657  0.4750  0.0581 -0.0512
20501SOL    HW162944   3.729   2.862   3.625  0.0542  0.1878 -1.3285
20501SOL    HW262945   3.586   2.878   3.578 -0.7013 -0.2698  0.7008
20502SOL     OW62946   0.451   0.080   0.820 -0.0618 -0.4297  0.4196
20502SOL    HW162947   0.546   0.068   0.813 -0.0955  0.0332 -1.3397
20502SOL    HW262948   0.433   0.157   0.766 -1.4375 -0.4507  0.8142
20503SOL     OW62949   3.106   7.867   3.771  0.8921  0.0385  0.0405
20503SOL    HW162950   3.040   7.847   3.705  1.4528  2.2870 -1.3196
20503SOL    HW262951   3.160   7.935   3.731  2.5075  0.0585  2.0725
20504SOL     OW62952   5.004   1.895   7.392 -0.3533  0.4880 -0.0930
20504SOL    HW162953   4.982   1.804   7.376  0.3700  0.0921  1.0080
20504SOL    HW262954   5.095   1.893   7.422 -0.3720  1.5485  0.0806
20505SOL     OW62955   2.203   4.394   3.386  0.6758  0.2256 -0.1343
20505SOL    HW162956   2.251   4.351   3.456  1.7304  0.5055 -0.6760
20505SOL    HW262957   2.252   4.473   3.366 -0.4598  0.9590 -0.1477
20506SOL     OW62958   6.277   5.732   1.555 -0.4745  0.1133  0.4183
20506SOL    HW162959   6.261   5.682   1.636  0.1006  1.1115  1.1705
20506SOL    HW262960   6.333   5.676   1.503  2.6515  1.0310  2.4883
20507SOL     OW62961   1.515   6.930  10.228 -0.0667 -0.0456 -0.0901
20507SOL    HW162962   1.485   6.905  10.141  0.0746  0.8730 -0.4146
20507SOL    HW262963   1.552   6.850  10.265  1.5140 -0.0516 -1.5759
20508SOL     OW62964   5.780   4.878   3.972 -0.8510 -0.7009  0.5429
20508SOL    HW162965   5.785   4.848   3.882 -0.2200  1.3868 -0.1671
20508SOL    HW262966   5.838   4.819   4.020 -0.7172 -1.4496 -0.5048
20509SOL     OW62967   3.190   4.041   1.871  0.0279  0.0132  0.1830
20509SOL    HW162968   3.213   4.007   1.957  0.5972 -0.5870 -0.1982
20509SOL    HW262969   3.205   4.136   1.879 -0.4138  0.0324  0.8866
20510SOL     OW62970   7.079   7.066   6.612 -0.3064 -0.0769 -0.3004
20510SOL    HW162971   7.113   7.132   6.672 -1.5448 -1.0979  1.6359
20510SOL    HW262972   6.990   7.093   6.593 -0.8301 -1.1279  0.5169
20511SOL     OW62973   6.983   0.893   3.195 -0.1277 -0.1779 -0.2742
20511SOL    HW162974   7.029   0.904   3.278  0.3351 -2.1247 -0.2150
20511SOL    HW262975   6.976   0.981   3.159 -1.9794  1.0562  2.6545
20512SOL     OW62976   4.946   5.579   5.100 -0.1149  0.2477 -0.4282
20512SOL    HW162977   4.943   5.593   5.195 -1.5195 -2.2715  0.0014
20512SOL    HW262978   4.991   5.495   5.090 -0.6752  0.1038 -1.9336
20513SOL     OW62979   4.782   6.254  11.590  0.0689  0.3020 -0.9579
20513SOL    HW162980   4.736   6.309  11.653  1.4557  1.5218 -0.9551
20513SOL    HW262981   4.715   6.230  11.526 -1.0546  0.1580  0.2300
20514SOL     OW62982   4.051   6.802  11.510 -0.0794 -0.1411 -0.1268
20514SOL    HW162983   3.974   6.745  11.515  0.2135 -0.4575  0.9089
20514SOL    HW262984   4.110   6.769  11.577  0.6953  0.5107 -0.4703
20515SOL     OW62985   1.487   0.877   3.390  0.2169  0.0367  0.0821
20515SOL    HW162986   1.558   0.867   3.453 -0.4793  1.2709  1.1087
20515SOL    HW262987   1.528   0.864   3.305  1.6529  0.6192  0.6618
20516SOL     OW62988   4.239   4.834   2.580 -0.4983 -0.0192 -0.0346
20516SOL    HW162989   4.154   4.843   2.538 -0.1217  2.5533 -0.3657
20516SOL    HW262990   4.220   4.831   2.673 -0.9607  0.6849 -0.1001
20517SOL     OW62991   6.101   7.629   6.125  0.4679  0.2609 -1.0014
20517SOL    HW162992   6.102   7.693   6.054  1.0067  0.7373 -0.5830
20517SOL    HW262993   6.191   7.631   6.158  0.4323 -0.5694 -0.8531
20518SOL     OW62994   3.036   1.169  10.940 -0.2813  0.3555 -0.0567
20518SOL    HW162995   3.070   1.085  10.911  1.0583  0.7401  0.3299
20518SOL    HW262996   2.942   1.165  10.920  0.0014 -0.6716 -1.3033
20519SOL     OW62997   7.881   0.632   4.945  0.1116 -0.3682  0.1509
20519SOL    HW162998   7.802   0.579   4.937  0.8113 -1.3115 -0.7313
20519SOL    HW262999   7.924   0.601   5.025  0.6557 -1.3623 -0.5028
20520SOL     OW63000   6.986   4.251  11.361 -0.3538 -0.3139  0.6717
20520SOL    HW163001   7.044   4.289  11.427 -0.1751  2.2341 -0.8327
20520SOL    HW263002   7.041   4.190  11.313  0.3190 -0.0108  1.0456
20521SOL     OW63003   5.790   0.166   9.241 -0.0814 -0.1739 -0.8349
20521SOL    HW163004   5.785   0.202   9.152  0.0185  0.5339 -0.5575
20521SOL    HW263005   5.737   0.225   9.294  2.1716  1.1323  0.1197
20522SOL     OW63006   6.128   0.079   1.520  0.2242 -1.1459  0.3330
20522SOL    HW163007   6.157   0.088   1.610  1.0947 -1.8791  0.1353
20522SOL    HW263008   6.096  -0.011   1.513 -1.9446 -0.4491  0.4809
20523SOL     OW63009   2.166   2.561   2.372  0.1419  0.1890  0.1770
20523SOL    HW163010   2.240   2.621   2.382 -0.0108  0.3778  0.1876
20523SOL    HW263011   2.097   2.598   2.428 -0.6273  1.1005 -1.3225
20524SOL     OW63012   2.532   7.619   4.625  0.1523  0.2094  0.2945
20524SOL    HW163013   2.614   7.571   4.629 -1.1418 -2.0887  1.2844
20524SOL    HW263014   2.542   7.689   4.689  0.3404 -1.8380  2.6384
20525SOL     OW63015   3.686   1.013   8.898  0.1368 -0.0914  0.0903
20525SOL    HW163016   3.702   1.076   8.828 -0.1661 -0.9035 -0.7197
20525SOL    HW263017   3.598   0.979   8.881  0.6461 -1.4110 -0.0349
20526SOL     OW63018   3.409   2.038   2.726 -0.1762 -0.2573  0.0422
20526SOL    HW163019   3.435   2.130   2.731  0.4649 -0.4787  1.3908
20526SOL    HW263020   3.473   1.992   2.782 -0.3798 -1.5449 -0.7304
20527SOL     OW63021   4.439   0.546   4.204 -0.0890  0.4232 -0.5855
20527SOL    HW163022   4.351   0.540   4.242 -0.1706  0.5897 -0.7503
20527SOL    HW263023   4.426   0.537   4.110  0.2600 -1.4564 -0.4800
20528SOL     OW63024   6.902   3.749   9.183 -0.0101  0.8229 -0.2146
20528SOL    HW163025   6.910   3.764   9.277  0.1380  0.7814 -0.2198
20528SOL    HW263026   6.962   3.677   9.165 -1.3521 -0.3807 -0.0497
20529SOL     OW63027   6.846   6.894   3.240  0.0338  0.2437  0.1950
20529SOL    HW163028   6.757   6.889   3.276  0.7804 -1.3398  1.9386
20529SOL    HW263029   6.879   6.979   3.269 -1.4073  1.6100 -1.8626
20530SOL     OW63030   2.188   0.068   3.063  0.2659 -0.5428 -0.5654
20530SOL    HW163031   2.105   0.084   3.016  0.1182 -0.2329 -0.2015
20530SOL    HW263032   2.242   0.020   3.000  0.0520 -0.1695 -1.0428
20531SOL     OW63033   1.950   1.937   1.553  0.2755 -0.2605  0.0832
20531SOL    HW163034   2.029   1.890   1.580  0.5015  0.3697  0.5259
20531SOL    HW263035   1.982   2.005   1.493  0.3169  1.2140  1.7210
20532SOL     OW63036   0.540   6.505   7.860 -0.1333  0.0781  0.0621
20532SOL    HW163037   0.570   6.595   7.869  0.8972 -0.0854 -1.4230
20532SOL    HW263038   0.603   6.465   7.799 -1.9391 -0.9896 -1.1766
20533SOL     OW63039   3.159   3.841   0.155  0.3274 -0.7583 -0.3525
20533SOL    HW163040   3.221   3.831   0.227  0.0557  0.1810  0.0251
20533SOL    HW263041   3.196   3.912   0.102 -0.0255 -0.7169 -0.5425
20534SOL     OW63042   6.401   3.685   0.681  0.1356 -0.0501 -0.0180
20534SOL    HW163043   6.377   3.605   0.728  1.6953 -0.8336 -0.4631
20534SOL    HW263044   6.411   3.751   0.749 -0.2649 -0.4718  0.4586
20535SOL     OW63045   0.340   1.740   6.066  0.0847 -0.0911  0.1207
20535SOL    HW163046   0.319   1.650   6.043  2.1709 -0.1625 -1.9655
20535SOL    HW263047   0.408   1.733   6.133  0.4704 -0.1155 -0.2635
20536SOL     OW63048   2.614   7.561  11.019 -0.1601  0.2332  0.0565
20536SOL    HW163049   2.683   7.536  11.081  0.5445 -0.6835 -1.0581
20536SOL    HW263050   2.616   7.657  11.018 -0.4265  0.2830  1.6891
20537SOL     OW63051   3.018   4.446  12.410 -0.5718 -0.6693 -0.1864
20537SOL    HW163052   3.090   4.509  12.405 -1.2115  0.1518  0.6582
20537SOL    HW263053   2.961   4.480  12.479 -0.9125 -2.2031  0.3207
20538SOL     OW63054   4.331   5.034   5.729 -0.2936  0.1874  0.7933
20538SOL    HW163055   4.287   5.009   5.648  0.3950  0.8790  0.1866
20538SOL    HW263056   4.260   5.055   5.790 -0.8950  3.4784 -0.8425
20539SOL     OW63057   2.933   7.519   8.145 -0.2531  0.1702 -0.2299
20539SOL    HW163058   2.943   7.463   8.069 -0.6336  0.5524 -0.5675
20539SOL    HW263059   2.957   7.607   8.115  1.6738 -0.0157  0.6483
20540SOL     OW63060   5.923   2.674  12.133  0.3261 -0.4435  0.7083
20540SOL    HW163061   5.884   2.647  12.217  0.9180 -3.7201  0.0836
20540SOL    HW263062   5.993   2.734  12.158 -0.0543 -0.6781  2.4986
20541SOL     OW63063   6.617   4.079   4.306  0.4421  0.0109  0.3174
20541SOL    HW163064   6.594   4.096   4.397  0.1376 -2.1824  0.7182
20541SOL    HW263065   6.630   4.165   4.267  1.4705  0.9729  2.6408
20542SOL     OW63066   1.843   4.926   6.192  0.5227 -0.3075 -0.4181
20542SOL    HW163067   1.923   4.925   6.139 -0.4980 -1.1791 -2.0183
20542SOL    HW263068   1.809   4.837   6.186 -1.5960  0.4968 -1.4320
20543SOL     OW63069   4.201   6.084   3.148 -0.0663 -0.0738 -0.2467
20543SOL    HW163070   4.150   6.124   3.218 -1.7376  2.6213 -2.7802
20543SOL    HW263071   4.261   6.153   3.119  1.7481 -1.6623 -0.4903
20544SOL     OW63072   1.982   1.960   9.003  1.0168 -0.5916 -0.7222
20544SOL    HW163073   1.958   1.869   9.021  1.9321 -0.6816  0.1306
20544SOL    HW263074   1.988   2.001   9.089 -1.0186  0.7449 -1.1489
20545SOL     OW63075   4.753   1.049  12.382 -0.6004  0.3634 -0.3110
20545SOL    HW163076   4.758   1.106  12.305 -0.4050 -0.1282 -0.6720
20545SOL    HW263077   4.669   1.003  12.372  0.1992 -1.0053 -1.1945
20546SOL     OW63078   4.883   4.445   1.104  0.1437  0.5637  0.0588
20546SOL    HW163079   4.837   4.410   1.180  0.6269  0.1607  0.1719
20546SOL    HW263080   4.847   4.533   1.092  0.8149  1.0532  1.4017
20547SOL     OW63081   1.474   5.354   8.132 -0.3913  0.3830  0.1371
20547SOL    HW163082   1.443   5.386   8.217 -1.0974  0.6401 -0.2135
20547SOL    HW263083   1.419   5.277   8.114 -0.4808  0.5402 -0.2520
20548SOL     OW63084   6.565   2.251   4.367 -0.1797 -0.0054  0.2208
20548SOL    HW163085   6.616   2.326   4.336 -0.1523 -0.6777 -1.5010
20548SOL    HW263086   6.476   2.269   4.336 -0.5926  0.2245  1.5010
20549SOL     OW63087   3.362   5.754  11.091  0.1745  0.0846  0.2158
20549SOL    HW163088   3.328   5.838  11.121  1.3716  0.3492  0.8607
20549SOL    HW263089   3.445   5.775  11.049 -0.4034 -0.5614 -1.3546
20550SOL     OW63090   6.716   5.951   9.323  0.1961  0.1063 -0.1128
20550SOL    HW163091   6.776   5.988   9.259  1.3596  0.4709  1.1460
20550SOL    HW263092   6.642   5.920   9.271  0.8501  0.8767 -1.5648
20551SOL     OW63093   6.862   3.598   6.645  0.4668  0.1625 -0.1331
20551SOL    HW163094   6.907   3.605   6.561  1.1750  0.6963  0.2798
20551SOL    HW263095   6.829   3.508   6.648  0.7818  0.0219 -0.8058
20552SOL     OW63096   7.022   5.008   5.367  0.0395 -0.1408 -0.1019
20552SOL    HW163097   7.068   4.945   5.311 -0.0429 -0.8604  0.6213
20552SOL    HW263098   6.974   5.063   5.306  0.6662 -0.3369 -0.7882
20553SOL     OW63099   3.503   5.315   4.756  0.0913 -0.2804 -0.5308
20553SOL    HW163100   3.576   5.254   4.765  0.4420  0.3407  1.0801
20553SOL    HW263101   3.436   5.282   4.815 -0.1975  0.2006 -0.5823
20554SOL     OW63102   4.806   7.323   6.260 -0.5949  0.5526  0.1186
20554SOL    HW163103   4.857   7.375   6.199  0.3467 -0.7881 -0.2886
20554SOL    HW263104   4.747   7.272   6.205 -2.0169  1.6746  0.5550
20555SOL     OW63105   5.935   7.034   5.287  0.4678 -0.7358  0.0890
20555SOL    HW163106   5.915   7.127   5.280  1.1869 -0.3762  2.0959
20555SOL    HW263107   5.853   6.990   5.266  0.0051  0.3431 -0.4604
20556SOL     OW63108   7.567   7.912   5.401  0.1645  0.0945  0.1674
20556SOL    HW163109   7.662   7.907   5.403  0.0987 -1.9441 -0.0353
20556SOL    HW263110   7.538   7.856   5.473 -0.9110  2.1911  1.4905
20557SOL     OW63111   3.204   2.174   3.105 -0.2895 -0.5200  0.2668
20557SOL    HW163112   3.160   2.182   3.189  0.1867 -1.8496  0.6640
20557SOL    HW263113   3.152   2.109   3.057  1.1463 -2.0648  0.7183
20558SOL     OW63114   5.622   1.246   8.212  0.1079  0.0902  0.7871
20558SOL    HW163115   5.681   1.262   8.138 -1.6179  1.6200 -0.3474
20558SOL    HW263116   5.537   1.229   8.172 -0.7178  0.2014  2.4078
20559SOL     OW63117   6.908   6.625  11.135 -0.4092 -0.4616  0.2893
20559SOL    HW163118   6.860   6.698  11.175  0.2810  0.5739 -0.7131
20559SOL    HW263119   7.000   6.646  11.151 -0.1890 -0.8614 -0.4364
20560SOL     OW63120   0.226   0.976   9.996 -0.3175 -0.6749 -0.1913
20560SOL    HW163121   0.135   0.962  10.022 -0.9164  2.3213 -0.2922
20560SOL    HW263122   0.221   1.020   9.911  1.1779  0.0966  0.0761
20561SOL     OW63123   2.767   3.553   3.277 -0.0036  0.5024  0.1909
20561SOL    HW163124   2.697   3.615   3.298  0.0718  0.4233  0.6746
20561SOL    HW263125   2.745   3.474   3.327  0.3653  0.4359  0.2494
20562SOL     OW63126   3.309   2.046  10.466  0.2194  0.3105  0.5903
20562SOL    HW163127   3.366   1.974  10.439  0.9566  0.0716  2.6227
20562SOL    HW263128   3.291   2.029  10.558 -1.4843  1.5181  0.5248
20563SOL     OW63129   1.220   1.340   3.602  0.0818 -0.1104  0.3661
20563SOL    HW163130   1.193   1.263   3.653 -2.5864  0.7562  0.3994
20563SOL    HW263131   1.154   1.406   3.621  0.7743  1.3063 -1.7581
20564SOL     OW63132   4.449   0.704   0.825 -0.2045  0.0895  0.3064
20564SOL    HW163133   4.502   0.661   0.758  1.0445  0.5994  0.9460
20564SOL    HW263134   4.474   0.796   0.821 -0.0512  0.1184  1.5091
20565SOL     OW63135   3.013   1.986   3.010 -0.3871  0.3973 -0.6980
20565SOL    HW163136   2.918   1.991   3.000 -0.4431  0.1865 -0.3111
20565SOL    HW263137   3.026   1.925   3.082 -0.0491  2.2422  0.9019
20566SOL     OW63138   4.305   3.127   9.610  0.7174  0.2231 -0.1154
20566SOL    HW163139   4.340   3.163   9.692 -1.9700 -0.4493  1.4267
20566SOL    HW263140   4.246   3.194   9.577  0.5591 -0.1745 -0.6645
20567SOL     OW63141   4.235   7.376   8.937  0.4761  0.2663 -0.7197
20567SOL    HW163142   4.265   7.384   9.028  0.5982  1.2839 -0.8311
20567SOL    HW263143   4.313   7.349   8.888  0.3079 -0.7088 -0.4709
20568SOL     OW63144   4.475   0.234   7.557  0.0093  0.1843  0.3137
20568SOL    HW163145   4.468   0.152   7.607 -0.0496 -1.0370 -1.6266
20568SOL    HW263146   4.466   0.303   7.624  1.6359 -1.3457  2.2492
20569SOL     OW63147   3.532   6.195   2.493 -0.4331  0.2395 -0.3742
20569SOL    HW163148   3.459   6.135   2.508 -1.7655  2.2328  1.5912
20569SOL    HW263149   3.519   6.226   2.403 -2.4755  1.1070  0.1766
20570SOL     OW63150   7.267   5.145   5.466  0.1478 -0.5343 -0.0234
20570SOL    HW163151   7.217   5.068   5.441 -0.8571 -0.0070  0.3157
20570SOL    HW263152   7.241   5.162   5.557  1.9641 -1.0377  0.6529
20571SOL     OW63153   3.562   3.612   6.913  0.1191  0.3441 -0.4738
20571SOL    HW163154   3.478   3.565   6.910  0.4489 -0.2073 -1.8980
20571SOL    HW263155   3.620   3.554   6.963  0.6241 -1.0045 -2.5108
20572SOL     OW63156   6.837   1.032   5.149 -0.4150 -0.0837  0.5438
20572SOL    HW163157   6.785   1.112   5.159 -0.8650 -0.4196  0.9106
20572SOL    HW263158   6.906   1.056   5.088 -1.1439  0.2946 -0.1426
20573SOL     OW63159   3.066   3.945  10.480 -0.0660 -0.0473  0.0346
20573SOL    HW163160   3.059   3.981  10.392  1.6882  1.6561  0.5094
20573SOL    HW263161   3.001   3.994  10.531  0.0224  0.1101 -0.0020
20574SOL     OW63162   7.215   6.445   6.292 -0.3709 -0.2486 -0.1625
20574SOL    HW163163   7.253   6.364   6.325 -1.5220 -0.1541  1.5606
20574SOL    HW263164   7.274   6.472   6.221  0.8963 -1.7611  0.2429
20575SOL     OW63165   2.911   4.845   9.518 -0.0435  0.1338 -0.6888
20575SOL    HW163166   2.821   4.837   9.488 -0.0408  0.8560 -0.9033
20575SOL    HW263167   2.958   4.777   9.469 -0.5643 -0.6324 -0.1500
20576SOL     OW63168   5.409   1.163   2.220  0.1519  0.1207  0.1269
20576SOL    HW163169   5.501   1.189   2.225  0.2157  0.0943 -0.6998
20576SOL    HW263170   5.380   1.158   2.311  1.5194 -1.8449  0.4956
20577SOL     OW63171   3.692   6.929   1.500 -0.7294  0.3830 -0.8086
20577SOL    HW163172   3.700   7.024   1.499  0.0066  0.3280 -1.0561
20577SOL    HW263173   3.759   6.900   1.562 -0.2916 -0.0194 -1.4520
20578SOL     OW63174   5.358   5.417   4.351  0.6854  0.1346 -0.4215
20578SOL    HW163175   5.311   5.456   4.277  0.1907  0.5324  0.0918
20578SOL    HW263176   5.341   5.323   4.343 -0.4593  0.3027 -0.0684
20579SOL     OW63177   5.534   7.592   5.591  0.1760 -0.1154  0.3754
20579SOL    HW163178   5.519   7.510   5.544  0.5545  0.3483 -0.5788
20579SOL    HW263179   5.561   7.564   5.679  0.6346 -1.0231 -0.0387
20580SOL     OW63180   0.888   4.470   7.987 -0.6830 -0.4119  0.3891
20580SOL    HW163181   0.875   4.556   8.028 -1.3222 -1.0200  1.5135
20580SOL    HW263182   0.837   4.410   8.041  1.3834 -1.8430  0.8626
20581SOL     OW63183   6.576   6.803  10.085 -0.0785  0.4491  0.1255
20581SOL    HW163184   6.481   6.800  10.094 -0.0452  0.9555  0.7550
20581SOL    HW263185   6.599   6.721  10.043 -0.7575  0.1483  0.3251
20582SOL     OW63186   6.682   5.893   6.360  0.3059 -0.6636 -0.0326
20582SOL    HW163187   6.594   5.905   6.395  0.9679 -1.2256  1.9245
20582SOL    HW263188   6.735   5.958   6.406  1.3291 -1.8638  0.5309
20583SOL     OW63189   2.959   1.779  11.994  0.2246 -0.0148  0.6817
20583SOL    HW163190   2.959   1.864  12.037 -1.1400 -0.1493  0.9746
20583SOL    HW263191   2.900   1.725  12.046  1.4563 -1.3212  0.7998
20584SOL     OW63192   5.019   0.271   8.049  0.0813 -0.4263 -0.0362
20584SOL    HW163193   5.112   0.251   8.040 -0.5165 -2.7500 -2.3019
20584SOL    HW263194   5.014   0.366   8.041  2.3197 -0.1530  1.2055
20585SOL     OW63195   3.584   6.592  11.951  0.4808 -0.0457 -0.3494
20585SOL    HW163196   3.615   6.506  11.978 -0.2836  0.3709  2.0095
20585SOL    HW263197   3.662   6.634  11.913  1.4408 -0.9481  0.5562
20586SOL     OW63198   5.098   7.648   7.918 -0.2232 -0.9029 -0.3843
20586SOL    HW163199   5.185   7.610   7.935  0.2384 -0.4259 -1.5691
20586SOL    HW263200   5.037   7.578   7.940  0.3758 -0.8598  1.6433
20587SOL     OW63201   4.540   2.796   6.151  0.1564  0.5234 -0.0058
20587SOL    HW163202   4.534   2.749   6.068 -0.5778  1.2078 -0.3557
20587SOL    HW263203   4.460   2.771   6.198 -0.2099  1.3333 -0.1667
20588SOL     OW63204   2.321   3.773   0.132 -0.4169  0.4777 -0.2055
20588SOL    HW163205   2.401   3.780   0.081 -0.2487 -1.2539 -0.2513
20588SOL    HW263206   2.255   3.820   0.081  0.1281  0.2169 -1.1662
20589SOL     OW63207   5.724   2.182  10.191 -0.1159 -0.2568 -0.6316
20589SOL    HW163208   5.733   2.163  10.284 -1.0838 -0.5756 -0.5984
20589SOL    HW263209   5.812   2.166  10.155  0.0842 -0.8523  0.0985
20590SOL     OW63210   4.863   1.841  11.319  0.2520  0.3211  0.6277
20590SOL    HW163211   4.831   1.924  11.353 -0.7737 -0.3171  1.2468
20590SOL    HW263212   4.812   1.774  11.364  2.1257 -0.7377  1.3126
20591SOL     OW63213   0.551   7.715   3.381 -0.5921 -0.2063  0.1758
20591SOL    HW163214   0.524   7.629   3.348 -0.5025 -0.3442  0.4596
20591SOL    HW263215   0.570   7.700   3.474 -2.7570  0.5843  0.8066
20592SOL     OW63216   3.384   4.270   6.975 -0.8861  0.1134  0.0017
20592SOL    HW163217   3.312   4.218   7.010  0.1251 -0.5559  1.1631
20592SOL    HW263218   3.443   4.284   7.049 -0.3001  1.5025 -0.6827
20593SOL     OW63219   0.914   3.646  10.305 -0.3407  0.4733  0.1082
20593SOL    HW163220   0.998   3.664  10.346 -1.4638  1.1108  2.2822
20593SOL    HW263221   0.871   3.731  10.298 -2.2118 -0.1419  2.4846
20594SOL     OW63222   5.926   6.695   8.800  0.2578 -0.1421 -0.2654
20594SOL    HW163223   5.867   6.748   8.853  0.7871  0.2839 -0.0959
20594SOL    HW263224   5.903   6.717   8.710  1.9092  2.0503 -0.2253
20595SOL     OW63225   4.469   4.504   0.956  0.2933 -0.0681 -0.6565
20595SOL    HW163226   4.409   4.440   0.920 -0.7056  1.1591 -1.2587
20595SOL    HW263227   4.552   4.487   0.912 -0.0589 -0.6989 -1.0860
20596SOL     OW63228   4.818   3.979  10.576  0.1565 -0.1097 -0.7093
20596SOL    HW163229   4.740   3.969  10.522 -0.3762 -0.9160  0.1778
20596SOL    HW263230   4.859   3.892  10.576  0.1866 -0.1073  0.1075
20597SOL     OW63231   7.045   3.329  10.380 -0.6842  0.1132 -0.0149
20597SOL    HW163232   7.140   3.329  10.392 -0.5225  0.1368 -1.1759
20597SOL    HW263233   7.031   3.373  10.296 -1.8367  1.5918  0.8909
20598SOL     OW63234   6.063   3.633  11.185  0.2118 -0.8226  0.2549
20598SOL    HW163235   5.987   3.690  11.195  1.1552  0.4714  0.1944
20598SOL    HW263236   6.046   3.585  11.104 -0.1258  0.0866 -0.2153
20599SOL     OW63237   6.291   1.524   4.917  0.2445 -0.3731 -0.0224
20599SOL    HW163238   6.268   1.522   4.825  1.1280 -1.4599 -0.2357
20599SOL    HW263239   6.214   1.490   4.962 -0.2660  0.3544 -0.3235
20600SOL     OW63240   7.345   5.347   0.521  0.1460 -0.3392 -0.2414
20600SOL    HW163241   7.358   5.292   0.444  0.2341 -1.2953  0.4379
20600SOL    HW263242   7.286   5.296   0.577 -0.3510  0.5766  0.0923
20601SOL     OW63243   5.578   3.807  11.778  0.5330  0.0976 -0.1896
20601SOL    HW163244   5.611   3.816  11.689  1.3742  0.8452  0.1748
20601SOL    HW263245   5.645   3.849  11.832  0.2956 -0.7943  0.8420
20602SOL     OW63246   1.388   2.382   4.822 -0.0503  0.0668  0.7808
20602SOL    HW163247   1.320   2.448   4.833 -1.0826 -0.8865  0.2411
20602SOL    HW263248   1.403   2.348   4.910 -1.9334 -1.3082  0.6280
20603SOL     OW63249   5.796   5.415  12.007  0.4178  0.3209 -0.2584
20603SOL    HW163250   5.833   5.346  12.063  3.7158 -0.9516 -3.6174
20603SOL    HW263251   5.852   5.491  12.023  1.1006  0.0803 -1.3855
20604SOL     OW63252   5.321   6.444   6.569 -0.3292 -0.3408 -0.0027
20604SOL    HW163253   5.365   6.511   6.621  2.1479 -1.2232 -0.8394
20604SOL    HW263254   5.235   6.482   6.550  0.7011  2.2783  0.1543
20605SOL     OW63255   3.171   1.568   9.242 -0.1797  0.1521  0.4414
20605SOL    HW163256   3.105   1.631   9.210 -1.0342 -0.8877  0.1010
20605SOL    HW263257   3.174   1.584   9.337 -0.6433  0.4778  0.4094
20606SOL     OW63258   0.637   2.248   6.586 -0.0112 -0.0458 -0.3229
20606SOL    HW163259   0.559   2.249   6.642 -0.2275 -0.7389 -0.5938
20606SOL    HW263260   0.606   2.210   6.503  0.5134  0.0952 -0.5876
20607SOL     OW63261   7.803   4.476   9.020  0.3797  0.4048  0.5497
20607SOL    HW163262   7.830   4.564   9.045 -0.0182  0.0762  2.2667
20607SOL    HW263263   7.746   4.489   8.944 -0.5513  1.7379  1.4461
20608SOL     OW63264   5.469   0.286  11.825  0.2579  0.1889  0.1129
20608SOL    HW163265   5.501   0.347  11.758 -2.8037  1.9225  0.0545
20608SOL    HW263266   5.512   0.316  11.906  1.1352  0.4264 -0.4207
20609SOL     OW63267   4.815   0.636   1.976  0.9535 -0.5316  0.2875
20609SOL    HW163268   4.774   0.617   1.891  0.4183 -0.8697  0.6136
20609SOL    HW263269   4.877   0.564   1.989  1.7641  0.0539 -0.2699
20610SOL     OW63270   7.108   4.544   7.678  0.1152 -0.3437  0.7115
20610SOL    HW163271   7.100   4.596   7.757  0.9028  0.7363  0.1125
20610SOL    HW263272   7.032   4.569   7.625 -0.2656 -0.8672  0.9960
20611SOL     OW63273   0.004   0.241   7.178 -0.1058  0.1512  0.1550
20611SOL    HW163274   0.069   0.210   7.115 -0.7111 -1.8246  0.4293
20611SOL    HW263275  -0.033   0.161   7.216 -2.6712  1.1864  0.0349
20612SOL     OW63276   3.817   3.456   1.890  0.3611 -0.6353 -0.4741
20612SOL    HW163277   3.854   3.479   1.804  1.1060 -0.1274 -0.0267
20612SOL    HW263278   3.836   3.532   1.946 -3.4848  0.7977 -0.7748
20613SOL     OW63279   7.121   0.637  10.700 -0.2248 -0.2795 -0.0405
20613SOL    HW163280   7.145   0.726  10.675 -0.6050 -0.1322  0.1094
20613SOL    HW263281   7.078   0.601  10.622 -0.3389 -0.2295 -0.0006
20614SOL     OW63282   6.009   1.732   1.278 -0.4841 -0.0353 -0.2382
20614SOL    HW163283   5.967   1.656   1.318  0.4661  0.0891  1.0818
20614SOL    HW263284   6.051   1.697   1.200 -0.3558 -0.8096  0.1634
20615SOL     OW63285   5.781   0.133  11.693 -0.4946  0.1062  0.1285
20615SOL    HW163286   5.773   0.186  11.772  1.0984  0.1905  0.2812
20615SOL    HW263287   5.716   0.169  11.633 -0.4647  1.2709  0.7579
20616SOL     OW63288   7.839   5.639   6.821 -0.0960  0.4057  0.6751
20616SOL    HW163289   7.931   5.652   6.801  0.0100 -1.8113 -0.5628
20616SOL    HW263290   7.802   5.597   6.743 -2.2597  1.5646  0.9831
20617SOL     OW63291   2.280   6.493   0.311  0.3604  0.2207  0.3451
20617SOL    HW163292   2.223   6.477   0.386  0.0775 -1.8948 -0.2512
20617SOL    HW263293   2.235   6.450   0.238  1.4508  0.7793 -0.6818
20618SOL     OW63294   0.850   6.230   6.159 -0.3024 -0.1776 -0.6253
20618SOL    HW163295   0.873   6.290   6.088 -1.6870 -0.5112 -1.3837
20618SOL    HW263296   0.862   6.143   6.122  0.1564 -0.3714 -0.0387
20619SOL     OW63297   5.309   1.201   3.160 -0.6541 -0.1875 -0.1709
20619SOL    HW163298   5.388   1.207   3.107 -0.6857 -2.9185 -0.6967
20619SOL    HW263299   5.254   1.139   3.113 -1.6346 -0.9908  1.9200
20620SOL     OW63300   5.733   7.001   4.959  0.1735  0.6372  0.6353
20620SOL    HW163301   5.808   6.947   4.935  0.6260  1.2251  0.6970
20620SOL    HW263302   5.662   6.971   4.902  0.9540  1.3047 -0.7448
20621SOL     OW63303   4.750   2.253  10.460 -0.4774  0.2006 -0.1189
20621SOL    HW163304   4.735   2.231  10.552  0.6678 -0.9190 -0.1666
20621SOL    HW263305   4.829   2.306  10.461 -1.5850  1.9265 -0.3009
20622SOL     OW63306   1.469   0.750   8.731  0.5496  0.4217 -0.1682
20622SOL    HW163307   1.414   0.763   8.654 -0.6876 -1.4071  0.3478
20622SOL    HW263308   1.525   0.676   8.708 -0.1774 -0.4744  0.8214
20623SOL     OW63309   2.337   7.574   7.349 -0.1550  0.2358 -0.1749
20623SOL    HW163310   2.351   7.500   7.290 -0.5804  0.2895 -0.3499
20623SOL    HW263311   2.242   7.583   7.354 -0.1604 -0.3229  1.2164
20624SOL     OW63312   1.239   5.877   4.592  0.4929  0.4294 -0.2120
20624SOL    HW163313   1.254   5.785   4.570  0.5612  0.1842  0.8208
20624SOL    HW263314   1.323   5.908   4.625  0.2588  0.6467  0.1844
20625SOL     OW63315   1.142   6.928   0.115 -0.0749  0.0171 -0.0073
20625SOL    HW163316   1.058   6.973   0.116  0.0328  0.2472  1.4937
20625SOL    HW263317   1.140   6.871   0.192  0.7687 -0.6983 -0.4923
20626SOL     OW63318   1.234   3.635  12.361 -0.1973  0.0727 -0.1035
20626SOL    HW163319   1.167   3.685  12.409  0.6703  1.4904 -0.3008
20626SOL    HW263320   1.226   3.666  12.271  1.2896  0.9289  0.0310
20627SOL     OW63321   4.298   1.584   3.701 -0.4015  0.2219  0.6264
20627SOL    HW163322   4.299   1.564   3.608  2.2508 -1.2272  0.8639
20627SOL    HW263323   4.329   1.675   3.707 -0.0858  0.1529  0.0929
20628SOL     OW63324   2.773   6.423   6.015  0.0509  0.7631  0.2439
20628SOL    HW163325   2.818   6.506   6.035  0.2458  0.3448  1.6393
20628SOL    HW263326   2.747   6.389   6.101 -0.6282 -0.2958 -0.3683
20629SOL     OW63327   5.707   6.378   2.440  0.1679  0.2082 -0.3021
20629SOL    HW163328   5.674   6.352   2.353 -0.6852  0.7057 -0.1357
20629SOL    HW263329   5.654   6.327   2.501  2.1137 -1.7139 -0.0596
20630SOL     OW63330   1.558   2.674  10.816 -0.0650  0.0314 -0.1492
20630SOL    HW163331   1.479   2.694  10.765 -0.6999  1.2939  1.2524
20630SOL    HW263332   1.613   2.751  10.805 -0.9184  1.0881  2.3015
20631SOL     OW63333   1.234   4.985   8.378 -0.2829  0.3773  0.0250
20631SOL    HW163334   1.179   5.060   8.356 -1.0937  0.0369  0.8144
20631SOL    HW263335   1.296   5.018   8.443 -1.1026  0.2211  0.9165
20632SOL     OW63336   3.329   3.547   7.530 -0.5994  0.2786 -0.2820
20632SOL    HW163337   3.324   3.575   7.621  0.6732  2.2273 -0.7409
20632SOL    HW263338   3.412   3.501   7.523 -0.3810  0.7132 -0.5910
20633SOL     OW63339   2.906   5.326   4.846  0.0707  0.0508  0.0757
20633SOL    HW163340   2.920   5.348   4.938 -1.5482  1.3215  0.0614
20633SOL    HW263341   2.849   5.250   4.848 -1.7466  1.3544  0.1809
20634SOL     OW63342   5.464   5.924   6.462 -0.0102 -0.3738  0.2792
20634SOL    HW163343   5.411   5.882   6.395 -0.6993  0.3753  0.3441
20634SOL    HW263344   5.435   6.015   6.463 -0.5612 -0.5152  2.1040
20635SOL     OW63345   7.839   6.737   2.307  0.1805 -0.6678 -0.1970
20635SOL    HW163346   7.932   6.715   2.313  0.3606  0.3259  0.8376
20635SOL    HW263347   7.795   6.662   2.347  0.6018 -0.6329  0.3487
20636SOL     OW63348   5.948   2.523   4.062 -0.0498 -0.2009  0.1459
20636SOL    HW163349   5.948   2.481   3.976  0.0292 -0.3110  0.1990
20636SOL    HW263350   6.032   2.569   4.066 -0.3138  0.3069 -0.0778
20637SOL     OW63351   6.923   1.771   3.764  0.0406 -0.1984  0.1957
20637SOL    HW163352   7.007   1.754   3.721 -0.3022  0.7024 -0.8815
20637SOL    HW263353   6.875   1.688   3.756  0.1710 -0.1963 -0.7687
20638SOL     OW63354   3.833   3.731   6.904  0.0345  0.1524  0.0327
20638SOL    HW163355   3.820   3.665   6.836  0.1431 -0.5561  0.6942
20638SOL    HW263356   3.925   3.757   6.895 -0.2485  0.9109 -0.8353
20639SOL     OW63357   5.452   7.533   2.674 -0.0923  0.2368 -0.0364
20639SOL    HW163358   5.390   7.601   2.700 -0.3740 -0.7863  2.1961
20639SOL    HW263359   5.399   7.468   2.628 -0.0837  0.8373 -0.9019
20640SOL     OW63360   6.492   0.623   9.009  0.2806  0.4167 -0.1889
20640SOL    HW163361   6.567   0.627   9.069  1.0739 -0.4002 -1.0977
20640SOL    HW263362   6.509   0.693   8.946 -1.1027  1.9975  1.1100
20641SOL     OW63363   4.203   7.877  10.469 -0.2937 -0.0228  0.1384
20641SOL    HW163364   4.252   7.819  10.528 -1.9905  0.1818  1.8347
20641SOL    HW263365   4.111   7.854  10.483 -0.9836  2.5216  0.2939
20642SOL     OW63366   3.033   4.251   0.722  0.7659 -0.6684  0.2271
20642SOL    HW163367   3.062   4.264   0.812 -0.1659 -2.2750  0.7997
20642SOL    HW263368   2.951   4.202   0.730  1.3982 -2.1386 -1.5076
20643SOL     OW63369   7.446   6.976   2.915 -0.2190  0.3096  0.1246
20643SOL    HW163370   7.432   6.925   2.994 -0.8708 -0.0943 -0.2400
20643SOL    HW263371   7.503   7.048   2.942  0.9899 -0.7945  0.5663
20644SOL     OW63372   1.800   2.376  12.196 -0.0407  0.5787  0.1618
20644SOL    HW163373   1.865   2.387  12.266 -0.0085  0.0787  0.2139
20644SOL    HW263374   1.732   2.439  12.217 -0.1145  0.3089  0.7449
20645SOL     OW63375   2.244   2.413   6.582 -0.1823 -0.0045 -0.0930
20645SOL    HW163376   2.323   2.373   6.546 -0.1823 -0.2088  0.1267
20645SOL    HW263377   2.219   2.355   6.655 -0.4730  0.1163 -0.0942
20646SOL     OW63378   7.181   2.173   6.474  0.0792  0.1361  0.3791
20646SOL    HW163379   7.152   2.234   6.406  0.4410 -3.6872 -3.6220
20646SOL    HW263380   7.275   2.162   6.458  0.4604  0.0193  2.3989
20647SOL     OW63381   4.473   7.323   9.668  0.2342  0.2830  0.1543
20647SOL    HW163382   4.406   7.279   9.720  1.7550 -1.7392  0.4823
20647SOL    HW263383   4.535   7.357   9.732  0.5843  0.3755 -0.2272
20648SOL     OW63384   7.896   1.848   4.758  0.0141  0.5639  0.0412
20648SOL    HW163385   7.919   1.940   4.747 -2.0867  1.0717 -0.4630
20648SOL    HW263386   7.877   1.817   4.669  1.5537 -0.6427  0.0834
20649SOL     OW63387   6.689   5.016   3.960 -0.0385  0.0052 -0.2122
20649SOL    HW163388   6.671   5.011   3.866 -2.0619  4.1691 -0.2704
20649SOL    HW263389   6.606   4.994   4.002  0.3582 -0.0953  0.5433
20650SOL     OW63390   3.459   7.395   2.208 -0.1801 -0.3240 -0.1718
20650SOL    HW163391   3.549   7.385   2.177 -1.0375 -0.4075 -2.8828
20650SOL    HW263392   3.406   7.394   2.129 -2.5117  0.7548  1.2655
20651SOL     OW63393   2.489   6.989   2.042 -0.1000  0.2658  0.2058
20651SOL    HW163394   2.492   7.059   2.107  1.4946  1.0389 -0.6284
20651SOL    HW263395   2.497   7.034   1.958  1.9767 -0.9084 -0.3102
20652SOL     OW63396   1.534   7.840   7.572 -0.1694 -0.3149  0.3891
20652SOL    HW163397   1.607   7.796   7.528  0.2349  1.8164 -1.2396
20652SOL    HW263398   1.513   7.914   7.515 -1.5522  0.9474  2.4162
20653SOL     OW63399   2.998   7.727   1.154  0.3461  0.2436 -0.0907
20653SOL    HW163400   3.007   7.733   1.249 -1.2877  0.2619  0.0787
20653SOL    HW263401   2.915   7.683   1.140  1.8515 -2.3509 -1.5243
20654SOL     OW63402   6.149   4.141  12.166  0.1917 -0.2263  0.2615
20654SOL    HW163403   6.228   4.087  12.159 -0.3229 -1.1440  1.1772
20654SOL    HW263404   6.077   4.081  12.144 -0.2088  0.8505 -1.5686
20655SOL     OW63405   7.483   6.316   6.700  0.4347  0.0444  0.5591
20655SOL    HW163406   7.461   6.382   6.766 -0.5546 -0.9900  1.2872
20655SOL    HW263407   7.486   6.234   6.748 -1.3747 -0.8973 -0.8581
20656SOL     OW63408   3.324   4.629  12.177 -0.0869  0.5203 -0.2181
20656SOL    HW163409   3.417   4.654  12.171  0.2606 -0.2687  1.3041
20656SOL    HW263410   3.277   4.711  12.162  0.8450  0.9363 -1.0378
20657SOL     OW63411   5.370   3.693   5.689 -0.7071 -0.2751  0.0893
20657SOL    HW163412   5.282   3.654   5.693 -0.8126 -0.0430  0.0641
20657SOL    HW263413   5.354   3.786   5.672 -0.4682 -0.1453  0.5630
20658SOL     OW63414   4.281   1.989   6.815  0.7715 -0.1114  0.7830
20658SOL    HW163415   4.359   2.037   6.840  1.1884 -1.1838  1.6037
20658SOL    HW263416   4.238   1.967   6.897 -0.4496  0.5290  0.3402
20659SOL     OW63417   6.818   1.743   9.402  0.1287 -0.0286 -0.5364
20659SOL    HW163418   6.754   1.692   9.352 -1.3467  1.1961  0.0153
20659SOL    HW263419   6.885   1.680   9.426  1.2755 -0.6020 -4.5153
20660SOL     OW63420   7.538   1.321   7.164 -0.4268  0.2891  0.3090
20660SOL    HW163421   7.606   1.345   7.102 -0.6611 -0.4876 -0.2735
20660SOL    HW263422   7.508   1.404   7.201  2.2381  0.5659  2.1471
20661SOL     OW63423   6.006   4.482   2.831 -0.0113  0.0883  0.2026
20661SOL    HW163424   5.964   4.452   2.750 -0.6219 -0.4091  0.6947
20661SOL    HW263425   6.023   4.575   2.816 -0.5970  0.1186 -0.2981
20662SOL     OW63426   7.303   1.763   6.114  0.4879 -0.1866  0.1430
20662SOL    HW163427   7.243   1.801   6.050  0.4569 -2.2751 -1.1678
20662SOL    HW263428   7.350   1.838   6.150 -1.3202  1.2993 -0.4180
20663SOL     OW63429   6.049   2.538  11.544 -0.2824 -0.3019  0.1623
20663SOL    HW163430   5.978   2.529  11.607  0.7850 -0.6015  1.3841
20663SOL    HW263431   6.069   2.448  11.517 -0.7287 -0.1759 -0.6146
20664SOL     OW63432   6.722   6.344  10.169  0.7687  0.3816  0.0874
20664SOL    HW163433   6.804   6.325  10.215  0.6671 -0.2879  0.0088
20664SOL    HW263434   6.739   6.427  10.124  2.4946 -1.1879 -2.3907
20665SOL     OW63435   6.457   3.490   2.157  0.4692  0.4959 -0.3764
20665SOL    HW163436   6.524   3.555   2.177 -0.7909  1.9579 -0.6905
20665SOL    HW263437   6.401   3.489   2.235 -0.6288  1.2683 -1.1249
20666SOL     OW63438   0.983   4.169   4.285  0.2044 -0.3968  0.4937
20666SOL    HW163439   0.911   4.210   4.334  0.4472  1.0773 -0.3150
20666SOL    HW263440   0.963   4.188   4.194  2.0753  0.8751  0.2962
20667SOL     OW63441   0.373   1.670  11.282 -0.0444 -0.5179  0.6593
20667SOL    HW163442   0.446   1.625  11.240  0.1178  0.2832  0.0570
20667SOL    HW263443   0.397   1.675  11.375  1.0254  0.3921  0.3525
20668SOL     OW63444   7.622   3.848   2.672  0.0610  0.2031  0.0638
20668SOL    HW163445   7.620   3.756   2.696  0.1965 -0.8690 -3.3828
20668SOL    HW263446   7.634   3.847   2.577 -2.7774  3.7084 -0.5451
20669SOL     OW63447   3.410   3.631   1.952 -0.3692  0.5987 -0.2102
20669SOL    HW163448   3.414   3.536   1.949 -0.5261  0.4089  2.9205
20669SOL    HW263449   3.338   3.653   1.891 -0.4858 -1.2555 -0.8166
20670SOL     OW63450   0.121   7.941   0.180 -0.6735  0.1983  0.1148
20670SOL    HW163451   0.178   8.000   0.229 -0.5875 -0.0109  0.2647
20670SOL    HW263452   0.036   7.948   0.223  0.0622 -2.1932  2.1754
20671SOL     OW63453   0.977   0.556   3.552  0.4884  0.0188  0.7327
20671SOL    HW163454   0.904   0.570   3.613 -1.1296  2.4759 -1.5695
20671SOL    HW263455   1.047   0.612   3.586  0.1481  0.1991  1.1528
20672SOL     OW63456   4.609   2.253   8.807 -0.1773  0.1207  0.3282
20672SOL    HW163457   4.592   2.335   8.761  0.4170 -1.0638 -2.1758
20672SOL    HW263458   4.528   2.203   8.797  0.6287 -0.9505 -1.3787
20673SOL     OW63459   2.711   6.330   7.906 -0.0656 -0.6365  0.2320
20673SOL    HW163460   2.753   6.256   7.950  0.7289 -0.2357  0.1692
20673SOL    HW263461   2.618   6.319   7.924  0.2949  0.1880  3.0777
20674SOL     OW63462   5.331   5.693   8.243 -0.5176  0.2810 -0.0209
20674SOL    HW163463   5.411   5.744   8.234  0.9707 -1.9759 -0.1981
20674SOL    HW263464   5.360   5.604   8.262 -2.9955 -0.5810  0.1620
20675SOL     OW63465   1.408   6.214   5.992 -0.0181 -0.0000  0.9803
20675SOL    HW163466   1.463   6.137   5.978 -0.4999 -0.1462 -0.2439
20675SOL    HW263467   1.382   6.209   6.084 -0.6755 -1.7488  0.7357
20676SOL     OW63468   2.311   4.834   3.611  0.3445  0.3400  0.4554
20676SOL    HW163469   2.219   4.858   3.624 -0.1819  1.6623 -4.0487
20676SOL    HW263470   2.309   4.738   3.603 -1.1461  0.4588 -1.6081
20677SOL     OW63471   4.809   0.709   8.359 -0.4545 -0.6727  0.0111
20677SOL    HW163472   4.766   0.794   8.364  2.4491  1.1323 -2.2019
20677SOL    HW263473   4.747   0.653   8.313 -2.6695 -0.0361  2.0187
20678SOL     OW63474   2.561   0.704  11.674  0.7115 -0.5988 -0.5517
20678SOL    HW163475   2.498   0.760  11.720  0.7810 -0.1002 -1.0494
20678SOL    HW263476   2.508   0.635  11.636  0.4541 -0.1859 -0.9593
20679SOL     OW63477   0.678   5.776   1.565  0.1956 -0.2950 -0.4123
20679SOL    HW163478   0.739   5.829   1.616 -0.6329  1.4846 -1.1831
20679SOL    HW263479   0.593   5.791   1.606  0.0576 -1.7302 -0.1312
20680SOL     OW63480   7.142   0.878   2.252 -0.6261 -0.4330  0.7310
20680SOL    HW163481   7.116   0.792   2.286 -1.3149 -0.8972 -0.8426
20680SOL    HW263482   7.169   0.860   2.162  0.4406  0.8306  0.7723
20681SOL     OW63483   4.841   2.730   9.792 -0.1079  0.6395  0.1424
20681SOL    HW163484   4.921   2.686   9.822  0.4089  0.8562 -0.8755
20681SOL    HW263485   4.872   2.798   9.733 -0.9872  1.5242  0.6704
20682SOL     OW63486   5.208   7.906   5.128  0.1865 -0.1746 -0.0108
20682SOL    HW163487   5.182   7.936   5.041  0.7516 -3.8048 -1.5827
20682SOL    HW263488   5.126   7.901   5.177 -0.3356  0.5552 -0.7827
20683SOL     OW63489   6.942   1.790   2.742  0.0078 -0.2326  0.3554
20683SOL    HW163490   6.912   1.825   2.658  2.4450 -0.1589 -0.5513
20683SOL    HW263491   6.957   1.697   2.725 -2.2132 -0.8942  1.5665
20684SOL     OW63492   3.266   4.011   7.348  0.2151 -0.2776 -0.1488
20684SOL    HW163493   3.241   4.073   7.416  1.9628  0.5619 -0.2047
20684SOL    HW263494   3.219   3.931   7.369 -1.3493  0.7603  0.4884
20685SOL     OW63495   1.304   2.289   3.952  0.2222 -0.7342  0.4838
20685SOL    HW163496   1.387   2.247   3.977  0.4756 -0.7970 -0.4332
20685SOL    HW263497   1.256   2.221   3.906 -0.8380 -1.0436  1.9711
20686SOL     OW63498   2.330   1.548   3.105 -0.5650  0.2124  0.2052
20686SOL    HW163499   2.425   1.538   3.095 -0.4514  1.3325 -0.0069
20686SOL    HW263500   2.315   1.642   3.094 -1.8070 -0.0628 -0.6471
20687SOL     OW63501   4.931   4.724   4.082  0.5478 -1.0457 -0.1590
20687SOL    HW163502   4.929   4.795   4.018 -0.1368 -1.7333 -0.9167
20687SOL    HW263503   4.987   4.757   4.152 -0.9981  0.8628  0.2578
20688SOL     OW63504   6.689   6.787   7.063 -0.0450 -0.1271 -0.2670
20688SOL    HW163505   6.711   6.759   6.974 -0.9184 -0.4794 -0.3838
20688SOL    HW263506   6.712   6.713   7.118  3.0653  1.0598  0.1939
20689SOL     OW63507   1.167   3.700  10.370  0.0503  0.7788 -0.1870
20689SOL    HW163508   1.221   3.768  10.411  1.8715 -0.2704 -0.7231
20689SOL    HW263509   1.230   3.633  10.343 -1.7264 -1.4619  0.9386
20690SOL     OW63510   0.604   7.672   9.390  0.5065  0.1317  0.1504
20690SOL    HW163511   0.592   7.767   9.399  0.4197  0.0177  1.5985
20690SOL    HW263512   0.533   7.635   9.442 -0.5675 -0.7780 -1.8962
20691SOL     OW63513   5.621   1.709   8.296  0.4750 -0.0149  0.0120
20691SOL    HW163514   5.573   1.673   8.371  0.0502  1.3596  0.4316
20691SOL    HW263515   5.710   1.720   8.328  0.4322  0.0126  0.1231
20692SOL     OW63516   2.304   1.942  12.423  0.1449  0.1434 -0.2484
20692SOL    HW163517   2.251   2.016  12.452 -2.0781 -1.7006  0.7465
20692SOL    HW263518   2.270   1.921  12.336  1.8539  1.1960 -1.2219
20693SOL     OW63519   2.407   4.949   8.600 -0.3167 -0.1039  0.2230
20693SOL    HW163520   2.462   5.019   8.566  1.4869 -1.5897 -0.1408
20693SOL    HW263521   2.422   4.876   8.540 -1.0443 -1.2162  1.3446
20694SOL     OW63522   3.768   0.344   4.551 -0.3038 -0.6176  0.5340
20694SOL    HW163523   3.709   0.285   4.504  0.9229 -0.1678 -1.6959
20694SOL    HW263524   3.723   0.362   4.634 -3.2304 -0.4351 -0.9648
20695SOL     OW63525   7.165   2.245   4.465 -0.3366  0.1804 -0.6043
20695SOL    HW163526   7.194   2.237   4.374 -0.7303 -0.6042 -0.6736
20695SOL    HW263527   7.245   2.260   4.515 -0.1031  0.4967 -1.0663
20696SOL     OW63528   6.762   3.046   8.947 -0.3202 -0.2786 -0.1516
20696SOL    HW163529   6.793   3.008   8.865  0.2247 -3.3707  1.3374
20696SOL    HW263530   6.667   3.031   8.946 -0.2647 -0.6400 -0.0661
20697SOL     OW63531   2.744   2.406   5.996 -0.4863 -0.2478 -0.0130
20697SOL    HW163532   2.820   2.350   5.981  0.3174  1.0034 -0.7921
20697SOL    HW263533   2.773   2.493   5.971 -1.6958  0.5414  1.2029
20698SOL     OW63534   0.626   3.246   2.921 -0.7152 -0.0976  0.0794
20698SOL    HW163535   0.603   3.273   3.010  1.3589  1.2898  0.2622
20698SOL    HW263536   0.721   3.239   2.921 -0.7308 -1.1065 -1.7823
20699SOL     OW63537   6.945   2.329   6.944 -0.3142 -0.4622 -0.4044
20699SOL    HW163538   7.027   2.377   6.956 -0.9094  0.1976  1.3766
20699SOL    HW263539   6.971   2.238   6.933  0.6784 -0.2008 -0.3012
20700SOL     OW63540   5.243   1.143  11.992 -0.0413 -0.0838 -0.1121
20700SOL    HW163541   5.319   1.143  12.052  0.4121 -1.1447 -0.6625
20700SOL    HW263542   5.234   1.235  11.966  0.9341  0.0974  0.1261
20701SOL     OW63543   6.210   7.857   8.309  0.1537 -0.0853  0.4560
20701SOL    HW163544   6.219   7.946   8.274  0.5455  0.2539  1.3823
20701SOL    HW263545   6.300   7.830   8.327  0.1951 -1.3185 -1.3205
20702SOL     OW63546   2.350   0.639   2.096  0.1218 -0.7503  0.0499
20702SOL    HW163547   2.258   0.628   2.070 -0.7538 -0.1660  2.5527
20702SOL    HW263548   2.352   0.610   2.187  2.1376  0.4378  0.4432
20703SOL     OW63549   0.717   4.938   6.454  0.1873 -0.1461  0.2041
20703SOL    HW163550   0.744   4.975   6.538 -1.6283  0.8374  0.4030
20703SOL    HW263551   0.625   4.964   6.444 -0.2523 -1.9512 -1.1479
20704SOL     OW63552   2.845   7.606   6.636  0.0237 -0.2614 -0.1141
20704SOL    HW163553   2.889   7.521   6.640  0.7027  0.1002  0.2167
20704SOL    HW263554   2.852   7.633   6.545  1.7765  0.4475  0.1888
20705SOL     OW63555   2.200   2.350  10.812 -0.2987 -0.5495 -0.4102
20705SOL    HW163556   2.216   2.384  10.724  0.8021  0.3942  0.1159
20705SOL    HW263557   2.288   2.336  10.848 -0.7352 -2.1818  0.0794
20706SOL     OW63558   2.500   1.554  11.681  0.5070  0.3435  0.2019
20706SOL    HW163559   2.490   1.485  11.746  0.1634  1.3227  1.2334
20706SOL    HW263560   2.577   1.604  11.710  1.1409  0.0352 -0.8832
20707SOL     OW63561   0.334   2.156   7.742  0.5844  0.2068 -1.0992
20707SOL    HW163562   0.298   2.239   7.710 -1.0534  0.2291  0.6182
20707SOL    HW263563   0.425   2.176   7.763  0.5780  1.2010 -1.9427
20708SOL     OW63564   4.407   5.367  12.001 -0.2088 -0.1984 -0.6312
20708SOL    HW163565   4.501   5.353  11.999 -0.1643  0.1513 -1.2602
20708SOL    HW263566   4.397   5.462  12.000 -0.5783 -0.2414 -1.4312
20709SOL     OW63567   5.648   3.071  11.911 -0.1388 -0.1307  0.0104
20709SOL    HW163568   5.644   3.102  11.820  2.9602 -0.1795 -0.2684
20709SOL    HW263569   5.628   2.978  11.905  0.9017 -0.3331 -0.8328
20710SOL     OW63570   7.487   2.953   4.134  0.0067 -0.2835 -0.8784
20710SOL    HW163571   7.399   2.950   4.172  1.0053  0.7134  1.7468
20710SOL    HW263572   7.522   2.865   4.148  0.7175  0.3287  1.6234
20711SOL     OW63573   7.932   4.434   9.901  0.4334  0.4373  0.1653
20711SOL    HW163574   7.846   4.429   9.943  0.1556 -1.0733 -0.5030
20711SOL    HW263575   7.993   4.402   9.967  0.2411 -0.1477  0.0667
20712SOL     OW63576   3.317   2.182   5.695  0.1396 -0.1900  0.3868
20712SOL    HW163577   3.378   2.235   5.745 -2.0851  0.8907  2.1675
20712SOL    HW263578   3.366   2.154   5.618  2.5881  1.1847  1.3368
20713SOL     OW63579   1.426   4.432  10.124  0.5830  0.3732 -0.1897
20713SOL    HW163580   1.383   4.385  10.195  0.5274  1.5930  0.6108
20713SOL    HW263581   1.396   4.388  10.044 -0.5554 -0.0531  0.4515
20714SOL     OW63582   7.316   2.156   9.913 -0.3753 -0.0144 -0.0727
20714SOL    HW163583   7.373   2.183   9.841 -0.5968  0.9420  0.0874
20714SOL    HW263584   7.375   2.122   9.980 -0.1277 -0.4381 -0.5073
20715SOL     OW63585   6.594   6.745   6.677 -0.5704  0.3692 -0.0054
20715SOL    HW163586   6.647   6.667   6.666 -1.0829  0.2107 -1.5603
20715SOL    HW263587   6.555   6.735   6.764 -1.0456 -1.3853 -0.3682
20716SOL     OW63588   5.082   7.188   2.429  0.2832  0.0855  0.4176
20716SOL    HW163589   5.020   7.260   2.418 -0.0121 -0.0124  1.3543
20716SOL    HW263590   5.044   7.134   2.498 -0.6148 -2.1728 -1.6925
20717SOL     OW63591   3.923   1.109   2.084 -0.3033  0.7020  0.0687
20717SOL    HW163592   3.936   1.020   2.053 -0.0865  0.6423  0.3220
20717SOL    HW263593   3.829   1.116   2.102  0.0069 -0.3085  2.5108
20718SOL     OW63594   7.860   7.252  10.712  0.2131 -0.2534  0.2948
20718SOL    HW163595   7.910   7.262  10.793  1.6737  1.1164 -0.7163
20718SOL    HW263596   7.926   7.234  10.645 -0.8248 -0.0706 -0.8117
20719SOL     OW63597   5.632   2.371   7.051  0.0110  0.0447 -0.5097
20719SOL    HW163598   5.551   2.339   7.010  0.3699  0.4702 -1.6017
20719SOL    HW263599   5.656   2.303   7.113 -1.2026 -0.0703 -0.1303
20720SOL     OW63600   2.883   6.597   5.634 -0.6455  0.1568  0.3749
20720SOL    HW163601   2.947   6.639   5.576  0.3695  0.6972  1.8396
20720SOL    HW263602   2.798   6.623   5.598 -0.0463  1.8912  0.0996
20721SOL     OW63603   6.090   1.441   2.396 -0.2084  0.3240  0.6138
20721SOL    HW163604   6.097   1.505   2.466  1.6855 -0.2659  1.0220
20721SOL    HW263605   6.152   1.472   2.329 -1.9708  0.8811 -0.8377
20722SOL     OW63606   0.968   4.778   6.064  0.2170  0.0605  0.6460
20722SOL    HW163607   0.964   4.855   6.120 -2.7474 -0.3395  1.1746
20722SOL    HW263608   0.900   4.720   6.099  1.0364 -1.9724 -0.9181
20723SOL     OW63609   5.254   4.715   2.372  0.1458 -0.2002  0.4259
20723SOL    HW163610   5.243   4.637   2.318  0.7699  0.0478 -0.0766
20723SOL    HW263611   5.318   4.690   2.439  0.1130 -0.2169  0.4506
20724SOL     OW63612   0.130   7.294   3.898 -0.0644  0.0335  0.9340
20724SOL    HW163613   0.153   7.262   3.985  0.6043 -0.5443  0.5513
20724SOL    HW263614   0.130   7.216   3.843  0.2352  0.4999  0.2655
20725SOL     OW63615   1.981   0.268  10.228  0.0823 -0.0949 -0.1283
20725SOL    HW163616   1.984   0.221  10.311  0.7459 -0.9076 -0.5933
20725SOL    HW263617   1.929   0.347  10.246 -0.8425 -0.8825  0.7301
20726SOL     OW63618   5.555   0.394   6.744 -0.2076  0.2555 -0.1548
20726SOL    HW163619   5.509   0.314   6.768  0.1212  0.0506 -0.2002
20726SOL    HW263620   5.493   0.465   6.764 -0.5481 -0.0177 -0.2481
20727SOL     OW63621   4.489   3.211  11.613  0.5833 -0.6025  0.2517
20727SOL    HW163622   4.403   3.204  11.571 -0.1229  0.5684  1.4217
20727SOL    HW263623   4.493   3.138  11.674  0.4841 -0.7518  0.0783
20728SOL     OW63624   4.563   1.021   3.370  0.7089  0.2469  0.4798
20728SOL    HW163625   4.574   0.945   3.313 -0.1408  1.0860 -0.8685
20728SOL    HW263626   4.564   0.985   3.459 -2.4947 -1.7839 -0.1223
20729SOL     OW63627   6.511   0.421   8.368 -0.2212 -0.3082 -0.1958
20729SOL    HW163628   6.562   0.500   8.388  0.7140 -0.2957 -2.3751
20729SOL    HW263629   6.498   0.379   8.453  3.8391 -0.5326  0.5087
20730SOL     OW63630   2.064   4.860   1.292 -0.0247  0.1410 -0.3066
20730SOL    HW163631   2.100   4.947   1.310  1.6241 -0.7848  1.1583
20730SOL    HW263632   2.140   4.801   1.294 -1.2473 -1.4988 -0.0667
20731SOL     OW63633   7.211   6.532  11.272 -0.2609 -0.1956 -0.2455
20731SOL    HW163634   7.196   6.627  11.268 -1.2314 -0.3669 -1.5269
20731SOL    HW263635   7.125   6.496  11.293 -0.4782 -0.9028 -2.1157
20732SOL     OW63636   7.696   0.182   9.929  0.1640  0.1435  0.4838
20732SOL    HW163637   7.768   0.148   9.983  1.3878 -2.6501 -2.5170
20732SOL    HW263638   7.736   0.251   9.877  0.6042 -0.9327 -0.6780
20733SOL     OW63639   4.775   5.501   2.093  0.4565 -0.2602 -0.0967
20733SOL    HW163640   4.813   5.428   2.045  2.1027 -0.0099  0.7808
20733SOL    HW263641   4.756   5.465   2.180 -0.8760 -0.2346 -0.3484
20734SOL     OW63642   4.857   5.333   7.707 -0.0313 -0.0935 -0.2011
20734SOL    HW163643   4.826   5.359   7.794 -1.4915 -1.4082 -0.2743
20734SOL    HW263644   4.895   5.246   7.722 -0.9729 -0.6546 -0.9807
20735SOL     OW63645   3.476   2.332  11.341  0.9310 -0.0036 -0.2307
20735SOL    HW163646   3.427   2.414  11.344  0.7794 -0.1193  1.0381
20735SOL    HW263647   3.419   2.271  11.294  0.6412  0.3542 -0.3483
20736SOL     OW63648   0.506   6.319  11.021 -0.3945 -0.3219 -0.2084
20736SOL    HW163649   0.437   6.353  11.078 -1.4185 -1.0836 -0.9774
20736SOL    HW263650   0.582   6.310  11.079 -1.2873 -0.6813  0.9381
20737SOL     OW63651   4.229   3.667   8.072  0.1544 -0.0363  0.3534
20737SOL    HW163652   4.238   3.592   8.130 -0.9505 -0.8092 -0.4436
20737SOL    HW263653   4.266   3.638   7.989 -3.2066 -0.9664 -0.9915
20738SOL     OW63654   4.193   5.884   9.549 -0.1644 -0.3454  0.3019
20738SOL    HW163655   4.174   5.827   9.475 -0.7487 -0.2164  0.3491
20738SOL    HW263656   4.108   5.902   9.588 -0.1450  1.4926 -0.4069
20739SOL     OW63657   3.196   7.307  10.088  0.0284  0.0506  0.1931
20739SOL    HW163658   3.112   7.280  10.125 -0.2952  0.3202 -0.3261
20739SOL    HW263659   3.183   7.399  10.063 -0.1518 -0.4093 -1.5988
20740SOL     OW63660   7.652   2.838  10.446  0.0787  0.7323  0.1088
20740SOL    HW163661   7.630   2.819  10.537 -2.3931  1.8600 -0.1785
20740SOL    HW263662   7.694   2.758  10.414 -0.0392 -0.0939  1.9076
20741SOL     OW63663   3.474   3.757   2.330 -0.0795 -0.3538  0.0262
20741SOL    HW163664   3.459   3.851   2.320  1.0564 -0.2196 -0.7057
20741SOL    HW263665   3.480   3.743   2.424 -1.3062  0.1129  0.1857
20742SOL     OW63666   1.113   1.635  11.592  0.6167 -0.4011  0.3788
20742SOL    HW163667   1.166   1.572  11.641 -0.0384 -0.4196  1.0673
20742SOL    HW263668   1.177   1.682  11.538  1.6136  0.7088  2.3933
20743SOL     OW63669   4.373   5.632   9.826  0.1151 -0.0196 -0.0421
20743SOL    HW163670   4.336   5.719   9.810 -0.4191 -0.3691 -0.7520
20743SOL    HW263671   4.315   5.593   9.892  0.3248  0.1333  0.2374
20744SOL     OW63672   6.112   1.391  11.087 -0.1194  0.0776 -0.2068
20744SOL    HW163673   6.193   1.442  11.084 -0.2724  0.4494  1.1665
20744SOL    HW263674   6.063   1.428  11.161 -0.5934 -1.5419  0.3280
20745SOL     OW63675   2.322   4.576   3.618  0.3430 -0.1448  0.3174
20745SOL    HW163676   2.276   4.546   3.697 -0.4738 -1.5043 -0.6256
20745SOL    HW263677   2.410   4.540   3.627  0.8630  1.2812  1.4566
20746SOL     OW63678   3.837   0.379  10.652 -0.0215  0.1211 -0.2609
20746SOL    HW163679   3.832   0.291  10.614 -1.6018  0.2940 -0.5427
20746SOL    HW263680   3.881   0.367  10.736  2.1097 -0.5223 -1.3973
20747SOL     OW63681   2.934   6.141   0.488  0.2883  0.2203 -0.1256
20747SOL    HW163682   2.855   6.086   0.486 -0.3310  0.8631  2.7331
20747SOL    HW263683   2.908   6.222   0.445 -0.5486  0.3290  0.5700
20748SOL     OW63684   3.380   2.201  12.429  0.1528 -0.3695  0.5860
20748SOL    HW163685   3.314   2.214  12.361  0.0839 -2.2492  0.2356
20748SOL    HW263686   3.449   2.263  12.408  0.1431 -0.9270 -1.2325
20749SOL     OW63687   2.880   5.987   5.377  0.2758  0.2238 -0.4676
20749SOL    HW163688   2.830   6.065   5.402 -0.9473 -0.8099  0.4478
20749SOL    HW263689   2.915   6.008   5.290  0.1204  1.8438 -0.1778
20750SOL     OW63690   6.428   7.848   3.365 -0.0682  0.0019  0.2381
20750SOL    HW163691   6.358   7.883   3.421 -0.7269  0.2593 -0.7167
20750SOL    HW263692   6.395   7.763   3.338  0.0543  0.0624 -0.0985
20751SOL     OW63693   4.064   7.151   9.237  0.4656 -0.6646 -0.3653
20751SOL    HW163694   4.135   7.215   9.241 -0.7670  0.7776 -0.7666
20751SOL    HW263695   4.062   7.112   9.324  1.0361  0.0732 -0.0162
20752SOL     OW63696   4.948   3.242   1.668  0.4626  0.3454  0.5245
20752SOL    HW163697   4.896   3.303   1.720  0.5644  2.3045 -1.5320
20752SOL    HW263698   5.034   3.284   1.659  1.4366 -1.3635  1.2187
20753SOL     OW63699   7.395   1.272   5.379  1.0297 -0.1060 -0.0808
20753SOL    HW163700   7.475   1.310   5.414  1.7394 -1.7045  0.1045
20753SOL    HW263701   7.366   1.210   5.446 -0.0573  0.0396 -0.3890
20754SOL     OW63702   5.182   1.424   7.997  0.3644  0.4153  0.3866
20754SOL    HW163703   5.213   1.348   8.047 -0.0101  0.4904  0.7360
20754SOL    HW263704   5.255   1.445   7.938  0.4196 -0.3020  0.1846
20755SOL     OW63705   2.908   1.196   7.132  0.3226 -0.5415  0.5468
20755SOL    HW163706   2.840   1.249   7.090  0.1288 -0.2271  1.2402
20755SOL    HW263707   2.972   1.259   7.163  0.0621 -0.6951  1.4320
20756SOL     OW63708   1.640   3.875   4.290  0.1680 -0.1014  0.3440
20756SOL    HW163709   1.700   3.906   4.222  0.6245 -0.4938  0.5623
20756SOL    HW263710   1.682   3.900   4.372  0.2257 -0.7029  0.5073
20757SOL     OW63711   7.225   2.126   8.265 -0.0900 -0.1828 -0.4746
20757SOL    HW163712   7.172   2.049   8.245 -1.7846  0.8114  0.0523
20757SOL    HW263713   7.212   2.185   8.191  1.4470 -0.4778 -1.0235
20758SOL     OW63714   0.860   6.212   4.965 -0.0794  0.3267  0.0329
20758SOL    HW163715   0.893   6.185   4.880 -0.4085  0.9095 -0.2868
20758SOL    HW263716   0.930   6.190   5.027 -0.8612 -2.5216  0.0211
20759SOL     OW63717   6.400   0.972   7.277  0.0867 -0.3576 -0.2407
20759SOL    HW163718   6.396   0.994   7.370  1.3747  1.8090 -0.6181
20759SOL    HW263719   6.315   0.934   7.257 -0.3547 -0.5115  1.7245
20760SOL     OW63720   7.070   1.849   3.148  0.2265  0.1458  0.0242
20760SOL    HW163721   7.104   1.876   3.234 -1.5300 -0.8476  1.1083
20760SOL    HW263722   7.146   1.818   3.100  1.5399  2.3687  0.5443
20761SOL     OW63723   1.989   4.812   4.975 -0.2214  0.2414 -0.1727
20761SOL    HW163724   1.925   4.820   4.904  1.0843 -0.3580 -1.4608
20761SOL    HW263725   2.016   4.903   4.992 -0.1244  0.3466 -0.8490
20762SOL     OW63726   5.482   1.294  12.085  0.0735 -0.3853  0.1997
20762SOL    HW163727   5.513   1.308  11.996 -0.6822 -2.0193 -0.3617
20762SOL    HW263728   5.560   1.272  12.136  0.6254  1.3259  0.1566
20763SOL     OW63729   0.367   4.188   1.770 -0.1198 -0.0503 -0.8637
20763SOL    HW163730   0.451   4.143   1.762 -0.2327 -0.0662 -1.9962
20763SOL    HW263731   0.359   4.239   1.690 -1.1119  0.1044 -0.6721
20764SOL     OW63732   1.260   0.056   1.828 -0.3460  0.0676 -0.3619
20764SOL    HW163733   1.332   0.038   1.888 -0.6715 -0.5821 -0.1561
20764SOL    HW263734   1.268  -0.013   1.761  0.8022  1.5165 -1.8248
20765SOL     OW63735   7.332   4.702  12.261 -0.4303 -0.7089  0.2905
20765SOL    HW163736   7.327   4.644  12.337 -0.3879 -0.4652  0.4801
20765SOL    HW263737   7.355   4.787  12.297  0.1260 -0.7109 -0.0582
20766SOL     OW63738   1.063   4.604   7.689 -0.1022 -0.7417  0.1298
20766SOL    HW163739   1.029   4.529   7.736 -0.2486  0.7215  2.5182
20766SOL    HW263740   1.106   4.657   7.756 -1.0359  1.8981 -1.2113
20767SOL     OW63741   0.530   7.785   8.317  0.8602 -0.0203 -0.7216
20767SOL    HW163742   0.562   7.804   8.405 -3.1630  0.4465  0.8715
20767SOL    HW263743   0.542   7.866   8.268 -0.8434  1.2802  0.8697
20768SOL     OW63744   3.398   2.720  10.914  0.8204 -0.3569  0.2199
20768SOL    HW163745   3.392   2.625  10.901  1.1499 -0.3546  0.0409
20768SOL    HW263746   3.379   2.757  10.828  1.2401 -0.2804  0.1590
20769SOL     OW63747   6.723   2.506  11.121 -1.1327 -0.2961 -0.3926
20769SOL    HW163748   6.764   2.564  11.058 -2.2418 -1.0498 -1.8727
20769SOL    HW263749   6.786   2.435  11.133 -0.8496 -0.0671 -0.5111
20770SOL     OW63750   1.504   4.410   3.514  0.1887  0.3379  0.1282
20770SOL    HW163751   1.541   4.341   3.459 -1.2118 -0.8564  0.6226
20770SOL    HW263752   1.461   4.363   3.586 -2.4560  1.6164 -0.5174
20771SOL     OW63753   6.072   3.173  10.582 -0.5352  0.1820  0.2690
20771SOL    HW163754   6.146   3.114  10.568 -0.9628  0.1127 -2.3601
20771SOL    HW263755   6.111   3.260  10.586 -0.2395  0.1760 -1.3890
20772SOL     OW63756   2.586   5.406   3.736 -0.0591  0.4249 -0.3963
20772SOL    HW163757   2.601   5.313   3.723 -0.3701  0.3326 -0.1035
20772SOL    HW263758   2.502   5.411   3.782  0.9046  0.7612  1.4008
20773SOL     OW63759   7.077   6.250   4.355  0.4147  0.3848 -0.1598
20773SOL    HW163760   6.998   6.297   4.330  0.4359  1.0364  0.9353
20773SOL    HW263761   7.059   6.159   4.333 -0.4237  0.6038 -0.4063
20774SOL     OW63762   1.350   1.331  10.293 -0.2552 -0.0673 -0.1960
20774SOL    HW163763   1.421   1.277  10.327  0.1468 -0.3646 -1.4425
20774SOL    HW263764   1.272   1.300  10.338  0.4746  0.7641  1.7578
20775SOL     OW63765   7.672   3.338   7.698 -0.0140 -0.2362 -0.3985
20775SOL    HW163766   7.676   3.254   7.744  2.1957  0.0015 -0.0452
20775SOL    HW263767   7.582   3.342   7.664 -1.6596 -0.7265  3.3150
20776SOL     OW63768   1.209   2.303   7.623  0.0968  0.2165 -0.7149
20776SOL    HW163769   1.285   2.283   7.568  2.3022  1.9922  1.4476
20776SOL    HW263770   1.246   2.344   7.701 -3.0499  0.0675  1.0158
20777SOL     OW63771   7.195   2.713   6.873 -0.0607  0.2617  0.4178
20777SOL    HW163772   7.198   2.678   6.784  0.2298  2.0000 -0.2979
20777SOL    HW263773   7.163   2.803   6.862 -3.2797 -0.4689  2.3963
20778SOL     OW63774   2.499   2.994   8.039  0.6891 -0.7297  0.0750
20778SOL    HW163775   2.585   2.975   8.076  2.1918  0.6411 -2.4145
20778SOL    HW263776   2.498   2.948   7.955 -1.3156 -1.2268  0.3065
20779SOL     OW63777   1.878   7.186  12.451 -0.4886 -0.1882  0.1101
20779SOL    HW163778   1.944   7.200  12.382 -0.7380  0.7050  0.0345
20779SOL    HW263779   1.928   7.161  12.528  0.1428  1.9795  0.4877
20780SOL     OW63780   6.509   0.981   9.744  0.2816  0.1231  0.2626
20780SOL    HW163781   6.431   0.943   9.784  0.6618 -1.8953 -0.7999
20780SOL    HW263782   6.529   0.924   9.670  1.2034  2.1486 -1.1589
20781SOL     OW63783   0.452   1.345   6.331 -0.0646  0.2181 -0.3730
20781SOL    HW163784   0.545   1.363   6.314  0.3701 -1.5942 -0.1370
20781SOL    HW263785   0.440   1.367   6.423  0.2916 -0.0409 -0.2577
20782SOL     OW63786   3.838   2.535   9.206 -0.0199 -0.3097 -0.4223
20782SOL    HW163787   3.900   2.588   9.157  0.1503 -0.7857 -0.7221
20782SOL    HW263788   3.768   2.597   9.230 -0.4787 -0.2120 -1.8937
20783SOL     OW63789   4.848   6.984   7.540 -0.4536  0.1802  0.0654
20783SOL    HW163790   4.827   6.911   7.598 -1.3055  0.4515  0.1056
20783SOL    HW263791   4.902   7.042   7.594 -0.9016  0.2299  0.4696
20784SOL     OW63792   3.645   4.426   2.643 -0.4169  0.5099 -0.2917
20784SOL    HW163793   3.579   4.456   2.705 -0.3636  1.1966 -0.5551
20784SOL    HW263794   3.716   4.490   2.650  0.6831 -0.7671  0.7162
20785SOL     OW63795   4.273   3.653   1.718 -0.3543 -0.1450  0.1064
20785SOL    HW163796   4.338   3.685   1.656  2.2152 -1.1074  2.1410
20785SOL    HW263797   4.251   3.565   1.685 -1.0744  0.3731 -0.8603
20786SOL     OW63798   3.242   1.372  10.383 -0.3031  0.2270  0.8231
20786SOL    HW163799   3.235   1.360  10.289  2.5404 -1.0385  0.6733
20786SOL    HW263800   3.175   1.316  10.420 -0.0093 -0.9929 -0.4305
20787SOL     OW63801   2.607   7.124  12.432  0.0056 -0.0593  0.0026
20787SOL    HW163802   2.622   7.039  12.473 -0.2650 -0.0272  0.1689
20787SOL    HW263803   2.677   7.180  12.465  0.6247 -0.4192 -0.6886
20788SOL     OW63804   1.940   1.053   6.411 -0.2917  0.2532  0.1325
20788SOL    HW163805   1.921   1.010   6.327 -0.0803  2.2605 -0.9954
20788SOL    HW263806   1.867   1.114   6.423  0.0896  0.5322  1.0279
20789SOL     OW63807   7.723   6.049   8.162 -0.1066 -0.2078  0.4918
20789SOL    HW163808   7.638   6.090   8.175 -0.6850 -0.6295 -1.5513
20789SOL    HW263809   7.767   6.106   8.098  0.8022 -0.4622  0.8740
20790SOL     OW63810   3.187   0.326   4.824  0.1080  0.1679  0.0686
20790SOL    HW163811   3.153   0.402   4.777 -1.3656 -0.1115  0.6191
20790SOL    HW263812   3.240   0.363   4.895  1.1680  0.6112 -0.9226
20791SOL     OW63813   1.084   2.122   6.942 -0.2263  0.4854  0.5834
20791SOL    HW163814   1.059   2.040   6.901  0.4691  1.3214 -1.6773
20791SOL    HW263815   1.003   2.156   6.979 -0.5110 -1.2100  1.5998
20792SOL     OW63816   2.092   6.257   9.427  0.0850 -0.3070  0.2869
20792SOL    HW163817   2.128   6.242   9.514  0.3599 -1.4772 -0.0128
20792SOL    HW263818   2.076   6.352   9.424  1.8324  0.0504  0.9312
20793SOL     OW63819   0.406   5.214   9.960  0.3199 -0.4850  0.0054
20793SOL    HW163820   0.483   5.184  10.009  0.9636  0.0079 -0.6839
20793SOL    HW263821   0.434   5.296   9.919 -0.0005 -1.1343 -1.6147
20794SOL     OW63822   0.964   6.107   5.352 -0.3241 -0.4723  0.1105
20794SOL    HW163823   1.040   6.077   5.401 -0.7988 -0.5205  0.8265
20794SOL    HW263824   0.991   6.104   5.260  0.9886  0.7775  0.4314
20795SOL     OW63825   6.595   5.731   0.390 -0.3152  0.7057 -0.0166
20795SOL    HW163826   6.677   5.711   0.345 -0.0890  1.8901 -0.1672
20795SOL    HW263827   6.579   5.824   0.371 -1.6602  0.5056  0.0642
20796SOL     OW63828   5.244   2.863   5.456  0.1312  0.0232 -0.1023
20796SOL    HW163829   5.242   2.933   5.521 -1.9186  0.0156 -0.0733
20796SOL    HW263830   5.167   2.810   5.476  0.9670 -1.5593 -0.8822
20797SOL     OW63831   1.639   4.186   3.004  0.0124  0.1953  0.3941
20797SOL    HW163832   1.679   4.272   2.988  0.4627 -0.5457 -3.3315
20797SOL    HW263833   1.560   4.205   3.055  0.8251  2.6058  0.8911
20798SOL     OW63834   6.080   6.140   2.465 -0.3888  0.5599 -0.3941
20798SOL    HW163835   6.109   6.225   2.498  0.7491  0.1916 -0.4087
20798SOL    HW263836   6.038   6.160   2.381 -1.9805  1.3219  0.5270
20799SOL     OW63837   2.061   1.532   0.566  0.1561 -0.1182 -0.2880
20799SOL    HW163838   2.133   1.592   0.549 -0.1096  0.8303  1.6073
20799SOL    HW263839   2.056   1.528   0.662 -0.4466 -2.4452 -0.3677
20800SOL     OW63840   6.303   6.209   2.809  0.0545 -0.4061  0.2096
20800SOL    HW163841   6.236   6.277   2.801  1.5591  1.2685  0.9863
20800SOL    HW263842   6.320   6.203   2.903  0.8749 -0.8694  0.0436
20801SOL     OW63843   2.654   0.077  11.854  0.0813 -0.1443 -0.0767
20801SOL    HW163844   2.749   0.086  11.847  0.1526 -0.3506  0.5229
20801SOL    HW263845   2.619   0.158  11.817  0.5340  0.4303  0.7283
20802SOL     OW63846   1.014   6.571   5.792  0.0733 -0.5284 -0.2707
20802SOL    HW163847   0.950   6.642   5.782  1.0433  0.3176 -0.7104
20802SOL    HW263848   1.021   6.532   5.705 -0.3341 -1.0514 -0.0685
20803SOL     OW63849   6.448   6.178   3.866 -0.1703  0.0718 -0.1390
20803SOL    HW163850   6.437   6.270   3.842 -1.7982  0.3010  1.2893
20803SOL    HW263851   6.543   6.164   3.865  0.0543  1.3377 -1.7767
20804SOL     OW63852   5.873   2.675   6.364  0.5312  0.2659 -0.2712
20804SOL    HW163853   5.897   2.767   6.379  1.2952  0.2393 -1.2421
20804SOL    HW263854   5.826   2.676   6.281 -0.0871 -0.1280  0.0716
20805SOL     OW63855   7.695   7.956   5.856 -0.1579 -0.1493  0.0983
20805SOL    HW163856   7.726   7.980   5.944  0.2756 -0.1928 -0.0396
20805SOL    HW263857   7.649   7.873   5.869 -0.0542 -0.1807  0.2784
20806SOL     OW63858   4.981   2.376   8.406 -0.2013 -0.2061  0.1502
20806SOL    HW163859   4.917   2.391   8.337 -0.3537  1.9166  0.6930
20806SOL    HW263860   4.928   2.355   8.483 -0.0561 -1.9553 -0.1924
20807SOL     OW63861   7.534   7.951  11.880 -0.3774 -0.0230 -0.3655
20807SOL    HW163862   7.480   7.914  11.809 -1.5988  2.0675 -0.6044
20807SOL    HW263863   7.532   7.884  11.949 -2.2769 -0.5505 -0.8780
20808SOL     OW63864   5.696   4.600   4.106 -0.6795 -0.3457 -0.3569
20808SOL    HW163865   5.690   4.612   4.012 -0.7446  1.2599 -0.1793
20808SOL    HW263866   5.648   4.675   4.143  0.7267 -0.0211  0.9319
20809SOL     OW63867   6.271   1.718  11.128 -0.4145 -0.3077 -0.6017
20809SOL    HW163868   6.297   1.632  11.096  1.2033  0.0893 -0.4196
20809SOL    HW263869   6.305   1.779  11.063 -0.5500  0.2579 -0.1491
20810SOL     OW63870   1.825   7.359   1.034  0.3438  0.7895  0.2160
20810SOL    HW163871   1.825   7.455   1.030  1.0122  0.7643 -0.7205
20810SOL    HW263872   1.849   7.331   0.946  0.6727 -0.2317  0.6140
20811SOL     OW63873   1.539   1.894   3.652 -0.1405 -0.2956 -0.0026
20811SOL    HW163874   1.478   1.838   3.700  0.2025 -0.1122  0.6548
20811SOL    HW263875   1.595   1.932   3.720  0.4857 -0.1961 -0.5694
20812SOL     OW63876   3.129   2.414   2.523  0.2608 -0.5639 -0.6279
20812SOL    HW163877   3.088   2.334   2.558 -1.2490 -0.4471 -2.0410
20812SOL    HW263878   3.069   2.444   2.455  0.4564  2.1879  0.3171
20813SOL     OW63879   7.220   3.479  12.034  0.1191 -0.1911 -0.3402
20813SOL    HW163880   7.245   3.464  12.125  1.0510 -2.8560 -0.9580
20813SOL    HW263881   7.286   3.539  12.000  0.5350 -0.2338  0.3903
20814SOL     OW63882   6.176   2.561   7.517  0.1883  0.1287  0.3598
20814SOL    HW163883   6.198   2.626   7.583  0.1578 -0.6688  1.1821
20814SOL    HW263884   6.097   2.595   7.474  0.1290  0.5860  0.8286
20815SOL     OW63885   6.703   3.053   9.910  0.3054  0.0345 -0.4220
20815SOL    HW163886   6.640   2.995   9.868  0.1163  0.3308 -0.5473
20815SOL    HW263887   6.671   3.063  10.000  0.6140 -0.4567 -0.2497
20816SOL     OW63888   4.792   1.193  10.375  0.1821  0.3987  0.5590
20816SOL    HW163889   4.854   1.164  10.441  0.4433 -0.5106 -0.0739
20816SOL    HW263890   4.706   1.178  10.415  0.2510 -2.3592 -0.1372
20817SOL     OW63891   7.092   3.818   0.695 -0.4328  0.5227  0.0712
20817SOL    HW163892   7.146   3.745   0.726 -0.1613  0.5359 -0.3657
20817SOL    HW263893   7.149   3.866   0.635 -0.6234  1.0718  0.3231
20818SOL     OW63894   6.875   5.694   7.310  0.1921 -0.0855  0.1957
20818SOL    HW163895   6.792   5.687   7.358  1.2185  0.3212  2.1598
20818SOL    HW263896   6.929   5.622   7.343  0.6410 -0.3526 -1.0575
20819SOL     OW63897   7.973   5.103   6.814  0.0192  0.2063 -0.4006
20819SOL    HW163898   7.969   5.192   6.850 -1.7170 -0.4323  1.1498
20819SOL    HW263899   7.886   5.067   6.831  0.5334 -1.6232 -1.4733
20820SOL     OW63900   6.628   6.752   9.509  0.2824  0.2264  0.3470
20820SOL    HW163901   6.643   6.742   9.415 -0.2313  1.2117  0.1420
20820SOL    HW263902   6.583   6.837   9.517 -1.0284 -0.5256  1.3443
20821SOL     OW63903   6.870   7.268   5.679  0.1803  0.1177 -0.2463
20821SOL    HW163904   6.873   7.175   5.702 -0.8937  0.2474  0.4542
20821SOL    HW263905   6.892   7.314   5.760 -3.4115  0.5662  0.6343
20822SOL     OW63906   5.273   6.441   5.894  0.2786 -0.4203  0.3689
20822SOL    HW163907   5.204   6.487   5.942  0.1195  0.0968 -0.3428
20822SOL    HW263908   5.253   6.348   5.907  1.0871 -0.3528  2.5209
20823SOL     OW63909   2.140   0.114   3.726 -0.8461  0.1276  0.5555
20823SOL    HW163910   2.075   0.050   3.754 -1.4759  0.6869  0.4017
20823SOL    HW263911   2.211   0.061   3.689 -0.5910 -0.5544  1.9579
20824SOL     OW63912   0.095   3.856   4.102  0.4080 -0.0111 -0.5840
20824SOL    HW163913   0.154   3.916   4.149 -1.2421  0.0817  1.4759
20824SOL    HW263914   0.136   3.770   4.110  0.7730  0.2072 -0.0789
20825SOL     OW63915   0.072   7.949   1.905 -0.1924 -0.0528 -0.4851
20825SOL    HW163916   0.131   7.987   1.971 -1.0237  0.8040 -0.2063
20825SOL    HW263917  -0.011   7.996   1.918 -0.3291  0.2408 -2.2333
20826SOL     OW63918   5.361   4.519   4.809 -0.4417  0.0822 -0.2330
20826SOL    HW163919   5.275   4.538   4.770  0.5726  2.1735 -1.6663
20826SOL    HW263920   5.362   4.424   4.820 -2.3476 -0.1639 -1.6246
20827SOL     OW63921   2.738   5.592   3.857 -0.4089 -0.2442 -0.4177
20827SOL    HW163922   2.808   5.530   3.876  0.0111  0.2489 -0.3487
20827SOL    HW263923   2.669   5.539   3.817  1.0706 -0.3220 -3.1066
20828SOL     OW63924   0.405   5.921  11.458  0.0078  0.2004  0.0175
20828SOL    HW163925   0.359   5.853  11.409 -1.9322  0.5270  1.2833
20828SOL    HW263926   0.344   5.947  11.526  2.2072  0.4798  2.0083
20829SOL     OW63927   7.510   3.648   6.416 -0.6558  0.0047  1.1893
20829SOL    HW163928   7.600   3.648   6.450  0.3356 -0.3998 -1.2112
20829SOL    HW263929   7.504   3.730   6.366 -1.3007 -0.4189  0.5668
20830SOL     OW63930   2.175   0.953   1.160 -0.1399  0.1458  0.5560
20830SOL    HW163931   2.182   1.040   1.123 -0.5718 -0.2882 -0.5980
20830SOL    HW263932   2.265   0.927   1.180 -0.0348  0.9524  1.1849
20831SOL     OW63933   0.341   3.769   2.306 -0.6207  0.5105  0.1363
20831SOL    HW163934   0.335   3.675   2.286  1.0025  0.1523  1.1390
20831SOL    HW263935   0.302   3.812   2.231 -0.5738 -0.9485 -0.7650
20832SOL     OW63936   3.381   6.813  11.113 -0.4287  0.4276  0.3341
20832SOL    HW163937   3.347   6.900  11.132  0.0796  0.4232  1.2973
20832SOL    HW263938   3.422   6.822  11.027 -1.5607  0.7853 -0.1955
20833SOL     OW63939   3.124   0.090   9.936  0.4567  0.1396  0.4194
20833SOL    HW163940   3.059   0.098  10.006  0.9499  0.2020  0.8736
20833SOL    HW263941   3.167   0.175   9.932  0.0140  0.3393 -0.3825
20834SOL     OW63942   4.988   3.317   5.161  0.0372 -0.0965  0.1332
20834SOL    HW163943   4.934   3.342   5.086 -1.0117  0.7718  1.1398
20834SOL    HW263944   5.035   3.397   5.184 -1.7817  0.5066  2.0929
20835SOL     OW63945   7.791   0.952   6.520  0.3326  0.0695  0.0100
20835SOL    HW163946   7.774   1.002   6.440 -0.5921 -1.2503 -0.6656
20835SOL    HW263947   7.748   0.867   6.505  2.7496 -1.3760  0.6478
20836SOL     OW63948   7.909   4.271  11.488  0.3635 -0.0696  0.5087
20836SOL    HW163949   7.860   4.331  11.543  1.3544 -1.0018  2.5086
20836SOL    HW263950   7.904   4.309  11.400 -1.2414  1.4916  1.2206
20837SOL     OW63951   2.509   7.305   0.731  0.2617  0.4496  0.1209
20837SOL    HW163952   2.445   7.273   0.795  0.9515  2.5931  2.0378
20837SOL    HW263953   2.455   7.342   0.660 -0.5926  0.2762  0.6574
20838SOL     OW63954   4.486   0.418   6.636 -0.3556 -0.1250  0.4699
20838SOL    HW163955   4.564   0.474   6.639  0.4303 -1.0162 -1.6087
20838SOL    HW263956   4.413   0.479   6.643  0.4970  0.9263  0.6136
20839SOL     OW63957   4.043   7.103   5.182 -0.3976 -0.5671 -0.5358
20839SOL    HW163958   4.005   7.039   5.242  0.5990 -0.5298  0.1739
20839SOL    HW263959   3.987   7.101   5.105 -1.4992 -0.8988  0.2424
20840SOL     OW63960   5.135   5.813  10.012  0.6095  0.3829 -0.7659
20840SOL    HW163961   5.108   5.724  10.033 -0.3753  1.0084  0.7498
20840SOL    HW263962   5.062   5.849   9.962  1.1474  0.2755 -1.6687
20841SOL     OW63963   3.189   7.877   6.598 -0.0856  0.3054 -0.3610
20841SOL    HW163964   3.109   7.869   6.649  1.4538 -0.4826  2.0960
20841SOL    HW263965   3.190   7.799   6.542 -1.9317  1.3180 -1.9075
20842SOL     OW63966   2.417   7.406   6.999  0.6184 -0.5738 -1.0284
20842SOL    HW163967   2.429   7.311   6.998  1.5038 -0.5398  1.2371
20842SOL    HW263968   2.495   7.440   7.043  0.0751  1.1708 -1.3283
20843SOL     OW63969   6.266   4.940   5.889 -0.0655 -0.2307  0.4218
20843SOL    HW163970   6.323   4.873   5.925  1.2968 -0.3357 -1.7311
20843SOL    HW263971   6.316   5.022   5.899  0.6859 -0.3649 -1.7451
20844SOL     OW63972   4.312   0.166  11.666  0.2130 -0.3912  0.5534
20844SOL    HW163973   4.333   0.073  11.672  0.0536 -0.6523 -1.9740
20844SOL    HW263974   4.227   0.169  11.622  0.7532  0.9537 -0.4581
20845SOL     OW63975   5.188   5.596   9.663  0.0851 -0.6949  0.6682
20845SOL    HW163976   5.153   5.681   9.688  0.7222 -0.2803  0.1923
20845SOL    HW263977   5.273   5.616   9.623  0.9586 -1.6696  1.9538
20846SOL     OW63978   5.049   6.564   9.686 -0.0086  0.3334  0.2996
20846SOL    HW163979   5.102   6.582   9.763 -0.0147 -0.0786  0.4006
20846SOL    HW263980   5.104   6.507   9.632  0.5441  1.6900 -0.6359
20847SOL     OW63981   6.081   7.077  11.222 -0.3531 -0.3483 -0.0824
20847SOL    HW163982   6.167   7.088  11.181 -1.1347  1.2326 -1.4514
20847SOL    HW263983   6.026   7.041  11.152 -0.8341 -1.2521  0.7474
20848SOL     OW63984   5.727   0.639   7.741  1.2507  0.2099  0.1086
20848SOL    HW163985   5.679   0.593   7.809  0.6292  0.6794 -0.0018
20848SOL    HW263986   5.697   0.599   7.659 -1.2987  2.4744 -0.2072
20849SOL     OW63987   0.790   6.270   5.638  0.3468 -0.1600  0.3553
20849SOL    HW163988   0.773   6.258   5.544  5.1387  2.2397 -1.1481
20849SOL    HW263989   0.731   6.341   5.664  1.5036  1.8510 -2.0375
20850SOL     OW63990   2.385   4.248   3.804  0.1170 -0.3213  0.4007
20850SOL    HW163991   2.428   4.163   3.795  1.5454  0.3880  0.2925
20850SOL    HW263992   2.431   4.291   3.876  0.2683  0.8400 -0.3604
20851SOL     OW63993   5.299   4.577   2.885 -0.2637 -0.0972 -0.1565
20851SOL    HW163994   5.321   4.668   2.907 -2.3720  0.4537 -0.1239
20851SOL    HW263995   5.346   4.525   2.951  2.8951  0.7120 -1.5567
20852SOL     OW63996   3.667   6.780   1.049 -0.5330 -0.0698 -0.3498
20852SOL    HW163997   3.589   6.747   1.094 -0.0233  1.5210  1.8994
20852SOL    HW263998   3.639   6.864   1.013 -0.2845 -0.2436 -0.9535
20853SOL     OW63999   6.586   1.916   2.921 -0.2881 -0.1653  0.4098
20853SOL    HW164000   6.680   1.931   2.933 -0.1715  1.0282 -1.5688
20853SOL    HW264001   6.545   1.999   2.943 -0.4463  0.6330 -2.4681
20854SOL     OW64002   6.053   3.205   6.145 -0.3970  0.2174 -0.7366
20854SOL    HW164003   6.138   3.215   6.102  0.1274  0.7395  0.3932
20854SOL    HW264004   6.074   3.188   6.237 -1.5235  1.5199 -0.2058
20855SOL     OW64005   7.274   7.450   2.321 -0.1970  0.1120  0.2905
20855SOL    HW164006   7.245   7.402   2.398  0.0343 -2.5022 -1.1387
20855SOL    HW264007   7.335   7.516   2.355 -1.9922  0.7397  2.5339
20856SOL     OW64008   0.453   6.293   5.720 -0.5202 -0.2921  0.0047
20856SOL    HW164009   0.473   6.226   5.655 -1.2389  1.5451 -2.2868
20856SOL    HW264010   0.372   6.333   5.689 -0.6742  0.9414  1.8373
20857SOL     OW64011   3.523   4.361   7.214  0.0268  0.0690  0.1161
20857SOL    HW164012   3.599   4.397   7.169 -0.1293  0.8707  0.4586
20857SOL    HW264013   3.467   4.438   7.230 -1.4845 -0.6625 -1.3099
20858SOL     OW64014   3.648   3.112   3.315 -0.1688 -0.3779  0.1653
20858SOL    HW164015   3.595   3.035   3.336  0.6319 -1.3521 -1.1436
20858SOL    HW264016   3.699   3.084   3.239 -0.4537  1.7373 -0.8650
20859SOL     OW64017   5.694   3.538   9.905 -0.0265 -0.6042  0.1228
20859SOL    HW164018   5.785   3.506   9.906  0.7875  1.5827  0.7252
20859SOL    HW264019   5.702   3.633   9.914 -2.4438 -0.4854  1.8388
20860SOL     OW64020   1.941   7.145   5.597  0.0652 -0.2637 -0.7407
20860SOL    HW164021   1.898   7.131   5.682  1.9051 -1.2893  0.0955
20860SOL    HW264022   1.995   7.222   5.610 -0.0301 -0.1289 -1.1467
20861SOL     OW64023   3.937   5.332  10.021  0.5308  0.2894  0.4495
20861SOL    HW164024   3.968   5.376   9.942 -0.7265  0.8701  0.2422
20861SOL    HW264025   3.910   5.245   9.992  1.8209 -0.1785  0.6119
20862SOL     OW64026   1.297   6.851   6.779 -0.4525 -0.2145  0.4619
20862SOL    HW164027   1.275   6.766   6.817 -1.5698  0.2444  0.9025
20862SOL    HW264028   1.287   6.839   6.685  0.1532 -0.7698  0.4643
20863SOL     OW64029   6.928   7.770  11.819 -0.1913  0.3337  0.6454
20863SOL    HW164030   6.929   7.819  11.737  0.0945  0.5229  0.7625
20863SOL    HW264031   6.842   7.727  11.820 -0.4067  0.7589  0.5010
20864SOL     OW64032   6.964   6.900   9.135 -0.0254 -0.4506  0.1004
20864SOL    HW164033   6.879   6.912   9.177  0.3321  2.1166  0.2485
20864SOL    HW264034   6.945   6.852   9.054 -1.3565 -1.3665  0.9304
20865SOL     OW64035   4.623   1.055   2.476 -0.1814 -0.1498 -0.4319
20865SOL    HW164036   4.555   1.122   2.467 -0.3413 -0.2272  0.1220
20865SOL    HW264037   4.585   0.977   2.436  0.2452  0.2397 -1.6296
20866SOL     OW64038   5.978   7.956   8.360  0.1844 -0.4714 -0.7164
20866SOL    HW164039   5.922   7.889   8.320  0.4412 -1.3860  0.3957
20866SOL    HW264040   6.067   7.931   8.335  0.3148 -0.8164  0.0484
20867SOL     OW64041   3.592   0.180   4.412 -0.9629  0.1307 -0.7398
20867SOL    HW164042   3.505   0.151   4.440 -1.4008  1.1591 -0.9914
20867SOL    HW264043   3.576   0.228   4.331 -0.6994  3.5257  1.0443
20868SOL     OW64044   7.141   0.728  11.987  0.0175  0.1359  0.8095
20868SOL    HW164045   7.090   0.793  11.938  0.1307  0.7345  1.4648
20868SOL    HW264046   7.195   0.685  11.920  0.1970  0.9664  0.4027
20869SOL     OW64047   1.580   6.199   1.215  0.3368  0.1237  0.1445
20869SOL    HW164048   1.630   6.128   1.255  1.6597  0.6342 -0.5690
20869SOL    HW264049   1.638   6.275   1.219 -0.4803  0.7964 -0.4693
20870SOL     OW64050   1.584   4.169   4.051  0.6288 -0.1046 -0.0492
20870SOL    HW164051   1.599   4.178   3.957  2.1799 -2.1162 -0.0638
20870SOL    HW264052   1.490   4.152   4.059  0.6057 -0.6895 -1.3350
20871SOL     OW64053   0.720   0.092   0.711 -0.2243 -0.0027  0.1693
20871SOL    HW164054   0.787   0.132   0.767  1.1307 -2.4437  0.4339
20871SOL    HW264055   0.760   0.086   0.625 -0.5658 -0.3935  0.0334
20872SOL     OW64056   5.111   5.871   3.122  0.5618 -0.0867  0.1727
20872SOL    HW164057   5.083   5.804   3.185 -0.0700 -0.3091 -0.3367
20872SOL    HW264058   5.199   5.845   3.097 -0.2779 -1.6999 -1.2811
20873SOL     OW64059   7.546   6.027   2.176 -0.2769 -0.3809  0.4110
20873SOL    HW164060   7.561   6.060   2.087  1.4521  0.0889  0.8396
20873SOL    HW264061   7.453   6.006   2.178 -0.3689 -0.3534 -1.4964
20874SOL     OW64062   4.391   5.264   2.996 -0.5564  0.3836  0.8778
20874SOL    HW164063   4.327   5.193   2.995  0.9577 -1.0331 -0.2935
20874SOL    HW264064   4.405   5.282   3.089 -0.6567 -1.1532  1.2111
20875SOL     OW64065   7.040   6.157   8.521 -0.4307  0.1712 -0.0055
20875SOL    HW164066   6.959   6.107   8.518 -0.3002 -0.2076  1.9143
20875SOL    HW264067   7.043   6.194   8.609  1.4459  0.2187 -0.0482
20876SOL     OW64068   4.341   6.962   0.912  0.0269 -0.6553 -0.1245
20876SOL    HW164069   4.336   6.896   0.842 -0.5355 -0.2215 -0.4954
20876SOL    HW264070   4.398   6.922   0.978 -0.7876 -1.7627 -0.0720
20877SOL     OW64071   7.687   6.306   3.465 -0.4938 -0.2547  0.1503
20877SOL    HW164072   7.689   6.366   3.540 -0.2114 -0.0764  0.0059
20877SOL    HW264073   7.729   6.356   3.394 -0.5702 -0.4969 -0.0672
20878SOL     OW64074   2.778   4.170   9.299 -0.3533 -0.1181 -0.3121
20878SOL    HW164075   2.824   4.130   9.372 -0.5407 -0.6625 -0.4880
20878SOL    HW264076   2.785   4.264   9.315 -1.1043 -0.2481  0.8375
20879SOL     OW64077   4.462   0.981   3.018  0.2090  0.4025 -1.0039
20879SOL    HW164078   4.555   0.998   3.006  0.2947  0.3677 -0.4053
20879SOL    HW264079   4.423   1.066   3.036  0.7918  0.0129  3.0238
20880SOL     OW64080   4.916   1.140   8.097  0.0097 -0.3885  0.6185
20880SOL    HW164081   4.902   1.210   8.033  0.5076 -0.3276  0.5722
20880SOL    HW264082   4.838   1.142   8.153 -0.5298 -0.5858 -0.1166
20881SOL     OW64083   3.184   0.785   5.611  0.0380  0.7201  0.0417
20881SOL    HW164084   3.115   0.724   5.637 -1.2421  2.2487  0.3624
20881SOL    HW264085   3.146   0.836   5.540  0.9055  1.4941  0.1088
20882SOL     OW64086   1.785   1.902   3.446  0.0384  0.1027 -0.2665
20882SOL    HW164087   1.792   1.995   3.466 -0.1049 -0.1024  0.7780
20882SOL    HW264088   1.872   1.878   3.411  0.1389  0.5759 -0.3418
20883SOL     OW64089   7.662   3.409  12.424  0.1420  0.1853 -0.2663
20883SOL    HW164090   7.567   3.416  12.436 -0.4313 -3.7324 -1.1552
20883SOL    HW264091   7.676   3.432  12.332 -0.1139 -0.1957 -0.4040
20884SOL     OW64092   6.947   4.790  10.796 -0.1281  0.4704 -0.4080
20884SOL    HW164093   7.024   4.800  10.739 -0.1975  0.9252 -0.4242
20884SOL    HW264094   6.881   4.748  10.741 -1.0099  3.0154 -1.4220
20885SOL     OW64095   5.855   0.751   0.819  0.4532  0.3192  0.3457
20885SOL    HW164096   5.770   0.795   0.820 -0.1511 -0.7841 -0.6913
20885SOL    HW264097   5.888   0.761   0.908 -2.6964 -2.8843  2.1449
20886SOL     OW64098   3.756   4.096   7.047  0.3898 -0.2882 -0.5075
20886SOL    HW164099   3.715   4.067   7.128 -0.0078  1.0059 -0.2185
20886SOL    HW264100   3.815   4.167   7.074  0.5940 -0.1478 -1.2917
20887SOL     OW64101   3.055   7.741  10.572  0.4363 -0.0522  0.5753
20887SOL    HW164102   2.986   7.793  10.612  0.4935  0.7949 -0.3859
20887SOL    HW264103   3.009   7.677  10.518  0.3855  0.4475  0.0140
20888SOL     OW64104   2.161   4.453   8.358 -0.2648  0.1078  0.0626
20888SOL    HW164105   2.111   4.531   8.333 -1.3438  0.2479  2.4143
20888SOL    HW264106   2.252   4.474   8.336 -1.0240  0.0601 -3.8513
20889SOL     OW64107   2.586   4.475  11.810 -0.3169 -0.6732 -0.0344
20889SOL    HW164108   2.673   4.499  11.779 -1.2245  1.9169 -0.8089
20889SOL    HW264109   2.602   4.434  11.895  1.6553 -0.2429 -0.1374
20890SOL     OW64110   2.884   0.173   2.876 -0.2501 -0.0819  0.4087
20890SOL    HW164111   2.925   0.258   2.862 -0.2020 -0.4219 -1.9285
20890SOL    HW264112   2.795   0.194   2.903  0.2692  0.6759  1.6221
20891SOL     OW64113   7.963   7.592   5.222 -0.3008  0.1238  0.3763
20891SOL    HW164114   7.995   7.642   5.297  1.6582 -0.5295  0.0224
20891SOL    HW264115   8.031   7.601   5.156 -2.2652  1.2600 -1.6446
20892SOL     OW64116   1.452   0.257   0.240 -0.2329 -0.2209  0.0240
20892SOL    HW164117   1.523   0.288   0.185  0.0158 -0.5123  0.1776
20892SOL    HW264118   1.376   0.254   0.182 -0.0400 -0.2433 -0.2264
20893SOL     OW64119   6.838   3.015  11.725  0.1687  0.2812 -0.1202
20893SOL    HW164120   6.814   2.924  11.746 -3.2610  0.7497 -1.3589
20893SOL    HW264121   6.860   3.054  11.809 -2.0032 -0.7781  1.0395
20894SOL     OW64122   0.409   2.189   5.616 -0.1623 -0.4463  0.7367
20894SOL    HW164123   0.415   2.113   5.559  0.9429 -0.7534  1.2218
20894SOL    HW264124   0.494   2.232   5.607 -1.1199  1.3187 -0.2919
20895SOL     OW64125   2.283   1.742   5.963  0.5019 -0.3183  0.0234
20895SOL    HW164126   2.303   1.808   5.897  0.0162  0.3646  0.5471
20895SOL    HW264127   2.214   1.689   5.924 -0.8819  1.0252  0.5493
20896SOL     OW64128   5.751   3.187   1.441 -0.3233 -0.2298 -0.0183
20896SOL    HW164129   5.662   3.163   1.415 -1.8206  2.6269  1.9360
20896SOL    HW264130   5.784   3.240   1.369 -1.0493  0.4516  0.1464
20897SOL     OW64131   6.563   1.340  11.910  0.2632 -0.3972  0.1004
20897SOL    HW164132   6.538   1.433  11.906 -0.2711 -0.5773 -1.2780
20897SOL    HW264133   6.484   1.295  11.940 -0.2135 -0.6385 -1.4355
20898SOL     OW64134   7.055   7.105   4.990  0.6710 -0.7016 -0.0306
20898SOL    HW164135   6.962   7.115   5.012  0.3578 -0.4843 -1.3582
20898SOL    HW264136   7.100   7.165   5.049 -0.2368  0.7609 -0.7602
20899SOL     OW64137   2.013   3.620   0.329  0.3252  0.5469  0.2362
20899SOL    HW164138   2.073   3.595   0.399  0.8928  0.8121 -0.1516
20899SOL    HW264139   1.988   3.710   0.350 -1.0852 -0.0392  1.1894
20900SOL     OW64140   1.869   3.938   3.276 -0.5106 -0.2604 -0.1422
20900SOL    HW164141   1.824   3.946   3.192 -0.8625  0.9646  0.1484
20900SOL    HW264142   1.819   3.873   3.324 -0.3147 -0.9639 -0.8712
20901SOL     OW64143   5.864   1.704   1.700 -0.3948 -0.5878 -0.2850
20901SOL    HW164144   5.877   1.614   1.727 -1.0128 -1.4634 -2.6258
20901SOL    HW264145   5.826   1.748   1.776 -1.7454 -2.7522  0.3559
20902SOL     OW64146   7.945   3.540   5.114  0.1768 -0.5348 -0.4459
20902SOL    HW164147   7.996   3.494   5.180  0.2516  0.1959  0.0127
20902SOL    HW264148   7.855   3.510   5.127  0.3778 -1.3559 -0.8558
20903SOL     OW64149   3.442   7.571   6.055  0.4642  0.1064 -0.0826
20903SOL    HW164150   3.493   7.491   6.041  1.5982  0.6951  0.5246
20903SOL    HW264151   3.361   7.556   6.007  1.0527 -1.0086 -0.7814
20904SOL     OW64152   6.252   4.903   6.713  0.5052 -0.1772 -0.0842
20904SOL    HW164153   6.183   4.962   6.744  1.0830  0.6867 -0.3904
20904SOL    HW264154   6.331   4.958   6.710  0.7384 -0.5458 -1.8436
20905SOL     OW64155   2.495   5.943   0.766 -0.1226  0.1244 -0.1796
20905SOL    HW164156   2.544   5.865   0.791 -2.0483 -1.3033 -0.6435
20905SOL    HW264157   2.477   5.932   0.673 -0.7982  0.9026 -0.1563
20906SOL     OW64158   6.126   4.120   7.606  0.1396  0.2437 -0.2239
20906SOL    HW164159   6.104   4.177   7.533  2.7446  1.2279 -0.3595
20906SOL    HW264160   6.110   4.031   7.574 -0.6974  0.7472 -1.2440
20907SOL     OW64161   0.690   5.096   5.226  0.7034 -0.4316 -0.4034
20907SOL    HW164162   0.687   5.149   5.305  1.4639  1.2493 -1.4457
20907SOL    HW264163   0.783   5.076   5.214  0.4397 -1.9941 -0.0669
20908SOL     OW64164   3.321   7.698   1.465  0.2547  0.0860 -0.1256
20908SOL    HW164165   3.344   7.791   1.462  2.1953 -0.3810 -1.8885
20908SOL    HW264166   3.280   7.687   1.551 -2.6071  3.0620 -0.9115
20909SOL     OW64167   2.544   5.781  12.459 -0.3209  0.1698  0.0345
20909SOL    HW164168   2.541   5.787  12.555 -2.9326  0.5423 -0.0061
20909SOL    HW264169   2.544   5.687  12.442 -0.6846  0.1001  0.3964
20910SOL     OW64170   3.862   1.557   0.899  0.5853 -0.4985  0.0893
20910SOL    HW164171   3.840   1.575   0.991  1.6270  1.3542  0.0160
20910SOL    HW264172   3.957   1.573   0.894  1.0227 -2.9941 -0.7881
20911SOL     OW64173   5.450   7.943  12.167  0.0764 -0.3896  0.1142
20911SOL    HW164174   5.399   7.878  12.118 -1.5441  0.7234  0.2540
20911SOL    HW264175   5.541   7.917  12.153 -0.4575 -1.7326 -1.1551
20912SOL     OW64176   6.685   3.283   1.586  0.0547 -0.2753  0.0731
20912SOL    HW164177   6.683   3.224   1.661  0.7169  1.2374  1.3423
20912SOL    HW264178   6.746   3.352   1.612 -1.0067  1.1998 -1.1615
20913SOL     OW64179   6.723   7.685   1.696 -0.5036 -0.0989 -0.0474
20913SOL    HW164180   6.717   7.625   1.770  2.2348  1.7500  1.8281
20913SOL    HW264181   6.814   7.680   1.668 -0.2775  2.7479 -0.1207
20914SOL     OW64182   0.907   1.320   8.001  0.7904  0.0096 -0.8525
20914SOL    HW164183   0.850   1.304   8.076  0.9986  1.2094 -0.4084
20914SOL    HW264184   0.995   1.305   8.034  0.8052 -0.8509 -1.2599
20915SOL     OW64185   6.489   2.352   6.744  0.2382 -0.7518  0.3039
20915SOL    HW164186   6.422   2.410   6.709  0.2991 -1.1439 -0.4958
20915SOL    HW264187   6.572   2.396   6.725  0.2189 -0.2612  1.3041
20916SOL     OW64188   5.799   4.064  10.296 -0.5363  0.1122 -0.1176
20916SOL    HW164189   5.729   4.128  10.306  0.5348  1.5827 -1.4765
20916SOL    HW264190   5.854   4.100  10.226  1.2295 -1.2958  0.4815
20917SOL     OW64191   3.838   1.936   4.460 -0.2549  0.8793  0.8222
20917SOL    HW164192   3.911   1.998   4.458  0.2372  0.3285  1.4270
20917SOL    HW264193   3.762   1.991   4.481  0.1543  1.3065  1.2267
20918SOL     OW64194   6.094   6.754  11.213  0.5485 -0.0332  0.0875
20918SOL    HW164195   5.999   6.750  11.226  0.5785 -2.7932 -0.0369
20918SOL    HW264196   6.106   6.737  11.120  1.1623  1.3799 -0.1176
20919SOL     OW64197   4.128   5.403   2.227  0.0939  0.4393  0.1562
20919SOL    HW164198   4.088   5.458   2.295  0.7742  0.3263  0.6655
20919SOL    HW264199   4.188   5.461   2.182 -0.2464  0.4743 -0.2536
20920SOL     OW64200   0.884   0.387   8.220  0.0176  0.0041 -0.2816
20920SOL    HW164201   0.919   0.460   8.270 -1.5313 -0.8042  2.1335
20920SOL    HW264202   0.960   0.353   8.171  1.6585  0.7725  1.6068
20921SOL     OW64203   5.862   1.329   0.935  0.7088  0.0084 -0.3519
20921SOL    HW164204   5.952   1.297   0.936  1.7529  2.5572 -1.8930
20921SOL    HW264205   5.857   1.384   0.856 -1.5276  1.6964  0.8391
20922SOL     OW64206   7.825   0.305   3.375  0.9550  0.2934 -0.0943
20922SOL    HW164207   7.735   0.275   3.370  1.3863 -0.9227 -1.0839
20922SOL    HW264208   7.824   0.375   3.440 -0.4315 -0.6581  0.9567
20923SOL     OW64209   1.786   7.065  10.701 -0.9003  0.3689 -0.5060
20923SOL    HW164210   1.863   7.053  10.647 -0.7096 -0.0291 -0.1480
20923SOL    HW264211   1.809   7.028  10.786 -1.7452 -0.4698 -0.6167
20924SOL     OW64212   6.988   0.725   7.703 -0.2673  0.1252  0.5045
20924SOL    HW164213   7.003   0.666   7.777  1.1051  1.1188  1.0626
20924SOL    HW264214   7.060   0.705   7.643 -0.9805 -0.1921 -0.2538
20925SOL     OW64215   7.381   6.394   1.949 -0.1881  0.6426  0.2088
20925SOL    HW164216   7.300   6.432   1.914 -0.3094 -0.5332 -0.8590
20925SOL    HW264217   7.371   6.300   1.936  0.9639  0.3978  0.9221
20926SOL     OW64218   7.860   5.021   0.448  0.0100  0.4833 -0.0923
20926SOL    HW164219   7.932   4.977   0.402 -0.5606  0.3511 -0.8845
20926SOL    HW264220   7.788   5.020   0.385 -0.7477  0.4462  0.7631
20927SOL     OW64221   4.846   5.735  11.498  0.1359  0.0956  0.8824
20927SOL    HW164222   4.834   5.827  11.521 -1.1472  0.9887 -2.6272
20927SOL    HW264223   4.770   5.690  11.534 -1.4957  1.2932 -0.8544
20928SOL     OW64224   2.231   4.758   2.530 -0.3270  0.2569 -0.4799
20928SOL    HW164225   2.214   4.707   2.451 -0.1531 -1.9330  0.7966
20928SOL    HW264226   2.162   4.732   2.591  0.0269  1.2435  0.3786
20929SOL     OW64227   7.357   0.199  12.017  0.3006 -0.0293 -0.1157
20929SOL    HW164228   7.315   0.249  12.086 -0.2008 -0.2548 -0.2538
20929SOL    HW264229   7.344   0.251  11.938  0.0123 -0.2451 -0.2124
20930SOL     OW64230   2.771   4.517   9.023  0.7497  0.5707 -0.1453
20930SOL    HW164231   2.697   4.461   9.002 -0.8336  2.2020  0.7644
20930SOL    HW264232   2.801   4.487   9.109  0.1105  0.9015  0.1976
20931SOL     OW64233   6.437   3.342   0.408 -0.0254 -0.2596 -0.3001
20931SOL    HW164234   6.520   3.389   0.411 -0.0373 -0.2788  0.8561
20931SOL    HW264235   6.448   3.276   0.340  0.9548 -0.3374 -0.0761
20932SOL     OW64236   6.251   6.215  10.992 -0.3461  0.6056  0.2320
20932SOL    HW164237   6.251   6.305  11.022 -1.1329  0.6742  0.0480
20932SOL    HW264238   6.160   6.196  10.972  0.2005  0.8584 -2.9901
20933SOL     OW64239   6.991   3.836   6.781 -0.7143  0.0039  0.4704
20933SOL    HW164240   6.951   3.762   6.736  0.8333 -1.2640  1.0766
20933SOL    HW264241   7.001   3.903   6.713 -0.7116 -0.9283 -0.4744
20934SOL     OW64242   4.092   5.443  10.254  0.4390  0.1744  0.4252
20934SOL    HW164243   4.031   5.456  10.182 -0.6466  1.5615  1.5422
20934SOL    HW264244   4.054   5.371  10.306  0.2492  0.3987  0.5993
20935SOL     OW64245   5.372   7.123   4.999 -0.3517 -0.6330 -0.5673
20935SOL    HW164246   5.359   7.039   4.957 -0.4190 -0.5072 -0.7984
20935SOL    HW264247   5.376   7.103   5.093 -2.3896 -0.6658 -0.4602
20936SOL     OW64248   6.601   1.755  11.566 -0.4672  0.2497  0.6623
20936SOL    HW164249   6.626   1.686  11.627 -1.0131  0.6001  1.3045
20936SOL    HW264250   6.519   1.790  11.602 -1.0852  0.1220 -0.5564
20937SOL     OW64251   2.700   5.750   0.829 -0.4086 -0.0937  0.0851
20937SOL    HW164252   2.794   5.741   0.810  0.0981  2.7760  0.8781
20937SOL    HW264253   2.676   5.666   0.869  1.5838 -1.2351 -0.9641
20938SOL     OW64254   5.463   0.927  11.414  0.6733  0.5501  0.1113
20938SOL    HW164255   5.517   0.881  11.477 -2.9553 -4.2545  0.2576
20938SOL    HW264256   5.461   0.869  11.337 -0.8862  2.6256 -1.5347
20939SOL     OW64257   1.167   4.711   8.220  0.1192 -0.3747  0.0335
20939SOL    HW164258   1.201   4.718   8.309  0.8844 -2.5758 -0.0235
20939SOL    HW264259   1.144   4.801   8.196  0.9117  0.4256  2.0402
20940SOL     OW64260   7.321   2.482   9.909 -0.1217 -0.1759 -0.0640
20940SOL    HW164261   7.316   2.408   9.969  1.8921 -0.4262 -0.1498
20940SOL    HW264262   7.413   2.509   9.911 -0.1515  0.3321 -2.4061
20941SOL     OW64263   6.443   5.954   4.028 -0.0208  0.1132  0.0475
20941SOL    HW164264   6.530   5.914   4.032  0.1657  0.6321  1.6907
20941SOL    HW264265   6.452   6.027   3.968  0.3131 -0.6598 -0.8659
20942SOL     OW64266   3.304   6.578   8.702  0.3641  0.1401 -0.1097
20942SOL    HW164267   3.285   6.669   8.724  0.5461  0.0343  0.5228
20942SOL    HW264268   3.222   6.543   8.668  0.1748  0.4270  0.0465
20943SOL     OW64269   5.028   2.597  10.691 -0.3028  0.1193 -0.1230
20943SOL    HW164270   5.046   2.530  10.756  0.1673 -0.0247 -0.3942
20943SOL    HW264271   5.114   2.636  10.673 -0.4123  0.0771 -0.7405
20944SOL     OW64272   2.562   0.590   5.372 -0.0634  0.1709 -0.1498
20944SOL    HW164273   2.469   0.600   5.354 -0.2498 -0.8829  0.1906
20944SOL    HW264274   2.580   0.655   5.441 -0.7399 -0.2084  0.3982
20945SOL     OW64275   5.457   6.328   4.290  0.3582 -0.1847 -0.6007
20945SOL    HW164276   5.387   6.264   4.276 -0.5380  0.4824  0.6381
20945SOL    HW264277   5.430   6.403   4.237 -1.5781  1.2699  2.1941
20946SOL     OW64278   5.900   1.562   6.638  0.0052  0.0871 -0.0366
20946SOL    HW164279   5.862   1.510   6.708 -0.4596  0.6327  0.1232
20946SOL    HW264280   5.926   1.498   6.572  1.3044 -0.5164  1.0100
20947SOL     OW64281   0.747   4.977   6.716 -0.3313 -0.3153 -0.2524
20947SOL    HW164282   0.832   5.010   6.745  0.0103 -1.5499  0.1979
20947SOL    HW264283   0.687   5.049   6.732  0.3317 -0.0290  1.0439
20948SOL     OW64284   3.538   0.477   9.036  0.1718 -0.3840  0.2864
20948SOL    HW164285   3.525   0.556   9.088 -0.0619 -0.5913  0.5474
20948SOL    HW264286   3.608   0.430   9.082 -0.7781 -1.0982  1.0575
20949SOL     OW64287   3.810   2.444   8.306 -0.2745 -0.1529 -0.4611
20949SOL    HW164288   3.777   2.374   8.250 -0.3363  0.1571 -0.8193
20949SOL    HW264289   3.779   2.421   8.394  0.6660 -1.1685 -0.3721
20950SOL     OW64290   4.759   6.426   3.790  0.9258  0.1611  1.3039
20950SOL    HW164291   4.808   6.350   3.823 -0.5183  0.6565  5.0631
20950SOL    HW264292   4.827   6.490   3.768  2.0691 -1.0613  1.1526
20951SOL     OW64293   6.208   3.271   1.618  0.4635  0.2856  1.3654
20951SOL    HW164294   6.123   3.277   1.574  1.1665 -1.4332 -0.3735
20951SOL    HW264295   6.220   3.356   1.659 -0.9382  1.4938 -0.5570
20952SOL     OW64296   1.474   2.276   1.937 -0.2329  0.2465  0.8642
20952SOL    HW164297   1.547   2.226   1.900 -0.5827  0.1921  0.2418
20952SOL    HW264298   1.400   2.256   1.880 -1.0443 -0.6245  2.1652
20953SOL     OW64299   1.907   5.210   1.239  0.0654 -0.0429  0.6654
20953SOL    HW164300   1.997   5.237   1.258 -0.3969  1.4638  0.8964
20953SOL    HW264301   1.856   5.291   1.248 -1.3713 -0.9480  0.9613
20954SOL     OW64302   1.442   7.827   0.786 -0.2141 -0.4866 -0.0273
20954SOL    HW164303   1.374   7.881   0.746 -0.4705 -2.0619 -1.8781
20954SOL    HW264304   1.470   7.876   0.863 -1.5949  1.4359 -0.6815
20955SOL     OW64305   3.964   3.048   9.116 -0.2828  0.7502  0.3376
20955SOL    HW164306   3.941   2.972   9.062 -1.3233  0.5382  1.0438
20955SOL    HW264307   3.884   3.067   9.165  0.0210  2.1887  0.3173
20956SOL     OW64308   7.658   5.422   4.128  0.4436  0.0313  0.3151
20956SOL    HW164309   7.726   5.441   4.193  1.1162 -1.2230  0.0161
20956SOL    HW264310   7.632   5.332   4.146 -1.1669  0.4976  0.4189
20957SOL     OW64311   0.358   2.227   9.739 -0.5301  0.0200  0.1151
20957SOL    HW164312   0.442   2.182   9.747  0.3977  0.9634 -2.9065
20957SOL    HW264313   0.376   2.316   9.769 -0.8135 -0.0957  0.6441
20958SOL     OW64314   0.052   0.837   6.548 -0.2315 -0.5140 -0.3174
20958SOL    HW164315  -0.029   0.876   6.580 -0.9352 -1.0919 -1.3687
20958SOL    HW264316   0.036   0.819   6.456  1.2517 -0.2320 -0.6609
20959SOL     OW64317   0.957   5.265   7.869  0.0560  0.4177 -0.0931
20959SOL    HW164318   0.924   5.295   7.784 -1.2702  0.7133  0.5073
20959SOL    HW264319   0.888   5.207   7.902 -0.2110  1.6012  1.5123
20960SOL     OW64320   6.612   7.076   7.617  0.6891 -0.0870  0.3123
20960SOL    HW164321   6.547   7.142   7.643  0.5513  0.0482 -0.3502
20960SOL    HW264322   6.602   7.006   7.681  1.4282  0.8986  1.5451
20961SOL     OW64323   4.510   0.389   9.356  0.2580  0.1343  0.1148
20961SOL    HW164324   4.571   0.457   9.326 -1.2706  1.9136  0.8208
20961SOL    HW264325   4.487   0.341   9.276 -1.4870  2.9067 -1.2138
20962SOL     OW64326   2.536   0.090   8.641  0.7536 -0.5013 -0.0379
20962SOL    HW164327   2.527   0.059   8.731  0.7258 -0.4409 -0.0198
20962SOL    HW264328   2.488   0.173   8.640  0.7775 -0.4887 -0.1012
20963SOL     OW64329   6.627   0.664   9.543 -0.7730 -0.6057 -0.2497
20963SOL    HW164330   6.716   0.657   9.578 -0.2950  0.3753 -1.1989
20963SOL    HW264331   6.611   0.580   9.501 -0.9113 -1.3659  1.2658
20964SOL     OW64332   1.228   0.363   3.891 -0.1021 -0.1760 -0.3725
20964SOL    HW164333   1.208   0.347   3.983 -0.8693 -1.8768 -0.7799
20964SOL    HW264334   1.304   0.420   3.892 -1.1377  1.2644  1.2946
20965SOL     OW64335   7.603   3.139   7.341  0.2014  0.1105 -0.1470
20965SOL    HW164336   7.514   3.109   7.361 -0.4266  1.2734 -1.0601
20965SOL    HW264337   7.596   3.235   7.339  0.8666  0.1726 -2.7560
20966SOL     OW64338   4.970   3.388   4.858  0.3076 -0.0917  0.5353
20966SOL    HW164339   5.036   3.441   4.812 -0.8108  2.9078  2.1068
20966SOL    HW264340   4.915   3.353   4.788  1.8219 -0.2565 -0.6475
20967SOL     OW64341   2.166   3.827  11.019  0.4121  0.4708  0.0270
20967SOL    HW164342   2.096   3.840  11.083  0.8903  0.5019  0.5492
20967SOL    HW264343   2.246   3.818  11.072  0.7323 -0.0611 -0.5374
20968SOL     OW64344   6.314   4.287   5.011 -0.5421  0.3896 -0.0839
20968SOL    HW164345   6.323   4.212   4.952 -2.2726  0.2146 -0.1602
20968SOL    HW264346   6.336   4.252   5.098  1.2784  0.4726 -0.4596
20969SOL     OW64347   3.856   1.453   5.566 -0.1038  0.2106 -0.4514
20969SOL    HW164348   3.774   1.427   5.608 -0.2307 -0.7202 -1.2337
20969SOL    HW264349   3.875   1.381   5.505  0.4261  1.1899 -1.4704
20970SOL     OW64350   7.332   3.816   5.114  0.3658  0.3516  0.1496
20970SOL    HW164351   7.401   3.765   5.072  1.1182  1.8420 -0.4975
20970SOL    HW264352   7.328   3.898   5.064 -0.4250  1.1565  1.4637
20971SOL     OW64353   4.746   1.252   4.807 -0.0247  0.2634  0.3654
20971SOL    HW164354   4.812   1.190   4.838  0.8278  0.8098 -0.3251
20971SOL    HW264355   4.699   1.277   4.887  1.1691  0.5264  1.0170
20972SOL     OW64356   5.587   0.225  11.486 -0.2735  0.2861  0.5259
20972SOL    HW164357   5.649   0.263  11.423 -0.0324 -0.3527  0.3748
20972SOL    HW264358   5.537   0.300  11.517 -0.4778  0.6002 -0.5204
20973SOL     OW64359   0.588   6.297  11.600  0.1689 -0.3007 -0.3523
20973SOL    HW164360   0.633   6.315  11.517 -0.8027 -0.8831 -1.0212
20973SOL    HW264361   0.496   6.317  11.582  0.0345  0.1501  0.7740
20974SOL     OW64362   3.062   2.715  11.690 -0.3466 -0.1109 -0.4515
20974SOL    HW164363   3.084   2.808  11.689  0.8063 -0.2886  1.8902
20974SOL    HW264364   3.045   2.693  11.599  0.7279  2.0774 -1.2392
20975SOL     OW64365   5.156   4.765   0.014 -0.0018  0.5362 -0.1451
20975SOL    HW164366   5.081   4.734   0.066  0.1136 -0.2821 -0.4619
20975SOL    HW264367   5.193   4.836   0.067 -1.1533  1.1417 -0.1011
20976SOL     OW64368   2.098   0.722   4.847 -0.0021 -0.0421 -0.1426
20976SOL    HW164369   2.029   0.656   4.839  0.8681 -1.0026  0.2382
20976SOL    HW264370   2.152   0.710   4.769 -0.4273  0.9348 -0.6147
20977SOL     OW64371   2.312   6.527   9.803 -0.2107 -0.0849 -0.3175
20977SOL    HW164372   2.267   6.469   9.741 -1.5356 -1.7536  2.0409
20977SOL    HW264373   2.312   6.478   9.885  2.2270  1.6731  0.8338
20978SOL     OW64374   0.771   6.879   3.617  0.5436  0.3096 -0.1580
20978SOL    HW164375   0.774   6.812   3.549  2.5635 -0.5263  0.6662
20978SOL    HW264376   0.678   6.888   3.638 -0.1084  0.4100 -2.7936
20979SOL     OW64377   2.021   1.352   1.121 -0.7443 -0.4275 -0.1872
20979SOL    HW164378   2.104   1.332   1.077 -0.4994  1.0295 -0.4445
20979SOL    HW264379   2.005   1.444   1.100 -2.4189 -0.6771 -0.1120
20980SOL     OW64380   2.243   3.143   3.613  0.1527 -0.7377 -0.3724
20980SOL    HW164381   2.321   3.195   3.595  0.0458 -0.8086 -1.0501
20980SOL    HW264382   2.277   3.056   3.636  0.3202 -0.4408  0.5447
20981SOL     OW64383   3.653   4.692  12.381 -0.0851  0.1879 -0.4017
20981SOL    HW164384   3.665   4.754  12.453 -0.4003 -0.6959  0.4247
20981SOL    HW264385   3.731   4.637  12.384 -0.1455  0.0852 -0.6870
20982SOL     OW64386   6.328   1.330   6.045 -0.1866  0.3626  0.0323
20982SOL    HW164387   6.380   1.302   6.120  0.1970  0.5625 -0.1526
20982SOL    HW264388   6.266   1.259   6.030  0.1863  0.0154  0.1195
20983SOL     OW64389   0.478   4.099   9.605 -0.2218  0.0308 -0.7854
20983SOL    HW164390   0.459   4.019   9.656  2.8930 -0.6873 -0.5051
20983SOL    HW264391   0.512   4.066   9.522  1.8232  0.9759 -0.3796
20984SOL     OW64392   2.453   7.559   9.050 -0.0127  0.0857 -0.2438
20984SOL    HW164393   2.439   7.644   9.009 -0.0870  1.1635  1.8796
20984SOL    HW264394   2.367   7.536   9.087  0.4934  0.1251  0.9968
20985SOL     OW64395   6.726   7.958   6.871 -0.1147 -0.1803 -0.3041
20985SOL    HW164396   6.774   8.026   6.825 -0.7384  2.4215  2.5837
20985SOL    HW264397   6.634   7.974   6.849 -0.3191  0.3433  0.9030
20986SOL     OW64398   3.482   2.165   2.973 -0.0683 -0.3211 -0.1925
20986SOL    HW164399   3.505   2.230   2.906  2.1673  0.4222  1.1816
20986SOL    HW264400   3.403   2.201   3.015  0.0700  0.5741 -0.6728
20987SOL     OW64401   5.393   5.365   0.771  0.3443 -0.1462  0.3492
20987SOL    HW164402   5.393   5.389   0.678  1.3748 -0.5913  0.2176
20987SOL    HW264403   5.451   5.289   0.776 -2.5388 -2.4513  0.8064
20988SOL     OW64404   6.652   5.594   6.410  0.2780  0.1191  0.1363
20988SOL    HW164405   6.733   5.546   6.393  0.5404 -0.3962  2.4673
20988SOL    HW264406   6.679   5.685   6.420  0.5014  0.0260  0.3950
20989SOL     OW64407   7.603   5.853   9.861 -0.6951  0.0920  0.2702
20989SOL    HW164408   7.698   5.843   9.868 -0.3160  2.1980 -1.0775
20989SOL    HW264409   7.575   5.785   9.800  0.1008  0.1004 -0.1044
20990SOL     OW64410   2.383   2.903   0.062  0.0147  0.4217 -0.3205
20990SOL    HW164411   2.333   2.983   0.078 -0.0830  0.0127  1.6309
20990SOL    HW264412   2.471   2.934   0.041 -0.5146  1.0737 -1.7194
20991SOL     OW64413   3.081   5.597   7.455 -0.2290  0.5886  0.0825
20991SOL    HW164414   3.050   5.645   7.378  0.3830 -0.1348 -0.6306
20991SOL    HW264415   3.007   5.598   7.515  0.0302  3.1973  0.4948
20992SOL     OW64416   0.253   3.193   5.462 -0.1563  0.5250 -0.0817
20992SOL    HW164417   0.256   3.282   5.497  1.3514  1.3765 -2.1625
20992SOL    HW264418   0.344   3.165   5.460 -0.5721 -0.9560  0.1587
20993SOL     OW64419   0.813   7.018   0.505  0.2456  0.4172  0.1978
20993SOL    HW164420   0.721   7.045   0.508  0.0252 -0.3908  1.2234
20993SOL    HW264421   0.862   7.096   0.533 -0.1845  0.6062  0.4238
20994SOL     OW64422   3.521   1.183   7.339  0.3272 -0.4512  0.1571
20994SOL    HW164423   3.432   1.218   7.334  0.5804  0.0537 -1.3435
20994SOL    HW264424   3.534   1.138   7.256  1.3513 -0.8469  0.5123
20995SOL     OW64425   4.569   0.911   8.405 -0.7586 -0.2930  0.3520
20995SOL    HW164426   4.588   0.982   8.466  0.4508 -0.2791 -0.0095
20995SOL    HW264427   4.534   0.954   8.328 -0.6038 -0.1455  0.3638
20996SOL     OW64428   2.834   3.251  11.032  0.4697 -0.1100  0.5257
20996SOL    HW164429   2.811   3.272  10.942  2.0278 -0.8620 -0.0802
20996SOL    HW264430   2.882   3.168  11.026 -1.7651 -1.6743  2.3423
20997SOL     OW64431   7.835   0.578   0.409 -1.1127  0.3455  0.6702
20997SOL    HW164432   7.846   0.657   0.356 -1.4239  1.7251  2.5541
20997SOL    HW264433   7.894   0.514   0.369 -0.5503  1.6456 -0.6752
20998SOL     OW64434   6.695   1.555  11.740 -0.0875  0.9353  0.4301
20998SOL    HW164435   6.766   1.496  11.765 -0.3152  0.2353 -0.5412
20998SOL    HW264436   6.667   1.595  11.823  0.6210  0.3084  0.9870
20999SOL     OW64437   6.970   7.510   8.815  0.2186  0.0001 -0.1325
20999SOL    HW164438   6.878   7.485   8.823  0.4544 -0.9626 -0.2663
20999SOL    HW264439   7.018   7.429   8.836  1.0290  0.4922 -0.0607
21000SOL     OW64440   6.253   1.142  11.088  0.0031 -0.2898 -0.1200
21000SOL    HW164441   6.291   1.085  11.155 -1.1140 -1.0064 -0.0678
21000SOL    HW264442   6.243   1.227  11.132  3.2493  0.5365 -0.6953
21001SOL     OW64443   3.799   5.509   1.106  0.0443  0.6143 -0.2305
21001SOL    HW164444   3.768   5.513   1.016 -1.2651 -0.2434  0.1421
21001SOL    HW264445   3.890   5.478   1.099 -0.1750  0.1536 -1.2434
21002SOL     OW64446   5.286   5.541   7.789 -0.2372  0.6985  0.3924
21002SOL    HW164447   5.215   5.494   7.833 -0.7637  1.2705  0.1738
21002SOL    HW264448   5.305   5.615   7.848 -0.2268  0.8754  0.1685
21003SOL     OW64449   4.763   6.496   8.879  0.5902 -0.9787 -0.3154
21003SOL    HW164450   4.687   6.437   8.869  1.0844 -1.7658  0.4574
21003SOL    HW264451   4.736   6.576   8.834 -2.0356 -0.0015  2.6502
21004SOL     OW64452   5.918   1.713  11.572  0.0518  0.5525  0.4637
21004SOL    HW164453   5.893   1.700  11.481 -2.9162 -0.5231  1.2975
21004SOL    HW264454   6.003   1.669  11.581  1.1978  2.0346 -2.0384
21005SOL     OW64455   7.792   3.781   6.148  0.2833 -0.2624 -0.2933
21005SOL    HW164456   7.801   3.728   6.227  1.0314  0.7233  0.3069
21005SOL    HW264457   7.766   3.719   6.080 -2.7412 -0.7721  1.1733
21006SOL     OW64458   5.529   1.462   2.251  0.0744 -0.1585 -0.1516
21006SOL    HW164459   5.589   1.406   2.300  2.6014  2.3462 -0.1474
21006SOL    HW264460   5.576   1.484   2.172 -1.7216  0.3255 -1.1407
21007SOL     OW64461   0.962   2.886   7.702  0.8550  0.1705  0.4907
21007SOL    HW164462   1.050   2.852   7.719  0.8853  0.0437  0.0700
21007SOL    HW264463   0.906   2.836   7.762  1.2780  1.4085  1.9880
21008SOL     OW64464   3.972   7.592   3.538 -0.0741 -0.0864 -0.3821
21008SOL    HW164465   3.993   7.659   3.603 -1.4810 -1.9206  2.1358
21008SOL    HW264466   4.017   7.621   3.459  1.1111  2.6858  1.1466
21009SOL     OW64467   6.156   0.971  11.719  0.2786  0.6980 -0.8386
21009SOL    HW164468   6.117   1.019  11.792  0.9245  0.3266 -0.2295
21009SOL    HW264469   6.237   1.018  11.699  0.9843 -0.1606 -0.1494
21010SOL     OW64470   0.694   7.265   0.110 -0.1173  0.0571 -0.7809
21010SOL    HW164471   0.751   7.339   0.090  0.9808 -0.2728  0.9413
21010SOL    HW264472   0.654   7.288   0.194  0.3538 -1.3568 -0.1552
21011SOL     OW64473   3.805   2.221   0.357 -0.2384 -0.1221  0.7768
21011SOL    HW164474   3.788   2.190   0.268  0.8006  0.2817  0.4243
21011SOL    HW264475   3.866   2.157   0.393  0.6631  0.6231  0.5999
21012SOL     OW64476   7.141   2.307   6.726 -0.0052  0.1712 -0.1614
21012SOL    HW164477   7.147   2.251   6.803 -0.1208 -1.9387 -1.6148
21012SOL    HW264478   7.150   2.248   6.652 -1.4617  1.8991 -1.8346
21013SOL     OW64479   4.763   7.145   4.440  0.4581 -0.2072  0.0402
21013SOL    HW164480   4.763   7.220   4.500 -1.8326 -0.8890  1.0015
21013SOL    HW264481   4.775   7.184   4.353 -1.2994  1.4048  0.4462
21014SOL     OW64482   1.697   3.615   4.489  0.3629 -0.3479  0.2062
21014SOL    HW164483   1.768   3.592   4.429  1.0059 -1.0071  1.1739
21014SOL    HW264484   1.697   3.710   4.491 -0.0772 -0.2889 -1.2808
21015SOL     OW64485   1.020   1.618   5.444  0.0129 -0.2075  0.3990
21015SOL    HW164486   1.096   1.587   5.492  0.0372 -1.2757 -0.2930
21015SOL    HW264487   1.045   1.607   5.352  0.1040  2.0885  0.0923
21016SOL     OW64488   4.176   1.490  11.156 -0.2798  0.1086 -0.5512
21016SOL    HW164489   4.113   1.548  11.113  0.3285  2.1646  1.1165
21016SOL    HW264490   4.153   1.494  11.249  0.2154 -1.8594 -0.2951
21017SOL     OW64491   6.025   0.831   6.816  0.5914 -0.4536  0.2058
21017SOL    HW164492   5.968   0.823   6.892 -0.2060 -1.2189 -0.4589
21017SOL    HW264493   6.085   0.903   6.839 -0.6812  0.4381  0.8811
21018SOL     OW64494   3.353   5.136   7.780  0.4626  0.4222 -0.2013
21018SOL    HW164495   3.344   5.230   7.761  0.3077  0.8198  1.6434
21018SOL    HW264496   3.440   5.114   7.749  0.4448  1.1503 -0.8003
21019SOL     OW64497   6.068   4.760   8.672 -1.1771 -0.3426  0.4243
21019SOL    HW164498   6.071   4.797   8.761 -1.4763  0.8549 -0.0329
21019SOL    HW264499   6.154   4.722   8.659 -1.1794 -0.6777  1.2839
21020SOL     OW64500   1.035   3.308   5.075  0.4472 -0.1538 -0.5809
21020SOL    HW164501   1.117   3.338   5.114  0.5640 -0.6200 -0.4622
21020SOL    HW264502   1.057   3.292   4.983 -0.2594  2.7348 -1.3742
21021SOL     OW64503   4.924   6.546  11.528 -0.4953 -0.0135  0.3685
21021SOL    HW164504   4.831   6.525  11.518 -1.0814  0.7893  3.2979
21021SOL    HW264505   4.927   6.641  11.531  0.6402  0.0230 -1.0358
21022SOL     OW64506   6.795   5.321   7.075  0.2134  0.6278  0.1880
21022SOL    HW164507   6.720   5.340   7.131 -1.3028 -1.3686 -1.0509
21022SOL    HW264508   6.783   5.230   7.048  3.7092 -0.1823  0.8217
21023SOL     OW64509   1.129   2.772   5.368  0.6944  1.0707  0.0989
21023SOL    HW164510   1.203   2.738   5.419 -1.8630 -3.7883  1.1816
21023SOL    HW264511   1.140   2.734   5.281  0.4950  2.0574 -0.3728
21024SOL     OW64512   0.337   6.108   9.811 -0.2528  0.1918 -0.3265
21024SOL    HW164513   0.324   6.019   9.781  0.4399  0.9895 -3.3222
21024SOL    HW264514   0.431   6.122   9.805 -0.3753  1.1964 -0.1386
21025SOL     OW64515   0.640   0.280   8.160  0.4645  0.0139 -0.4536
21025SOL    HW164516   0.659   0.288   8.067  0.4529 -0.4416 -0.5005
21025SOL    HW264517   0.724   0.294   8.203  0.6583 -0.6829 -0.5873
21026SOL     OW64518   5.667   6.537  10.099 -0.1932 -0.9145 -0.1337
21026SOL    HW164519   5.674   6.614  10.156  0.8853 -1.8881  1.1021
21026SOL    HW264520   5.611   6.566  10.026 -0.9163  0.6220  0.9798
21027SOL     OW64521   7.470   4.020   7.439 -0.0031 -0.3240  0.4159
21027SOL    HW164522   7.438   3.968   7.365 -0.3434 -0.5829  0.7438
21027SOL    HW264523   7.435   4.108   7.424  1.8927  0.2503 -1.0078
21028SOL     OW64524   3.409   3.334  11.519  0.0675 -0.1805 -0.2610
21028SOL    HW164525   3.314   3.343  11.532  0.3305 -0.0759  2.1505
21028SOL    HW264526   3.431   3.253  11.564  1.1154 -0.2479 -0.8815
21029SOL     OW64527   0.940   5.762   4.994  0.0617 -0.0447 -0.1874
21029SOL    HW164528   0.864   5.819   4.992 -0.4911 -0.7991 -1.8275
21029SOL    HW264529   0.906   5.675   4.974  1.1062 -0.7139  0.8188
21030SOL     OW64530   6.558   3.124   2.499  0.5264 -0.2039 -0.3710
21030SOL    HW164531   6.597   3.075   2.572 -0.0589 -2.0019 -1.2096
21030SOL    HW264532   6.620   3.112   2.427  0.9817  1.3629 -0.2741
21031SOL     OW64533   0.226   3.417   1.309 -0.0784  1.0145 -0.2597
21031SOL    HW164534   0.192   3.506   1.321 -0.8600  0.8995 -1.4881
21031SOL    HW264535   0.258   3.415   1.219 -0.4900 -0.0858 -0.4015
21032SOL     OW64536   0.915   7.797   8.001 -0.0294  0.2110  0.0784
21032SOL    HW164537   0.935   7.723   7.944  0.9319 -0.3960  1.1341
21032SOL    HW264538   0.887   7.757   8.083  1.5217  0.9665  1.0237
21033SOL     OW64539   0.006   4.934   7.441  0.5423  0.1432  0.0900
21033SOL    HW164540   0.055   4.853   7.426  2.4493  1.1146  0.6454
21033SOL    HW264541   0.027   4.959   7.531  0.4927  1.5524 -0.2672
21034SOL     OW64542   4.797   7.861   5.429  0.5415  0.4229 -0.4067
21034SOL    HW164543   4.823   7.788   5.487 -0.4940  0.6088  0.3161
21034SOL    HW264544   4.712   7.890   5.463 -0.0494  0.6190 -1.9618
21035SOL     OW64545   4.934   1.844   0.527  0.1171  0.3444 -0.1817
21035SOL    HW164546   4.871   1.787   0.572 -0.2897 -1.3227 -2.6474
21035SOL    HW264547   5.000   1.863   0.593 -1.7872  0.2906  1.8592
21036SOL     OW64548   5.323   6.979  11.109  0.0619  0.5224  0.0574
21036SOL    HW164549   5.383   7.000  11.037  1.3437 -0.7974  0.6947
21036SOL    HW264550   5.244   7.029  11.089 -0.1353 -0.7809 -3.0054
21037SOL     OW64551   6.541   6.748   4.800 -0.0158  0.2308  0.0410
21037SOL    HW164552   6.488   6.808   4.747 -1.1228 -0.6021  0.1690
21037SOL    HW264553   6.599   6.805   4.849 -0.2013  1.1293 -0.7384
21038SOL     OW64554   4.754   2.964   5.234 -0.3792 -0.3499 -0.1906
21038SOL    HW164555   4.838   3.011   5.233 -0.5510 -0.0255  0.2168
21038SOL    HW264556   4.722   2.972   5.145 -0.1309 -0.1835 -0.2684
21039SOL     OW64557   2.760   0.644   0.428  0.2966 -0.0882  0.6838
21039SOL    HW164558   2.784   0.640   0.521 -1.2419 -1.0431  1.0744
21039SOL    HW264559   2.676   0.599   0.423  0.6955 -0.6968 -1.3117
21040SOL     OW64560   5.177   3.730  12.140  0.1036  0.5183 -0.2045
21040SOL    HW164561   5.247   3.749  12.078  0.7723 -2.2336 -0.4449
21040SOL    HW264562   5.186   3.796  12.208  0.8039  2.2228 -1.8648
21041SOL     OW64563   5.257   4.974   4.006 -0.3140  0.3004  1.0801
21041SOL    HW164564   5.296   4.901   3.958 -0.8814 -0.3257  1.5392
21041SOL    HW264565   5.237   5.039   3.939  0.7842  0.3017  0.7452
21042SOL     OW64566   0.074   1.012   1.552  0.4609  0.3178 -0.1121
21042SOL    HW164567   0.143   0.950   1.529 -0.6897 -0.5709 -1.2953
21042SOL    HW264568   0.100   1.093   1.508  1.7294  0.5819  1.0529
21043SOL     OW64569   6.250   2.471   6.683  0.1699  0.5411 -0.7738
21043SOL    HW164570   6.218   2.390   6.643  1.2752  0.9729 -2.6241
21043SOL    HW264571   6.224   2.540   6.622  1.4647  1.2920 -0.5118
21044SOL     OW64572   4.913   0.710  10.992  0.2097  0.4012  0.6593
21044SOL    HW164573   4.883   0.741  10.907  0.3294  0.9173  0.8032
21044SOL    HW264574   5.007   0.727  10.993  0.5145 -1.1118  0.2577
21045SOL     OW64575   5.785   1.066  11.107 -0.3642  0.3616 -0.3857
21045SOL    HW164576   5.864   1.016  11.131  1.1914  2.2141 -1.3243
21045SOL    HW264577   5.737   1.076  11.190  0.7602 -0.2114  0.3706
21046SOL     OW64578   2.305   0.415   5.216  0.4224 -0.5104 -0.6514
21046SOL    HW164579   2.351   0.353   5.160 -0.4682 -0.6959 -1.1806
21046SOL    HW264580   2.334   0.501   5.185  2.6429 -0.5991  0.8936
21047SOL     OW64581   2.591   5.035   6.002  0.7473 -0.2560 -0.7786
21047SOL    HW164582   2.635   5.111   6.037  0.7115 -0.9282  0.8054
21047SOL    HW264583   2.569   5.059   5.912 -0.9490  2.3353  0.2031
21048SOL     OW64584   2.678   5.619   5.556 -0.1346 -0.2245 -0.0132
21048SOL    HW164585   2.677   5.652   5.466  0.8671  1.3551  0.5294
21048SOL    HW264586   2.586   5.600   5.575 -0.3708 -0.4731 -1.3274
21049SOL     OW64587   0.206   4.978  11.987 -0.3273 -0.2591 -0.5535
21049SOL    HW164588   0.293   5.017  11.974 -0.5071  0.4514  0.3141
21049SOL    HW264589   0.183   4.943  11.901  1.0969 -1.0480 -0.6398
21050SOL     OW64590   5.673   4.547  11.438 -0.1754  0.0713  0.1223
21050SOL    HW164591   5.653   4.636  11.408 -0.3659 -0.3255 -0.9616
21050SOL    HW264592   5.769   4.542  11.436 -0.1192  0.5351  1.0637
21051SOL     OW64593   4.302   2.249   9.752 -0.0347 -0.1606 -0.0175
21051SOL    HW164594   4.328   2.159   9.770  3.1523  0.7342  0.5047
21051SOL    HW264595   4.279   2.285   9.838 -2.9759 -0.8182 -0.4197
21052SOL     OW64596   2.415   5.930   0.514 -0.1886  0.1631 -0.0350
21052SOL    HW164597   2.459   5.982   0.447  2.4018 -0.1298  1.3224
21052SOL    HW264598   2.357   5.872   0.465 -0.0180  1.4165 -1.8453
21053SOL     OW64599   4.427   2.971  10.597  0.2180  0.9676  0.4569
21053SOL    HW164600   4.413   3.002  10.508  1.2678  0.1596 -0.0199
21053SOL    HW264601   4.506   2.917  10.591 -1.1589 -1.2836  1.3483
21054SOL     OW64602   2.912   4.789  11.868  0.5117  0.0563 -0.0588
21054SOL    HW164603   2.935   4.827  11.784  1.7007  0.0894  0.2599
21054SOL    HW264604   2.995   4.779  11.914  0.2068 -2.4494  0.0876
21055SOL     OW64605   0.008   6.270  10.273  0.1533  0.3853  0.0195
21055SOL    HW164606  -0.054   6.235  10.336 -0.2795 -0.7487 -1.0033
21055SOL    HW264607   0.057   6.337  10.322 -3.0969  2.7148  0.4050
21056SOL     OW64608   7.070   4.473   0.457 -0.4261 -0.1279  0.5848
21056SOL    HW164609   7.159   4.478   0.492  0.0074  2.1077 -0.6558
21056SOL    HW264610   7.030   4.556   0.481 -1.1969  0.1026 -1.2894
21057SOL     OW64611   6.690   7.517   6.972  0.1635 -0.0065 -0.5100
21057SOL    HW164612   6.650   7.459   7.036  1.5390 -1.1975 -0.6729
21057SOL    HW264613   6.785   7.505   6.984  0.4680 -0.2135 -2.6690
21058SOL     OW64614   6.312   0.042   5.627  0.0887  0.1852  0.8421
21058SOL    HW164615   6.393   0.030   5.678 -0.9402 -0.0414  2.4851
21058SOL    HW264616   6.284   0.131   5.648  0.1468  0.4314 -0.1002
21059SOL     OW64617   6.012   2.754   7.812  0.3201  0.1603 -0.5191
21059SOL    HW164618   6.020   2.839   7.854  0.3318 -0.4032  0.6657
21059SOL    HW264619   6.097   2.740   7.771  0.6561  0.3138  0.1063
21060SOL     OW64620   4.240   5.725   0.726 -0.2087  0.0199  0.5217
21060SOL    HW164621   4.246   5.713   0.821  2.0889 -2.1063  0.2058
21060SOL    HW264622   4.156   5.685   0.703 -0.1650 -0.6871  1.5120
21061SOL     OW64623   1.544   1.773   2.379 -0.5455 -0.3729  0.0051
21061SOL    HW164624   1.481   1.706   2.353 -0.6264  0.1499 -1.2239
21061SOL    HW264625   1.491   1.848   2.406 -0.4817  0.1243 -1.1815
21062SOL     OW64626   3.048   5.270   7.709  0.0505  0.0635  0.1446
21062SOL    HW164627   3.065   5.200   7.773 -1.5939 -0.9295 -0.4403
21062SOL    HW264628   3.134   5.309   7.694  0.5407  0.2323  2.8005
21063SOL     OW64629   1.772   0.289   2.892  0.5554 -0.1901 -0.0812
21063SOL    HW164630   1.700   0.227   2.892  0.9892 -0.7039  0.3978
21063SOL    HW264631   1.741   0.362   2.947  0.2454 -0.2162 -0.2214
21064SOL     OW64632   1.152   1.367   1.742 -0.1305  0.4662  0.5457
21064SOL    HW164633   1.154   1.325   1.828 -1.0825 -0.4964  0.1168
21064SOL    HW264634   1.107   1.450   1.758  0.3226  0.6080  1.1055
21065SOL     OW64635   0.106   6.270   0.524  0.2049 -0.5287  0.0731
21065SOL    HW164636   0.095   6.175   0.523  1.6746 -0.7485 -1.9794
21065SOL    HW264637   0.201   6.283   0.520  0.0026  1.0198 -0.3562
21066SOL     OW64638   0.636   0.030   8.703 -0.2390 -0.3427 -0.3929
21066SOL    HW164639   0.548   0.051   8.734 -0.9150 -0.4808 -2.1389
21066SOL    HW264640   0.635   0.052   8.610  1.4581 -0.7347 -0.5405
21067SOL     OW64641   6.658   1.201   0.866  0.4382 -0.4754  0.0893
21067SOL    HW164642   6.679   1.221   0.775  0.0260  0.8270  0.2603
21067SOL    HW264643   6.578   1.148   0.862 -0.1783  0.4734 -0.2664
21068SOL     OW64644   3.474   5.832   0.876  0.0019 -0.3750  0.2586
21068SOL    HW164645   3.447   5.810   0.787  2.3248 -1.4407 -0.2752
21068SOL    HW264646   3.399   5.877   0.914 -0.4203  1.8598 -2.8676
21069SOL     OW64647   1.425   4.780   8.731  0.2422 -0.6089 -0.0613
21069SOL    HW164648   1.458   4.775   8.642  1.3906  0.3007  0.2835
21069SOL    HW264649   1.499   4.813   8.782 -0.3359 -1.2858  1.2659
21070SOL     OW64650   6.927   2.182   3.072 -0.4898 -0.4611 -0.3312
21070SOL    HW164651   7.020   2.185   3.048 -0.7854  0.8665 -1.4269
21070SOL    HW264652   6.896   2.098   3.040 -0.1220 -0.0607 -1.7987
21071SOL     OW64653   4.579   7.488   2.320  0.1620  0.8223  0.9817
21071SOL    HW164654   4.638   7.466   2.249 -0.7773 -2.5368  1.0658
21071SOL    HW264655   4.614   7.441   2.396 -0.5485  1.8251  1.9545
21072SOL     OW64656   0.653   2.908   3.492 -0.2314 -0.1379  0.2542
21072SOL    HW164657   0.651   2.816   3.464  0.8401  0.4204 -1.8982
21072SOL    HW264658   0.745   2.933   3.483  0.0606  0.4094  3.5965
21073SOL     OW64659   5.533   6.972   0.527  0.8794 -0.5091 -0.5850
21073SOL    HW164660   5.558   7.063   0.544 -0.0783 -0.1845 -0.8044
21073SOL    HW264661   5.463   6.979   0.461 -0.0746 -1.3090  0.3022
21074SOL     OW64662   1.376   7.141   4.526 -0.2006 -0.3641  0.3063
21074SOL    HW164663   1.369   7.230   4.563  0.2416 -0.1694 -0.0699
21074SOL    HW264664   1.303   7.136   4.464  0.0441 -0.0969 -0.0081
21075SOL     OW64665   7.137   5.485   2.470  0.2957  0.2866  0.5457
21075SOL    HW164666   7.187   5.501   2.550 -0.7228  0.8199  1.0842
21075SOL    HW264667   7.204   5.479   2.401  1.1113  0.9104  1.2601
21076SOL     OW64668   4.171   2.208  11.204 -0.1829 -0.1245  0.4240
21076SOL    HW164669   4.093   2.237  11.252 -0.7455 -0.7111 -0.1179
21076SOL    HW264670   4.190   2.281  11.144 -0.8982 -0.3792 -0.1193
21077SOL     OW64671   7.451   4.290   2.879  0.2847  0.9905  0.2071
21077SOL    HW164672   7.407   4.373   2.899 -0.6491  0.7054 -0.5994
21077SOL    HW264673   7.404   4.225   2.931  0.2807  0.7990 -0.0340
21078SOL     OW64674   4.892   7.854   4.954 -0.1336 -0.4665 -0.0006
21078SOL    HW164675   4.948   7.913   4.905 -0.1680 -0.3740  0.0705
21078SOL    HW264676   4.893   7.888   5.044  0.4645 -1.0192  0.2116
21079SOL     OW64677   5.741   6.807   1.560  0.5647  0.2192 -0.5484
21079SOL    HW164678   5.682   6.865   1.608 -1.8698 -1.3261 -1.4749
21079SOL    HW264679   5.767   6.858   1.483 -1.7009  0.1522 -1.4529
21080SOL     OW64680   3.119   5.140   2.344 -0.3879 -0.2840 -0.4836
21080SOL    HW164681   3.191   5.199   2.320 -0.1278 -0.8235 -1.0607
21080SOL    HW264682   3.085   5.176   2.426 -0.2676  0.6982 -0.8464
21081SOL     OW64683   1.023   0.197   4.075  0.4493 -0.1391  0.7622
21081SOL    HW164684   1.107   0.217   4.116  1.2863 -0.5765 -0.6975
21081SOL    HW264685   1.027   0.104   4.055 -0.5353 -0.2447  0.9852
21082SOL     OW64686   1.300   6.070   0.864 -0.3129  0.1600 -0.4198
21082SOL    HW164687   1.314   5.999   0.927  1.2312  0.1355 -0.7415
21082SOL    HW264688   1.330   6.149   0.909 -2.6479  0.7765  0.1868
21083SOL     OW64689   7.228   7.247  11.300 -0.1689  0.6713 -0.0146
21083SOL    HW164690   7.272   7.187  11.360 -0.5443 -0.7883 -1.1508
21083SOL    HW264691   7.183   7.309  11.358  0.2258 -0.1337  1.1960
21084SOL     OW64692   2.801   0.795   4.153 -0.0792 -0.0628 -0.0958
21084SOL    HW164693   2.786   0.722   4.093 -0.3509  0.9676 -1.3260
21084SOL    HW264694   2.873   0.766   4.208 -0.8837 -1.6768  0.1573
21085SOL     OW64695   6.694   3.363   3.451  0.3382  0.3163  0.4630
21085SOL    HW164696   6.752   3.431   3.419 -0.6572  0.8221 -0.3132
21085SOL    HW264697   6.617   3.410   3.484  0.1512 -0.3628  1.0319
21086SOL     OW64698   3.590   5.386   8.742 -0.0064  0.3038 -0.1507
21086SOL    HW164699   3.562   5.295   8.753 -0.8463  0.4503 -1.0049
21086SOL    HW264700   3.554   5.431   8.818  0.5230 -0.0901  0.3458
21087SOL     OW64701   6.804   1.369   7.871  0.0742  0.2351  0.1289
21087SOL    HW164702   6.878   1.310   7.880  0.8837  1.1609 -0.1858
21087SOL    HW264703   6.741   1.321   7.817  1.2122  0.0969 -1.1365
21088SOL     OW64704   0.128   2.822   3.402 -0.7331  0.1678  0.1076
21088SOL    HW164705   0.079   2.899   3.433 -2.1705 -0.0219 -1.5798
21088SOL    HW264706   0.071   2.748   3.421 -0.0991 -0.3128  0.1612
21089SOL     OW64707   5.234   6.602   9.878  0.3332 -0.0132  0.5076
21089SOL    HW164708   5.232   6.653   9.959 -0.0203 -0.3613  0.7263
21089SOL    HW264709   5.326   6.580   9.865  0.5954  1.3138 -0.0043
21090SOL     OW64710   0.244   7.546  11.464 -0.2127  0.0407  0.0144
21090SOL    HW164711   0.304   7.505  11.526 -0.1937 -0.1685 -0.1428
21090SOL    HW264712   0.238   7.637  11.494  0.7077  0.2322 -0.3673
21091SOL     OW64713   5.170   5.744   5.660  0.2938 -0.0070 -0.2936
21091SOL    HW164714   5.112   5.693   5.603  0.7013 -1.2990  0.3971
21091SOL    HW264715   5.221   5.678   5.707  1.4795  1.0675 -0.0012
21092SOL     OW64716   4.065   0.769   9.587 -0.0935  0.2577 -0.0172
21092SOL    HW164717   4.020   0.758   9.671 -1.1675  0.0327 -0.6037
21092SOL    HW264718   4.128   0.698   9.584 -0.9579 -0.5265  0.0342
21093SOL     OW64719   3.856   2.144   0.056 -0.2289 -0.2954 -0.1093
21093SOL    HW164720   3.870   2.050   0.069  0.2686 -0.4063 -1.2764
21093SOL    HW264721   3.837   2.152  -0.038  2.4656  1.0517 -0.6212
21094SOL     OW64722   0.423   3.397   3.472  0.2706  0.1851  0.3219
21094SOL    HW164723   0.383   3.413   3.558  0.3688 -0.4893  0.4968
21094SOL    HW264724   0.445   3.304   3.472  0.9420  0.3330 -0.1528
21095SOL     OW64725   6.069   3.173  11.263  0.4074  0.1285  0.3002
21095SOL    HW164726   6.068   3.100  11.202  1.4945 -0.5207  1.0240
21095SOL    HW264727   5.995   3.227  11.237  1.1821  0.1912 -1.9380
21096SOL     OW64728   2.537   5.106   8.138 -0.3157 -0.0191 -0.6883
21096SOL    HW164729   2.557   5.199   8.136 -0.9588  0.1213 -1.2213
21096SOL    HW264730   2.503   5.087   8.050  1.5969 -1.1783 -1.2316
21097SOL     OW64731   7.761   1.374  11.256 -0.1825  0.2807  0.5502
21097SOL    HW164732   7.788   1.465  11.243 -1.6021  0.7426  0.6399
21097SOL    HW264733   7.674   1.380  11.296 -0.1812 -1.1180  0.8179
21098SOL     OW64734   3.075   7.455   6.825  0.9869 -0.0797  0.1080
21098SOL    HW164735   2.980   7.444   6.819  1.0840 -1.1253  0.4113
21098SOL    HW264736   3.087   7.530   6.883  0.3339  0.9792 -1.0645
21099SOL     OW64737   3.669   6.550  11.223  0.0154 -0.1225  0.2593
21099SOL    HW164738   3.594   6.516  11.271  0.3939  0.0625  0.9957
21099SOL    HW264739   3.669   6.644  11.241  0.1139 -0.0392 -0.1684
21100SOL     OW64740   4.946   3.736  10.673  1.0098  0.0476 -0.0750
21100SOL    HW164741   4.900   3.689  10.742  0.4208 -1.2339 -1.2932
21100SOL    HW264742   4.933   3.682  10.595  1.3683  1.6174 -1.2613
21101SOL     OW64743   5.153   2.513  10.291  0.3166  0.2673  0.2569
21101SOL    HW164744   5.235   2.550  10.258 -0.2334  0.7296 -0.6449
21101SOL    HW264745   5.091   2.586  10.288  0.1017  0.1835  1.8743
21102SOL     OW64746   6.973   1.393  11.571  0.1941 -0.4505 -0.4191
21102SOL    HW164747   7.015   1.466  11.526 -2.0980  1.0770 -0.2520
21102SOL    HW264748   6.957   1.425  11.659 -1.0107 -1.0693 -0.3895
21103SOL     OW64749   7.467   0.817  11.809  0.5061 -0.8237  0.1717
21103SOL    HW164750   7.431   0.739  11.849  0.1546 -0.7700 -0.0434
21103SOL    HW264751   7.411   0.835  11.734  1.2082 -0.9703 -0.4041
21104SOL     OW64752   0.372   7.109   5.084  0.3666 -0.0083 -0.8584
21104SOL    HW164753   0.385   7.077   5.174 -1.6688  1.7757  0.1813
21104SOL    HW264754   0.436   7.180   5.075  0.3356  0.0460 -0.6672
21105SOL     OW64755   7.276   7.512   7.558  0.1624  0.3072  0.2982
21105SOL    HW164756   7.266   7.600   7.520  3.1589  0.0023 -1.5307
21105SOL    HW264757   7.223   7.456   7.501 -0.3101  0.6844  0.3611
21106SOL     OW64758   5.919   7.617   4.105 -0.1176  0.3665 -0.3640
21106SOL    HW164759   6.007   7.579   4.100  0.6324  1.9766 -0.1258
21106SOL    HW264760   5.924   7.695   4.049 -1.2181  0.7894  0.1091
21107SOL     OW64761   4.020   3.613  11.093  0.1207  0.2793 -0.1785
21107SOL    HW164762   4.039   3.704  11.070  1.7760  0.6448  2.3025
21107SOL    HW264763   3.967   3.581  11.019 -0.5425  3.2120 -1.1343
21108SOL     OW64764   1.899   6.354  12.110  0.1755  0.0071 -0.1795
21108SOL    HW164765   1.811   6.324  12.134 -0.0083 -2.0996 -2.9848
21108SOL    HW264766   1.885   6.436  12.063 -0.1851  0.1752  0.2191
21109SOL     OW64767   2.608   2.480   0.167  0.0291 -0.5787  0.1125
21109SOL    HW164768   2.666   2.500   0.093 -2.2942  2.9194 -0.9773
21109SOL    HW264769   2.639   2.536   0.238  0.5626 -1.9290  0.9952
21110SOL     OW64770   6.232   6.675  11.537  0.0727  0.0169  0.5075
21110SOL    HW164771   6.230   6.765  11.504  0.1909 -0.8373 -2.0730
21110SOL    HW264772   6.320   6.664  11.572  0.8145  0.3011 -1.1588
21111SOL     OW64773   1.350   0.442  11.423  0.2031  0.2991  0.1343
21111SOL    HW164774   1.264   0.477  11.401  0.3325  2.2770  2.4638
21111SOL    HW264775   1.349   0.432  11.518  1.5306 -2.6188 -0.0584
21112SOL     OW64776   6.241   5.956   2.214  0.2176  0.0762 -0.0070
21112SOL    HW164777   6.311   5.901   2.250  0.1554 -0.8734 -1.2775
21112SOL    HW264778   6.160   5.918   2.248  0.2170 -0.1294 -0.2352
21113SOL     OW64779   0.419   5.360   0.050 -0.2573  0.0159 -0.0368
21113SOL    HW164780   0.338   5.382   0.096 -0.0054  1.4290 -0.2441
21113SOL    HW264781   0.392   5.348  -0.041 -0.2754  0.2632 -0.0648
21114SOL     OW64782   0.624   4.444   9.084  0.2588 -0.0330 -0.6503
21114SOL    HW164783   0.651   4.532   9.056  2.9768 -0.4391  0.3522
21114SOL    HW264784   0.632   4.446   9.179 -0.5101 -1.1251 -0.5514
21115SOL     OW64785   1.434   0.999  11.348 -0.2210  0.5901 -0.1414
21115SOL    HW164786   1.358   0.982  11.294  1.4837 -1.7426 -2.0112
21115SOL    HW264787   1.509   0.983  11.291  1.7363  3.2587  1.4500
21116SOL     OW64788   6.611   2.556   5.931  0.0866  0.2651  0.0043
21116SOL    HW164789   6.619   2.518   6.019 -1.4095  0.9864  0.4814
21116SOL    HW264790   6.574   2.643   5.945  0.7847  0.8029 -1.2890
21117SOL     OW64791   7.306   4.860   6.798  0.4119 -0.3139 -0.0983
21117SOL    HW164792   7.337   4.936   6.849 -1.1389 -1.2087  2.3312
21117SOL    HW264793   7.382   4.803   6.793  0.3962 -0.6353  2.1704
21118SOL     OW64794   7.215   2.565  10.238  0.1399  0.1665  0.1510
21118SOL    HW164795   7.147   2.499  10.246  1.1599 -1.1782 -1.4764
21118SOL    HW264796   7.296   2.515  10.230  1.0440  1.6431 -0.2572
21119SOL     OW64797   2.938   0.836   3.003  0.2394  0.1566  0.5006
21119SOL    HW164798   2.846   0.811   3.006  0.4931 -0.7260  1.1869
21119SOL    HW264799   2.950   0.892   3.079  0.0639  1.0550 -0.1134
21120SOL     OW64800   6.493   5.674   3.154 -0.2700  0.0655  0.1828
21120SOL    HW164801   6.427   5.632   3.209 -1.5342 -1.6785 -2.4377
21120SOL    HW264802   6.443   5.734   3.099 -0.0427 -2.1663 -2.6960
21121SOL     OW64803   5.956   7.961   6.747  0.2202 -0.1189 -0.0624
21121SOL    HW164804   6.009   7.907   6.689 -1.3053 -0.9560 -0.7304
21121SOL    HW264805   5.916   8.026   6.689  0.8317  0.7798  0.4989
21122SOL     OW64806   0.349   4.987   4.057 -0.1320  0.1290  0.0931
21122SOL    HW164807   0.312   5.044   4.124 -1.0724 -0.0159 -0.2911
21122SOL    HW264808   0.405   5.045   4.005 -0.9866  0.6909 -0.2248
21123SOL     OW64809   1.501   0.643  11.881 -0.0077  0.1048  0.1251
21123SOL    HW164810   1.555   0.721  11.869 -1.3080  1.0371  0.0834
21123SOL    HW264811   1.445   0.664  11.956 -1.2093 -0.2900 -0.6315
21124SOL     OW64812   7.116   5.846   4.582  0.1022 -0.1329 -0.2717
21124SOL    HW164813   7.070   5.914   4.532 -0.4121  0.3726  0.8418
21124SOL    HW264814   7.201   5.885   4.603  0.2646 -0.2924 -0.6217
21125SOL     OW64815   5.995   1.870   0.231 -0.2215  0.1394 -0.2758
21125SOL    HW164816   5.990   1.894   0.138  2.8909 -1.7556 -1.0492
21125SOL    HW264817   6.071   1.917   0.264  0.3117 -1.3086  0.6124
21126SOL     OW64818   0.456   6.961   4.746  0.7655  0.4054  0.0256
21126SOL    HW164819   0.504   7.020   4.689  0.3109  0.5911 -0.1683
21126SOL    HW264820   0.364   6.980   4.729  0.5060 -1.8738 -1.7046
21127SOL     OW64821   5.751   5.366   2.294  0.1440  0.1122  0.0049
21127SOL    HW164822   5.657   5.369   2.313  0.0786 -1.9806  0.2986
21127SOL    HW264823   5.793   5.369   2.380  0.3382  0.6904 -0.1071
21128SOL     OW64824   7.086   3.579   3.919 -0.0550 -0.6065 -0.2352
21128SOL    HW164825   7.055   3.670   3.917  0.9666 -0.2548 -1.1947
21128SOL    HW264826   7.015   3.531   3.962 -0.6079  0.6379  0.3284
21129SOL     OW64827   0.369   5.532   5.291 -0.0757  0.7596  0.4197
21129SOL    HW164828   0.419   5.482   5.226 -0.2808  1.5977 -0.4096
21129SOL    HW264829   0.370   5.477   5.369  2.6771  0.9904  0.6509
21130SOL     OW64830   5.362   4.485   8.830 -0.0554  0.0236  0.0912
21130SOL    HW164831   5.417   4.450   8.759 -1.1518  1.3367 -1.4971
21130SOL    HW264832   5.418   4.483   8.907  2.3605  1.4904 -1.4890
21131SOL     OW64833   3.644   4.375  12.338 -0.1429 -0.8991 -0.0895
21131SOL    HW164834   3.699   4.440  12.382 -2.0767  0.4643  0.4411
21131SOL    HW264835   3.646   4.299  12.396 -0.0404 -0.3122  0.6902
21132SOL     OW64836   5.366   0.301   3.836 -0.1022 -0.5762 -0.5490
21132SOL    HW164837   5.378   0.396   3.838 -0.8420 -0.4838  0.5916
21132SOL    HW264838   5.405   0.270   3.918 -2.6540 -0.8509  0.6708
21133SOL     OW64839   5.651   0.781   6.702  0.4140 -0.3668  0.2733
21133SOL    HW164840   5.691   0.869   6.701  1.2722 -0.7490 -1.1393
21133SOL    HW264841   5.557   0.798   6.704  0.5365  0.5589  2.8278
21134SOL     OW64842   1.975   1.433   2.396  0.0140  0.1705  0.1937
21134SOL    HW164843   1.884   1.447   2.421 -0.3197 -0.8480 -0.3708
21134SOL    HW264844   2.026   1.468   2.469 -0.8789 -0.9135  1.3835
21135SOL     OW64845   1.540   3.338   4.579  0.5531  0.2211 -0.6685
21135SOL    HW164846   1.614   3.307   4.527  1.0833  0.6249 -0.1701
21135SOL    HW264847   1.549   3.292   4.663 -0.1350 -0.2161 -0.8246
21136SOL     OW64848   4.309   6.361   0.702 -0.4187  0.3331  0.2507
21136SOL    HW164849   4.268   6.403   0.778 -2.7740  0.8249 -1.1845
21136SOL    HW264850   4.400   6.389   0.706 -1.1134  2.7790  1.2788
21137SOL     OW64851   2.095   2.558   7.634 -0.5274 -0.6172 -0.0288
21137SOL    HW164852   2.047   2.513   7.703 -1.6640  0.6515  0.0481
21137SOL    HW264853   2.071   2.650   7.644  2.1356  0.1435  0.1710
21138SOL     OW64854   7.122   3.757   9.422  0.2623  0.3752  0.3920
21138SOL    HW164855   7.123   3.662   9.410 -0.5112  0.4923 -0.7268
21138SOL    HW264856   7.185   3.791   9.358 -1.0761  0.7447 -0.7795
21139SOL     OW64857   7.770   6.321   4.056 -0.0144  0.3183 -0.5409
21139SOL    HW164858   7.724   6.304   3.973 -0.2367 -1.4088 -0.0984
21139SOL    HW264859   7.708   6.373   4.107  0.1608  1.4813 -1.4705
21140SOL     OW64860   5.189   0.473   4.623 -0.4444  0.1310 -0.0660
21140SOL    HW164861   5.172   0.487   4.716 -3.1934 -1.1259 -0.2622
21140SOL    HW264862   5.151   0.550   4.580 -1.3841 -0.4014 -0.2324
21141SOL     OW64863   7.166   5.186   4.154 -0.3230  0.4731  0.1848
21141SOL    HW164864   7.221   5.264   4.147  0.6012  0.0531  2.0801
21141SOL    HW264865   7.200   5.140   4.231 -1.1470 -1.5655 -0.6149
21142SOL     OW64866   1.771   2.632   5.905  0.1532 -0.2722  0.0666
21142SOL    HW164867   1.814   2.640   5.990  0.9659 -1.9099 -0.1406
21142SOL    HW264868   1.678   2.640   5.924  0.3039 -0.9918  1.1773
21143SOL     OW64869   7.818   7.104  10.347 -0.0960 -0.1104 -0.4413
21143SOL    HW164870   7.730   7.137  10.331 -0.0923  0.1302  0.0214
21143SOL    HW264871   7.855   7.091  10.260 -0.6777 -0.4569 -0.6432
21144SOL     OW64872   4.280   7.829   8.081 -0.5405 -0.3108 -0.3015
21144SOL    HW164873   4.271   7.882   8.160 -0.4103 -2.1969  1.0375
21144SOL    HW264874   4.323   7.749   8.110 -0.6547 -1.1542 -2.2695
21145SOL     OW64875   5.103   0.742  11.441  0.2377  0.5776 -0.4678
21145SOL    HW164876   5.119   0.792  11.361  0.6419  2.6405  0.8383
21145SOL    HW264877   5.112   0.805  11.512 -1.0362 -0.9783  1.1881
21146SOL     OW64878   6.139   3.973  12.425 -0.1484 -0.1093 -0.3728
21146SOL    HW164879   6.148   4.055  12.376 -2.1996  1.2596  1.3919
21146SOL    HW264880   6.076   3.922  12.374 -0.2505  0.1830 -0.5466
21147SOL     OW64881   2.712   7.079  11.522 -0.2818  0.4391  0.0071
21147SOL    HW164882   2.703   7.030  11.604 -1.6520  2.5360  1.1793
21147SOL    HW264883   2.671   7.023  11.456  1.3309 -1.5387  0.5543
21148SOL     OW64884   1.045   7.456   8.682  0.7388  0.4670  0.2418
21148SOL    HW164885   0.956   7.491   8.678 -0.3901 -2.1262  1.0752
21148SOL    HW264886   1.061   7.442   8.776  0.4181 -2.7314 -0.0731
21149SOL     OW64887   3.248   5.314   9.057  0.0749 -0.1227 -0.2397
21149SOL    HW164888   3.329   5.357   9.031  0.4675  0.1421  1.2843
21149SOL    HW264889   3.264   5.221   9.041  0.3636  0.0122 -0.7330
21150SOL     OW64890   1.616   1.389  10.062 -0.6044  0.7129 -0.5259
21150SOL    HW164891   1.612   1.314  10.002 -1.2083  0.3049  0.0065
21150SOL    HW264892   1.708   1.415  10.061 -0.3032 -0.2815 -0.4470
21151SOL     OW64893   2.680   2.378   1.456  0.1969 -0.2410 -0.2796
21151SOL    HW164894   2.690   2.307   1.393 -0.9168  0.0651 -0.8383
21151SOL    HW264895   2.592   2.365   1.492 -0.2795  1.1854 -0.8513
21152SOL     OW64896   0.116   2.488   2.978  0.0883  0.0371  0.1028
21152SOL    HW164897   0.162   2.554   2.926 -0.3704  0.1853 -0.1135
21152SOL    HW264898   0.173   2.476   3.055  0.5688  0.0997 -0.2386
21153SOL     OW64899   4.823   7.080   0.280 -0.4837  1.3079 -0.8638
21153SOL    HW164900   4.769   7.137   0.334  0.4159  0.7603  0.6925
21153SOL    HW264901   4.769   7.059   0.204 -2.0767  1.5374  0.1664
21154SOL     OW64902   4.999   4.884   3.772  0.3642  0.0433 -0.3407
21154SOL    HW164903   4.943   4.956   3.803 -0.6253 -0.6961 -0.3899
21154SOL    HW264904   5.021   4.909   3.682  1.0075  0.8583  0.0252
21155SOL     OW64905   3.469   7.726   0.987  0.4155  0.6013  0.0728
21155SOL    HW164906   3.408   7.691   1.052  1.3772 -1.3081  0.0382
21155SOL    HW264907   3.438   7.689   0.904 -0.3728  2.4314 -0.4927
21156SOL     OW64908   6.760   2.167   9.239  0.1051  0.1990 -0.5623
21156SOL    HW164909   6.708   2.086   9.236  0.8621 -0.2715 -1.6095
21156SOL    HW264910   6.735   2.213   9.158  1.2778 -0.0273 -1.0717
21157SOL     OW64911   6.710   2.880  10.211 -0.3409 -0.8377 -0.5102
21157SOL    HW164912   6.629   2.855  10.166 -1.9574  1.5697  0.7846
21157SOL    HW264913   6.693   2.861  10.303 -0.0439  0.9229 -0.0487
21158SOL     OW64914   6.024   4.568   2.359 -0.5774 -0.5657 -0.6746
21158SOL    HW164915   6.077   4.489   2.355 -0.1283 -0.2339 -1.5543
21158SOL    HW264916   6.057   4.616   2.435 -0.4083 -0.8983 -0.5349
21159SOL     OW64917   6.332   5.189   0.974  0.4109  0.3744 -0.1442
21159SOL    HW164918   6.302   5.155   0.890 -0.2575 -0.0510  0.2549
21159SOL    HW264919   6.417   5.229   0.955  0.4400 -0.0491 -0.9428
21160SOL     OW64920   5.940   3.615   4.459 -0.3582 -0.4276  0.3181
21160SOL    HW164921   5.861   3.607   4.513  0.1421  0.5001  1.2316
21160SOL    HW264922   5.912   3.665   4.382 -1.4110 -2.9570 -1.0609
21161SOL     OW64923   6.015   3.405   5.040  0.1260  0.5399  0.1221
21161SOL    HW164924   6.071   3.426   5.115  1.2506  1.0422 -0.8291
21161SOL    HW264925   6.029   3.312   5.024 -1.2928  0.0420  1.4418
21162SOL     OW64926   7.263   4.124  10.232 -0.0679  0.0495  0.2804
21162SOL    HW164927   7.341   4.095  10.279 -1.4153 -0.7049  2.1931
21162SOL    HW264928   7.287   4.120  10.140  1.8724 -0.9372  0.7845
21163SOL     OW64929   6.154   6.636   8.938  1.0395  0.0098  0.6580
21163SOL    HW164930   6.082   6.656   8.878  1.2532  0.7886  0.6488
21163SOL    HW264931   6.111   6.626   9.023  0.6722 -1.5930  0.3141
21164SOL     OW64932   3.114   2.380   8.516 -0.0505  0.1259 -0.1488
21164SOL    HW164933   3.110   2.393   8.421 -3.0370 -1.5571 -0.3512
21164SOL    HW264934   3.030   2.411   8.548  0.0839 -1.2460  1.6828
21165SOL     OW64935   4.306   5.172   6.412 -0.2509  0.1253  0.5388
21165SOL    HW164936   4.288   5.081   6.390 -0.7980  0.4326 -0.3320
21165SOL    HW264937   4.352   5.168   6.496 -0.7561 -0.9162  0.7802
21166SOL     OW64938   1.890   5.437   2.664 -0.0279  0.6183  0.0368
21166SOL    HW164939   1.967   5.450   2.720 -0.5994  1.0067  0.7337
21166SOL    HW264940   1.868   5.344   2.675  1.5955 -0.0608 -1.8070
21167SOL     OW64941   1.725   2.414  10.815  0.0024  0.0006 -0.3226
21167SOL    HW164942   1.697   2.354  10.746 -4.0788 -0.3502  1.3318
21167SOL    HW264943   1.685   2.498  10.791  0.5979  0.4975  0.3856
21168SOL     OW64944   4.112   7.653   1.956 -0.0001  0.3215  0.8808
21168SOL    HW164945   4.084   7.639   1.866  0.1337  0.5772  0.7976
21168SOL    HW264946   4.043   7.613   2.010 -0.3100  0.5753  0.6738
21169SOL     OW64947   0.969   2.173   0.497  0.1723 -0.8810 -0.3158
21169SOL    HW164948   1.021   2.097   0.469 -0.0962 -0.7589 -1.1809
21169SOL    HW264949   0.946   2.154   0.588  0.3740 -1.6878 -0.4251
21170SOL     OW64950   6.904   7.641   9.830  0.4454  0.2874 -0.2671
21170SOL    HW164951   6.850   7.590   9.890 -0.2368  0.7494 -0.4702
21170SOL    HW264952   6.965   7.578   9.793 -0.0904 -0.2940 -0.1803
21171SOL     OW64953   1.171   7.255   0.029 -0.0137  0.0748  0.5302
21171SOL    HW164954   1.248   7.198   0.029 -0.0001  0.0765  1.8547
21171SOL    HW264955   1.099   7.198   0.054 -0.2480  0.3224  0.4128
21172SOL     OW64956   5.007   4.811   8.411 -0.0280 -0.5376  0.1183
21172SOL    HW164957   5.061   4.826   8.489  1.2861  0.1262 -0.8811
21172SOL    HW264958   4.975   4.721   8.421  1.3566 -0.9908  0.7044
21173SOL     OW64959   2.342   5.488   3.852 -0.1924 -0.5490 -0.1682
21173SOL    HW164960   2.344   5.471   3.946 -1.5533  2.3438  0.4775
21173SOL    HW264961   2.249   5.504   3.833  0.1069 -0.7865 -1.9504
21174SOL     OW64962   5.217   6.801   3.736  0.3014 -0.4291  0.4998
21174SOL    HW164963   5.178   6.756   3.661 -0.2549  0.2795  0.3616
21174SOL    HW264964   5.161   6.877   3.751 -0.2378 -1.1294  2.3116
21175SOL     OW64965   3.221   4.636  12.447  0.2296 -0.2619  0.0945
21175SOL    HW164966   3.275   4.652  12.370 -1.0182  0.4979 -0.6599
21175SOL    HW264967   3.222   4.719  12.495 -0.0110 -0.3484  0.2504
21176SOL     OW64968   7.318   6.081   8.545 -0.2272 -0.3581  0.4908
21176SOL    HW164969   7.360   6.167   8.548 -1.5909  0.3920 -0.5666
21176SOL    HW264970   7.226   6.099   8.563 -0.2863 -1.8288  1.8347
21177SOL     OW64971   4.176   5.990   6.909 -0.3839 -0.4164 -0.1983
21177SOL    HW164972   4.172   6.056   6.978  2.1151  1.0450 -1.3408
21177SOL    HW264973   4.084   5.972   6.887 -1.1521  2.1462  0.6483
21178SOL     OW64974   2.991   2.012   0.213  0.5497 -0.0450 -0.0584
21178SOL    HW164975   3.017   1.932   0.259 -0.0652 -0.3766 -0.2726
21178SOL    HW264976   3.031   2.003   0.126  1.5841  0.5104  0.3407
21179SOL     OW64977   3.184   5.054   4.014 -0.2752  0.9254 -0.3968
21179SOL    HW164978   3.219   5.025   4.098  0.8639  1.4978 -0.6546
21179SOL    HW264979   3.117   4.989   3.992  0.0298  0.2821  0.5229
21180SOL     OW64980   7.577   2.817   3.453 -0.8342 -0.1921  0.3270
21180SOL    HW164981   7.654   2.838   3.399 -1.3889 -1.0671 -0.8386
21180SOL    HW264982   7.510   2.880   3.425 -0.3921  1.0022  1.8018
21181SOL     OW64983   0.256   0.647   5.399  0.1178  0.5134  0.0258
21181SOL    HW164984   0.302   0.637   5.316 -1.8201  0.7258 -1.1175
21181SOL    HW264985   0.273   0.737   5.426  2.4174 -0.1204  0.9656
21182SOL     OW64986   7.546   0.648  10.870 -0.1098  0.0160 -0.2134
21182SOL    HW164987   7.466   0.596  10.862 -0.2469 -0.1627  1.8979
21182SOL    HW264988   7.564   0.650  10.964  0.9642  2.1605 -0.4109
21183SOL     OW64989   2.389   7.053  11.682  0.4086  0.0069  0.1219
21183SOL    HW164990   2.363   7.103  11.606 -1.1234 -1.4480 -0.3695
21183SOL    HW264991   2.326   7.076  11.750 -0.3476 -1.2286 -0.1243
21184SOL     OW64992   6.763   1.626  10.615  0.1239  0.2724  0.4123
21184SOL    HW164993   6.768   1.719  10.637 -0.3737  0.5976 -0.7441
21184SOL    HW264994   6.683   1.618  10.563  1.2265 -0.4102 -1.2620
21185SOL     OW64995   1.491   5.711   0.086 -0.3925  0.8112  0.1967
21185SOL    HW164996   1.503   5.803   0.111  3.1709  0.7473 -0.8487
21185SOL    HW264997   1.542   5.661   0.149  1.1178 -0.0543 -1.6020
21186SOL     OW64998   0.542   3.133   5.421 -0.4257  0.1784  0.1479
21186SOL    HW164999   0.559   3.042   5.394 -0.8299 -0.0499  0.6343
21186SOL    HW265000   0.626   3.177   5.410 -0.3680 -0.1141 -0.6440
21187SOL     OW65001   4.302   0.447   2.868  0.2952 -0.2468  0.2535
21187SOL    HW165002   4.223   0.418   2.913  1.0278 -1.5326  0.7627
21187SOL    HW265003   4.374   0.406   2.917  1.4423  2.6025  1.1439
21188SOL     OW65004   2.952   5.696   2.312  0.3010  0.5993 -0.2886
21188SOL    HW165005   3.029   5.640   2.313  0.5310  0.8778 -1.3179
21188SOL    HW265006   2.973   5.765   2.250 -0.6079  0.9196 -0.2587
21189SOL     OW65007   5.291   7.942   3.295  0.3576  0.3806 -0.3109
21189SOL    HW165008   5.331   7.867   3.249  0.8035  0.6319 -0.3338
21189SOL    HW265009   5.199   7.919   3.302  0.7699 -1.0388  1.3282
21190SOL     OW65010   1.573   3.773   2.917 -0.2640  0.0947  0.4970
21190SOL    HW165011   1.605   3.769   3.007  0.7296  0.8806  0.2043
21190SOL    HW265012   1.613   3.853   2.881 -0.3258 -0.4100 -0.7492
21191SOL     OW65013   6.077   7.098   0.561  0.3751  0.1816 -0.4314
21191SOL    HW165014   6.068   7.035   0.633  0.3767 -0.1982 -0.7617
21191SOL    HW265015   6.065   7.046   0.482  0.2164  0.6294 -0.7026
21192SOL     OW65016   2.020   4.183   8.868 -0.4522 -0.3936  0.3098
21192SOL    HW165017   2.056   4.098   8.843 -0.3917 -0.0687 -0.7642
21192SOL    HW265018   2.000   4.226   8.784  0.6339  1.1276  0.7900
21193SOL     OW65019   1.390   7.143   9.421  0.1387 -0.7310 -0.3631
21193SOL    HW165020   1.378   7.219   9.364 -0.0852 -0.2402  0.3261
21193SOL    HW265021   1.304   7.102   9.426  0.0381 -0.4695  0.0458
21194SOL     OW65022   3.500   3.454   4.852 -0.3100 -0.0478 -0.8443
21194SOL    HW165023   3.476   3.371   4.812  1.1254 -0.6158 -0.5903
21194SOL    HW265024   3.497   3.439   4.946 -2.5064  0.9506 -0.6807
21195SOL     OW65025   1.294   5.616   6.813 -0.3491  0.3160 -0.1457
21195SOL    HW165026   1.293   5.589   6.905 -0.5010  0.0743 -0.2154
21195SOL    HW265027   1.228   5.559   6.772 -0.0260  0.1756 -0.4700
21196SOL     OW65028   7.819   6.337  11.339  0.0864 -0.0160  0.0929
21196SOL    HW165029   7.836   6.356  11.247  0.4869  0.8669  0.3376
21196SOL    HW265030   7.780   6.417  11.374  0.1549 -0.2574  0.7517
21197SOL     OW65031   1.565   6.782  10.814  0.0355  0.0537 -0.8048
21197SOL    HW165032   1.609   6.794  10.898 -0.3339 -1.3273 -0.4000
21197SOL    HW265033   1.482   6.830  10.823  0.6227  1.1169 -0.9179
21198SOL     OW65034   2.409   1.035  10.299  0.1846  0.2398  0.0490
21198SOL    HW165035   2.485   0.978  10.291  0.2574  0.0815  1.5575
21198SOL    HW265036   2.344   0.981  10.344 -0.0713  1.0423  0.6606
21199SOL     OW65037   6.421   6.110   6.236  0.2837 -0.0108  0.0556
21199SOL    HW165038   6.405   6.044   6.303 -0.4974 -0.7190 -0.8067
21199SOL    HW265039   6.502   6.081   6.193  1.2336  0.8655  1.1475
21200SOL     OW65040   3.212   1.867   3.733 -0.4346  0.1005 -0.1257
21200SOL    HW165041   3.194   1.791   3.787 -0.5931  0.8338  0.8897
21200SOL    HW265042   3.306   1.880   3.739 -0.3855 -0.0931 -0.4253
21201SOL     OW65043   3.400   3.813   4.669 -0.6646 -0.4814  0.7136
21201SOL    HW165044   3.361   3.778   4.590 -0.4484 -1.7341  1.1452
21201SOL    HW265045   3.341   3.884   4.696  0.1068  1.0596 -1.4160
21202SOL     OW65046   1.278   5.369   0.593  0.2601  0.4614 -0.3082
21202SOL    HW165047   1.274   5.301   0.661 -0.7853  1.0733  0.2635
21202SOL    HW265048   1.287   5.320   0.512 -0.3246 -0.3733  0.1118
21203SOL     OW65049   0.660   6.150   6.677  0.0716 -0.3372  0.2690
21203SOL    HW165050   0.650   6.154   6.772  2.1835 -0.1454  0.5135
21203SOL    HW265051   0.660   6.241   6.649 -2.7007 -0.3942 -0.2468
21204SOL     OW65052   6.575   6.610   4.131  0.2193  0.4423 -0.2162
21204SOL    HW165053   6.499   6.623   4.188 -0.2697 -0.1976 -0.6964
21204SOL    HW265054   6.580   6.515   4.121  1.7355  0.3941  0.6520
21205SOL     OW65055   2.996   3.551   2.867  0.2049 -0.2788 -0.1371
21205SOL    HW165056   3.078   3.515   2.902  0.1218 -0.1665  0.1685
21205SOL    HW265057   2.954   3.476   2.825 -0.0636 -0.5926  0.6689
21206SOL     OW65058   5.352   4.734  11.449 -0.3439  0.3398  0.1183
21206SOL    HW165059   5.277   4.784  11.416 -1.3529  0.7078  2.7430
21206SOL    HW265060   5.348   4.651  11.403 -1.0030  1.1813 -1.4255
21207SOL     OW65061   2.492   1.685   8.272  0.0867  0.0576 -0.2459
21207SOL    HW165062   2.551   1.760   8.261 -0.7852  0.6309 -1.1675
21207SOL    HW265063   2.404   1.721   8.259 -0.3895 -1.0094 -0.0875
21208SOL     OW65064   2.281   1.824   7.295  0.4258 -0.2271 -0.0065
21208SOL    HW165065   2.293   1.914   7.322 -2.1058  0.2439 -0.2086
21208SOL    HW265066   2.307   1.823   7.203  0.9349  0.1653  0.1292
21209SOL     OW65067   4.461   0.880   6.055  0.7008 -0.3762 -0.1671
21209SOL    HW165068   4.479   0.798   6.007  1.5609  0.7157 -1.7983
21209SOL    HW265069   4.382   0.915   6.014  1.5295  0.6454 -0.9449
21210SOL     OW65070   7.631   0.665  10.476 -0.1612 -0.3253  0.3356
21210SOL    HW165071   7.569   0.732  10.449 -1.2850 -1.1544  0.8079
21210SOL    HW265072   7.581   0.584  10.477  0.6133 -0.8284  1.8829
21211SOL     OW65073   6.890   7.796   2.875 -0.0461 -0.2887 -0.1477
21211SOL    HW165074   6.979   7.830   2.864  0.1938 -0.6309  0.6629
21211SOL    HW265075   6.884   7.774   2.968 -1.3063  0.6361  0.0253
21212SOL     OW65076   7.946   5.540  10.291  0.5052  0.0230 -0.2226
21212SOL    HW165077   7.873   5.479  10.290 -0.3524  1.0228  0.0248
21212SOL    HW265078   7.906   5.625  10.307  1.5311  0.8696 -1.9171
21213SOL     OW65079   5.335   4.928   0.127 -0.1532 -0.0044  0.3558
21213SOL    HW165080   5.389   5.001   0.158  1.4435 -0.6478 -0.7896
21213SOL    HW265081   5.380   4.896   0.050 -1.0254 -1.9813  0.6100
21214SOL     OW65082   0.585   5.451   5.942  0.1542 -0.2495 -0.0682
21214SOL    HW165083   0.666   5.405   5.921 -0.2190 -0.4345 -1.1283
21214SOL    HW265084   0.615   5.532   5.984  0.8422 -0.9124  0.7517
21215SOL     OW65085   5.326   1.920  12.068 -0.0497  0.0842 -0.2763
21215SOL    HW165086   5.238   1.952  12.088 -0.1044 -0.3636  0.2127
21215SOL    HW265087   5.384   1.968  12.127 -0.2278 -1.3523  1.1468
21216SOL     OW65088   1.009   1.599   3.789 -0.3882 -0.1359  0.2049
21216SOL    HW165089   1.082   1.596   3.851 -0.2201 -0.0690  0.0101
21216SOL    HW265090   0.966   1.513   3.799  0.6892 -0.8213 -0.8445
21217SOL     OW65091   7.535   2.039   1.934  0.8986  0.2746 -0.6532
21217SOL    HW165092   7.564   1.960   1.981  0.6686  0.7018  0.2360
21217SOL    HW265093   7.593   2.108   1.965 -0.4365  0.9493  0.4655
21218SOL     OW65094   5.724   0.708   5.739 -0.1826 -0.7722 -0.1503
21218SOL    HW165095   5.802   0.698   5.683  0.7490 -0.4833  1.0433
21218SOL    HW265096   5.653   0.726   5.678  0.5471 -1.7703 -1.3354
21219SOL     OW65097   6.208   6.332   5.695  0.3205 -0.1417 -0.0199
21219SOL    HW165098   6.294   6.315   5.656  0.6536  1.6664 -0.1862
21219SOL    HW265099   6.147   6.320   5.623  0.6569  0.4928 -0.4239
21220SOL     OW65100   3.467   1.247   0.462  0.4860 -0.0709  0.0795
21220SOL    HW165101   3.419   1.317   0.418 -0.1054 -0.1858  0.5316
21220SOL    HW265102   3.412   1.223   0.536  0.8461 -0.7803  0.1272
21221SOL     OW65103   1.645   0.112   5.085 -0.1828 -0.1005 -0.3395
21221SOL    HW165104   1.737   0.118   5.113  0.4443 -0.8555 -2.1037
21221SOL    HW265105   1.604   0.190   5.123  0.5790 -0.9662  2.5072
21222SOL     OW65106   1.438   4.741  12.156  0.3899  0.2141 -0.0168
21222SOL    HW165107   1.344   4.724  12.148 -0.0162  1.2035  1.9920
21222SOL    HW265108   1.446   4.837  12.152  1.4328  0.1122 -1.0167
21223SOL     OW65109   6.161   7.245   3.547 -0.1329 -0.0602 -0.2099
21223SOL    HW165110   6.146   7.214   3.636  0.2582  0.5194  0.0603
21223SOL    HW265111   6.219   7.320   3.557 -0.3500  0.2080 -0.9317
21224SOL     OW65112   0.041   2.447   8.126 -0.3877 -0.0182 -0.0113
21224SOL    HW165113  -0.021   2.395   8.075 -0.6224 -0.2182  0.4696
21224SOL    HW265114  -0.001   2.533   8.134 -1.1740 -0.5016  1.3312
21225SOL     OW65115   1.294   1.480  12.176  0.1604  0.4624  0.2065
21225SOL    HW165116   1.386   1.468  12.152  0.0047  0.7980 -0.6036
21225SOL    HW265117   1.297   1.531  12.257  0.6912  0.0382  0.4630
21226SOL     OW65118   2.760   1.761   0.203 -0.3009  0.1090  0.3778
21226SOL    HW165119   2.696   1.734   0.268 -1.2188  0.1938 -0.4743
21226SOL    HW265120   2.708   1.787   0.127  0.7688 -2.0035 -1.1741
21227SOL     OW65121   3.280   1.678   2.396  0.3154 -0.0917 -0.6928
21227SOL    HW165122   3.281   1.710   2.486  1.8429 -0.2421 -0.6350
21227SOL    HW265123   3.352   1.723   2.353  1.5013 -2.1571 -1.0414
21228SOL     OW65124   3.282   6.767  10.531  0.3105  0.5770 -0.6080
21228SOL    HW165125   3.226   6.693  10.510 -1.3468  1.3160  0.9112
21228SOL    HW265126   3.261   6.833  10.466 -1.0347  1.0378  0.2572
21229SOL     OW65127   5.084   5.385   4.979 -0.1901  0.4719 -0.2999
21229SOL    HW165128   5.055   5.324   4.911 -1.3348  0.2442  0.3762
21229SOL    HW265129   5.162   5.343   5.016 -0.0510  0.1891 -0.8869
21230SOL     OW65130   3.219   0.578   4.072 -0.1171  0.5307 -0.2193
21230SOL    HW165131   3.265   0.527   4.138  0.0989 -1.4026 -1.7709
21230SOL    HW265132   3.282   0.644   4.043  1.4459 -1.4725 -1.6353
21231SOL     OW65133   0.691   3.346   1.741  0.1085 -0.3158  0.4432
21231SOL    HW165134   0.701   3.254   1.714 -1.2487 -0.4697  0.3996
21231SOL    HW265135   0.770   3.364   1.792  0.9867 -1.1261 -0.5519
21232SOL     OW65136   3.323   7.526  11.405  0.6287 -0.5803  0.4882
21232SOL    HW165137   3.233   7.515  11.374  0.8840 -0.8523 -0.1858
21232SOL    HW265138   3.315   7.534  11.500 -0.0264 -1.6019  0.5400
21233SOL     OW65139   4.935   0.110  10.540  0.1941  0.1769 -0.2944
21233SOL    HW165140   5.025   0.143  10.542  0.5475 -0.7602 -0.3406
21233SOL    HW265141   4.924   0.065  10.623  0.1992 -0.7894 -0.8002
21234SOL     OW65142   0.582   2.537   4.372 -0.3782  0.4233  0.1082
21234SOL    HW165143   0.655   2.558   4.312 -0.1338  1.8575  0.8494
21234SOL    HW265144   0.621   2.480   4.438 -0.5452 -0.8216 -0.8469
21235SOL     OW65145   1.481   6.130   3.503 -0.4072 -0.5362  0.0302
21235SOL    HW165146   1.559   6.175   3.537 -0.3501 -1.2982  0.9658
21235SOL    HW265147   1.515   6.047   3.468 -0.7690 -0.8079  0.3134
21236SOL     OW65148   7.397   3.402   6.964 -0.0258  0.4433  0.0341
21236SOL    HW165149   7.399   3.418   6.869  0.7979  0.5969  0.0681
21236SOL    HW265150   7.488   3.412   6.992  0.0790 -1.5372  0.5276
21237SOL     OW65151   1.134   4.021   3.424  0.5805 -0.3342  0.4314
21237SOL    HW165152   1.070   4.087   3.448 -0.6674 -1.2994 -0.1503
21237SOL    HW265153   1.186   4.008   3.504  1.1667  1.6325  0.4249
21238SOL     OW65154   1.473   5.874   7.595 -0.1429  0.0597  0.0063
21238SOL    HW165155   1.545   5.935   7.611 -1.2835  1.6569 -0.6592
21238SOL    HW265156   1.396   5.930   7.586 -1.3420 -1.5400 -0.0921
21239SOL     OW65157   6.002   6.732   2.015 -0.0433 -0.3482 -0.7888
21239SOL    HW165158   5.981   6.805   2.072 -0.3441  0.2743 -1.6730
21239SOL    HW265159   5.934   6.733   1.948 -0.3068 -1.7142 -0.5733
21240SOL     OW65160   4.408   2.178   7.338  0.6414 -0.1375 -1.0677
21240SOL    HW165161   4.345   2.249   7.349 -2.0368 -2.1072 -2.4172
21240SOL    HW265162   4.465   2.208   7.268  1.5100  1.8262  0.3733
21241SOL     OW65163   6.630   5.098   1.229  0.0056 -0.3769  0.7263
21241SOL    HW165164   6.611   5.154   1.304  1.0993 -0.8483  1.3940
21241SOL    HW265165   6.723   5.114   1.211  0.2395 -1.6668  0.7010
21242SOL     OW65166   5.664   7.821  10.903  0.0067  0.5605  0.2149
21242SOL    HW165167   5.703   7.873  10.973  1.8414 -1.0921  0.5209
21242SOL    HW265168   5.569   7.828  10.917  0.2987  0.9686  2.3456
21243SOL     OW65169   5.057   6.430   3.174  0.7540 -0.1116 -0.0399
21243SOL    HW165170   5.043   6.512   3.221  2.4613  1.2068 -1.6734
21243SOL    HW265171   4.974   6.414   3.128  0.2470  0.4066  0.6647
21244SOL     OW65172   7.202   2.240   5.763 -0.3535  0.2049 -0.1794
21244SOL    HW165173   7.230   2.213   5.675  0.9621  0.3635  0.1609
21244SOL    HW265174   7.107   2.241   5.759 -0.3311 -0.4257 -1.4144
21245SOL     OW65175   6.402   4.238   1.010 -0.7574 -0.5286  0.4377
21245SOL    HW165176   6.420   4.302   1.078 -3.5095  0.4624  0.3300
21245SOL    HW265177   6.407   4.153   1.055  0.1215 -0.0880  1.2101
21246SOL     OW65178   3.106   7.128   9.450 -0.6671  0.8666  0.1328
21246SOL    HW165179   3.070   7.180   9.379 -0.0899  1.7815  0.4930
21246SOL    HW265180   3.173   7.073   9.409 -1.3588  0.3129 -0.2664
21247SOL     OW65181   1.078   2.536   5.708 -0.3641  0.0944 -0.0486
21247SOL    HW165182   1.064   2.621   5.749 -0.6465 -0.3054  0.7028
21247SOL    HW265183   1.139   2.491   5.766  1.8848  0.7279 -1.7769
21248SOL     OW65184   1.233   0.412   7.705  0.2555  0.2173 -0.3961
21248SOL    HW165185   1.158   0.413   7.645 -0.5555  1.4321  0.6016
21248SOL    HW265186   1.271   0.499   7.696 -0.5553  0.8297  1.6500
21249SOL     OW65187   7.811   5.920   0.120  0.6288 -0.0192  0.0197
21249SOL    HW165188   7.900   5.901   0.091  1.2493  1.1055  1.0975
21249SOL    HW265189   7.821   5.992   0.183 -1.2588  1.7816 -1.5894
21250SOL     OW65190   1.756   6.923   6.057 -0.1253 -0.5741 -0.0014
21250SOL    HW165191   1.673   6.923   6.104 -0.3479 -1.9593 -0.3451
21250SOL    HW265192   1.784   6.831   6.056  1.4554 -0.1303  0.1717
21251SOL     OW65193   1.561   0.154  10.773  0.0873 -0.2178  0.1133
21251SOL    HW165194   1.516   0.097  10.835  0.3076  0.0265  0.5068
21251SOL    HW265195   1.641   0.181  10.819  0.0893  0.2356 -0.1473
21252SOL     OW65196   5.227   1.318  12.348 -0.0375  0.4702  0.2281
21252SOL    HW165197   5.274   1.236  12.333 -1.1140 -0.0974 -0.1471
21252SOL    HW265198   5.185   1.306  12.433 -1.2966  0.0826 -0.4362
21253SOL     OW65199   2.455   0.789   5.946 -0.1492 -0.4232 -0.4743
21253SOL    HW165200   2.467   0.760   5.855  0.2016  0.0035 -0.5667
21253SOL    HW265201   2.433   0.882   5.939  0.8274 -0.1489 -0.0867
21254SOL     OW65202   7.538   0.494   6.024 -0.3321  0.2584 -0.0938
21254SOL    HW165203   7.490   0.572   5.998  1.3517  1.5345  0.3936
21254SOL    HW265204   7.615   0.493   5.967  0.2655 -0.3754  0.6919
21255SOL     OW65205   1.887   3.993   6.091  0.2533 -0.4212 -0.0267
21255SOL    HW165206   1.799   3.955   6.097  0.5353 -1.0946 -0.0670
21255SOL    HW265207   1.879   4.078   6.134 -0.5607 -0.2115 -0.5493
21256SOL     OW65208   2.667   5.284   6.474 -0.0331 -0.4015  0.8713
21256SOL    HW165209   2.593   5.229   6.450  0.4559  0.1706 -2.3222
21256SOL    HW265210   2.731   5.223   6.511 -0.1316 -1.8052 -1.0910
21257SOL     OW65211   0.758   3.056   6.970  0.3192 -0.5782 -0.5748
21257SOL    HW165212   0.680   3.102   6.939  1.2254  2.9655  1.8549
21257SOL    HW265213   0.724   2.985   7.024 -1.2281  0.3368 -0.2943
21258SOL     OW65214   3.077   3.970   9.901 -0.4739 -0.2892  0.1193
21258SOL    HW165215   3.112   3.913   9.832  1.4602 -1.3264  1.8390
21258SOL    HW265216   3.024   3.911   9.955 -0.9366  0.2331  0.2388
21259SOL     OW65217   2.481   5.776   1.846 -0.0716  0.3856 -0.2897
21259SOL    HW165218   2.515   5.687   1.859  0.7458  0.5599 -1.1518
21259SOL    HW265219   2.529   5.809   1.771 -1.4461  1.0322 -0.9036
21260SOL     OW65220   5.792   1.109   6.249  0.4275 -0.5397  0.0605
21260SOL    HW165221   5.867   1.152   6.290 -0.6547  2.0107 -0.5041
21260SOL    HW265222   5.738   1.079   6.323 -0.3055  1.8533  0.5594
21261SOL     OW65223   7.350   5.168   3.322 -0.6910 -0.3165  0.0360
21261SOL    HW165224   7.383   5.258   3.329 -1.9394  0.0620  1.6256
21261SOL    HW265225   7.402   5.118   3.386 -0.3689 -0.6220 -0.4579
21262SOL     OW65226   6.195   0.380   2.057  0.2056  0.2757 -0.2923
21262SOL    HW165227   6.206   0.398   2.150 -0.7594  0.0050 -0.1184
21262SOL    HW265228   6.142   0.300   2.054 -1.4714  1.3684 -1.0672
21263SOL     OW65229   7.085   2.627   7.479  0.0146  0.4252 -0.2180
21263SOL    HW165230   6.991   2.645   7.473  0.0283  0.1682 -1.4005
21263SOL    HW265231   7.112   2.607   7.389  0.7502 -1.7921  0.4385
21264SOL     OW65232   5.310   0.288   8.780 -0.2498 -0.2228  0.6351
21264SOL    HW165233   5.291   0.225   8.849 -1.6638  1.6141  2.0248
21264SOL    HW265234   5.249   0.265   8.710  1.1351 -2.0423 -0.0726
21265SOL     OW65235   4.042   4.031   7.116 -0.6915  0.1515  0.2788
21265SOL    HW165236   4.002   4.002   7.034 -0.9121  1.0584  0.0608
21265SOL    HW265237   4.135   4.009   7.106 -0.9755 -1.3104  0.5003
21266SOL     OW65238   0.371   2.398   4.243 -0.2033 -0.2604 -0.2569
21266SOL    HW165239   0.316   2.476   4.246  0.0576 -0.0797 -0.1783
21266SOL    HW265240   0.460   2.431   4.245 -0.0118 -0.6162  2.9657
21267SOL     OW65241   2.923   6.649   6.130 -0.6575 -0.4423  0.1995
21267SOL    HW165242   2.973   6.603   6.063  0.7355  1.4832 -0.1770
21267SOL    HW265243   2.924   6.741   6.102 -0.9238  0.2573  2.2984
21268SOL     OW65244   4.604   6.331  11.821 -0.0653  0.0382 -0.1433
21268SOL    HW165245   4.514   6.311  11.792  0.5138 -1.3486 -1.1013
21268SOL    HW265246   4.599   6.421  11.853 -2.0833 -0.4207  1.0588
21269SOL     OW65247   1.054   0.160   2.418  0.5850  0.0774  0.3479
21269SOL    HW165248   0.997   0.092   2.455 -0.1039  0.5589  0.1834
21269SOL    HW265249   1.106   0.114   2.352 -1.0301 -0.0041 -0.9418
21270SOL     OW65250   7.569   6.467   0.114  0.3984 -0.0483  0.0558
21270SOL    HW165251   7.535   6.421   0.037  1.6718  0.8231 -1.0750
21270SOL    HW265252   7.656   6.431   0.127  0.6482  0.6483  0.3545
21271SOL     OW65253   4.565   0.749  11.626  0.2323 -0.3766 -0.9197
21271SOL    HW165254   4.659   0.754  11.642  0.4900 -0.3704 -2.2634
21271SOL    HW265255   4.558   0.723  11.534 -1.0847 -1.1526 -0.6309
21272SOL     OW65256   4.470   2.011  11.462 -0.1467 -0.0064  0.1023
21272SOL    HW165257   4.535   1.973  11.402 -0.1483  0.2705 -0.0793
21272SOL    HW265258   4.496   2.103  11.469 -0.5957  0.1360 -0.0768
21273SOL     OW65259   7.176   1.181  11.676  0.3906 -0.2688 -0.1235
21273SOL    HW165260   7.127   1.252  11.632  0.3368  0.2679  0.7745
21273SOL    HW265261   7.132   1.171  11.760  2.4755  1.0375  1.2302
21274SOL     OW65262   2.684   2.489   1.878  0.2256  0.3415 -0.4322
21274SOL    HW165263   2.600   2.445   1.867  0.0177  0.7621 -0.5459
21274SOL    HW265264   2.745   2.418   1.900 -0.0885 -0.0083 -0.6672
21275SOL     OW65265   2.536   1.790   9.552  0.5035 -0.3216  0.1822
21275SOL    HW165266   2.469   1.797   9.484 -0.8144  1.2087  1.5506
21275SOL    HW265267   2.549   1.880   9.582  0.3722 -1.0397  2.5548
21276SOL     OW65268   2.172   6.293  10.990  0.4587 -0.0045 -0.1302
21276SOL    HW165269   2.249   6.351  10.988  1.7442 -1.3948  2.5249
21276SOL    HW265270   2.115   6.332  11.056 -0.4366  0.1874 -0.9970
21277SOL     OW65271   4.957   1.904  11.073  0.1925 -0.5427  0.4807
21277SOL    HW165272   4.929   1.867  11.156  1.0630 -0.3555  0.8700
21277SOL    HW265273   5.024   1.967  11.096 -1.5072  1.6024 -0.1281
21278SOL     OW65274   1.679   6.329   6.807  0.1186  0.6366 -0.3793
21278SOL    HW165275   1.753   6.274   6.780 -1.3070 -1.6487  0.0853
21278SOL    HW265276   1.671   6.313   6.902  0.2541  2.4624 -0.0256
21279SOL     OW65277   0.668   2.111  10.919 -0.3137 -0.1765 -0.0782
21279SOL    HW165278   0.641   2.095  10.829 -3.5118 -1.2258  0.9437
21279SOL    HW265279   0.674   2.206  10.926 -0.1019 -0.0797 -1.3398
21280SOL     OW65280   0.718   7.497   4.734 -0.1617  0.8472 -0.1341
21280SOL    HW165281   0.747   7.562   4.669 -0.8477  0.0472 -1.2841
21280SOL    HW265282   0.649   7.448   4.689 -1.0096  0.5848  1.3977
21281SOL     OW65283   4.149   4.050   6.193 -0.3165 -0.2159  0.0278
21281SOL    HW165284   4.220   4.063   6.129  0.4149  0.2733  0.9206
21281SOL    HW265285   4.147   3.955   6.208 -2.4876 -0.8030 -2.9097
21282SOL     OW65286   3.484   6.313   2.232  0.4375 -0.5496 -0.9506
21282SOL    HW165287   3.404   6.355   2.201  0.6285  0.7366  0.2000
21282SOL    HW265288   3.541   6.310   2.156 -0.5070 -0.9898 -1.6507
21283SOL     OW65289   0.965   5.986  11.055  0.5081 -0.8906  0.2820
21283SOL    HW165290   0.882   5.943  11.073  0.2632 -1.4907 -1.9852
21283SOL    HW265291   1.032   5.920  11.074  0.2972 -1.3216 -0.4528
21284SOL     OW65292   2.786   4.137   2.880 -0.2899  0.0500  0.2370
21284SOL    HW165293   2.698   4.128   2.915 -0.5409  3.3573  0.7591
21284SOL    HW265294   2.775   4.132   2.785 -0.9599 -0.1114  0.3242
21285SOL     OW65295   7.359   1.059  12.404  0.5258 -0.0561  0.0958
21285SOL    HW165296   7.402   1.140  12.434  2.1544 -0.7361 -0.2905
21285SOL    HW265297   7.350   1.071  12.310  0.4447 -0.1798  0.0880
21286SOL     OW65298   3.251   4.239   4.405 -0.6430  0.4497  0.0418
21286SOL    HW165299   3.208   4.231   4.320 -0.0334  3.3074 -0.6262
21286SOL    HW265300   3.180   4.228   4.469 -1.6813  1.3078 -0.9237
21287SOL     OW65301   4.053   0.714  10.719  0.0854  0.3666  0.0968
21287SOL    HW165302   4.033   0.699  10.627  1.5655  5.3597 -1.3792
21287SOL    HW265303   3.968   0.729  10.760 -0.5037 -0.3393 -0.8416
21288SOL     OW65304   7.772   0.159  10.410 -0.1586 -0.2038 -0.4830
21288SOL    HW165305   7.725   0.238  10.436 -0.4569 -0.3426 -0.5939
21288SOL    HW265306   7.732   0.090  10.463  1.0024 -0.0751  0.6092
21289SOL     OW65307   7.329   0.812  12.145  0.1752  0.6216  0.3214
21289SOL    HW165308   7.313   0.907  12.142 -1.2961  0.4003  0.5006
21289SOL    HW265309   7.271   0.776  12.079  2.1975 -0.0274 -1.2107
21290SOL     OW65310   0.045   7.144  12.318  0.1563  0.0265 -0.0222
21290SOL    HW165311   0.014   7.207  12.382  0.0534  1.4410 -1.3984
21290SOL    HW265312   0.140   7.148  12.323  0.2350  2.2047 -1.7867
21291SOL     OW65313   6.244   7.596   7.700 -0.8925  0.4816  0.5073
21291SOL    HW165314   6.262   7.678   7.653 -0.5054 -0.5375 -1.2453
21291SOL    HW265315   6.329   7.570   7.736 -1.0445  0.9144  1.1837
21292SOL     OW65316   6.011   7.853   2.439  0.2514 -0.0893  0.5408
21292SOL    HW165317   6.038   7.905   2.515  2.0081 -3.3431  2.3694
21292SOL    HW265318   6.088   7.853   2.382  0.4584 -0.9439  0.7914
21293SOL     OW65319   2.018   5.668   5.307  0.1221  0.4228 -0.3453
21293SOL    HW165320   1.941   5.677   5.251 -0.5780 -2.2517  0.0805
21293SOL    HW265321   2.058   5.585   5.281 -0.3544 -1.0539  3.1717
21294SOL     OW65322   1.954   3.328   9.144  0.3233  0.0990  0.5168
21294SOL    HW165323   2.032   3.288   9.106  0.6496  0.3649  0.8903
21294SOL    HW265324   1.978   3.344   9.235 -0.4474 -0.5311  0.8370
21295SOL     OW65325   2.375   5.629   4.245 -0.1576 -0.1339 -0.5207
21295SOL    HW165326   2.417   5.659   4.326 -2.4854  2.3538 -0.0861
21295SOL    HW265327   2.441   5.572   4.204  1.5841 -0.5534  2.4825
21296SOL     OW65328   3.022   5.086   4.321 -0.2918 -0.4955 -0.3487
21296SOL    HW165329   2.986   5.046   4.400 -0.4592  0.5320  0.1132
21296SOL    HW265330   3.094   5.028   4.296  0.1224 -0.5557  0.8823
21297SOL     OW65331   5.060   5.720   2.884  0.8070  0.6341 -0.1132
21297SOL    HW165332   5.043   5.797   2.938  0.2739  1.3771 -1.3145
21297SOL    HW265333   4.973   5.694   2.851  0.8151 -1.1303  1.1044
21298SOL     OW65334   5.595   2.765   5.080 -0.3270  0.1078 -0.1727
21298SOL    HW165335   5.523   2.705   5.061 -0.1626 -0.1721  0.0786
21298SOL    HW265336   5.673   2.720   5.048  0.0729 -0.7672  1.8942
21299SOL     OW65337   1.694   2.352   4.915  1.0611 -0.1458 -0.0853
21299SOL    HW165338   1.749   2.279   4.944  0.1704 -0.1876  1.6051
21299SOL    HW265339   1.620   2.352   4.975  0.2430  1.1996 -1.0271
21300SOL     OW65340   3.378   4.350  12.241  0.5237  0.4771  0.3928
21300SOL    HW165341   3.473   4.358  12.251  0.6340  1.9669 -1.3827
21300SOL    HW265342   3.346   4.440  12.237 -0.5841  0.0598 -1.8951
21301SOL     OW65343   7.567   7.197  10.282 -0.1669 -0.5503  0.2956
21301SOL    HW165344   7.521   7.237  10.356 -0.3131  1.3282 -0.7355
21301SOL    HW265345   7.498   7.150  10.234 -0.3581 -0.5337  0.5522
21302SOL     OW65346   5.198   0.494   1.409 -0.2191 -0.0787 -0.3994
21302SOL    HW165347   5.227   0.404   1.403  0.6171  0.1557  0.0629
21302SOL    HW265348   5.134   0.503   1.338  0.0166 -0.9048 -0.7265
21303SOL     OW65349   1.203   4.935   6.579  0.5261 -0.0374  0.1184
21303SOL    HW165350   1.253   5.016   6.570  0.1870  0.1324 -0.3064
21303SOL    HW265351   1.182   4.911   6.488  0.3658 -0.4350  0.2613
21304SOL     OW65352   1.926   5.029   2.093  0.1404  0.2408  0.1971
21304SOL    HW165353   1.936   4.941   2.130 -0.0255  0.1926  0.1247
21304SOL    HW265354   2.014   5.067   2.101 -0.4286  1.1980  3.0794
21305SOL     OW65355   0.147   6.503   1.642  0.1192  0.3355  0.0846
21305SOL    HW165356   0.186   6.457   1.568 -0.9918  1.7419 -1.4418
21305SOL    HW265357   0.204   6.578   1.658  1.0072 -0.5840  1.4808
21306SOL     OW65358   6.645   6.646  11.504 -0.3444  0.2532 -0.8004
21306SOL    HW165359   6.605   6.561  11.485 -0.3307 -0.5552  2.2191
21306SOL    HW265360   6.735   6.624  11.530 -1.0580  0.7564  2.5408
21307SOL     OW65361   5.737   2.793   7.477  0.1445  0.5735 -0.0154
21307SOL    HW165362   5.736   2.888   7.488  1.5953  0.6224 -0.1421
21307SOL    HW265363   5.716   2.779   7.385  0.8509  0.8304 -0.2208
21308SOL     OW65364   0.075   6.854  12.427  0.0820  0.5062 -0.1846
21308SOL    HW165365   0.055   6.942  12.397 -2.9234  0.4820  1.4002
21308SOL    HW265366   0.086   6.862  12.522 -0.7908 -0.8642  0.0667
21309SOL     OW65367   2.588   6.211   2.758  0.5816 -0.4374  0.3838
21309SOL    HW165368   2.511   6.178   2.712  0.3358  1.3551 -0.5810
21309SOL    HW265369   2.660   6.159   2.722  0.2220  0.0513 -1.1374
21310SOL     OW65370   7.020   4.105  10.371  0.3288 -0.4430  0.6680
21310SOL    HW165371   7.014   4.187  10.420 -0.6259 -0.3595  0.4351
21310SOL    HW265372   7.111   4.101  10.340  0.5223  0.2554  1.1406
21311SOL     OW65373   0.563   5.772  10.490 -0.3742  0.1427  0.0821
21311SOL    HW165374   0.658   5.757  10.500 -0.0851  0.2794 -2.0907
21311SOL    HW265375   0.528   5.688  10.462 -0.6745  0.4546 -0.4854
21312SOL     OW65376   5.469   0.546   5.578 -0.3664  0.3355  0.2402
21312SOL    HW165377   5.527   0.487   5.530 -1.8562  0.3212 -1.6899
21312SOL    HW265378   5.439   0.494   5.653  1.0609 -0.0975  0.5395
21313SOL     OW65379   4.854   2.917   5.718  0.0234  0.0781  0.4136
21313SOL    HW165380   4.805   2.917   5.800 -0.1715  0.5378  0.3017
21313SOL    HW265381   4.789   2.896   5.651  0.1930 -0.3524  0.3802
21314SOL     OW65382   3.696   2.328   6.499  0.2754 -0.3237 -0.3662
21314SOL    HW165383   3.658   2.415   6.492 -0.5536 -0.6641 -0.3001
21314SOL    HW265384   3.663   2.294   6.583 -1.6080 -1.6797 -1.5621
21315SOL     OW65385   3.385   1.721   3.067  0.4734  0.0768  0.0289
21315SOL    HW165386   3.348   1.638   3.036 -0.0543  0.4058 -0.2446
21315SOL    HW265387   3.336   1.788   3.019 -0.3382  0.6099  1.5286
21316SOL     OW65388   5.024   3.458   8.175 -1.0225 -0.2434 -0.1447
21316SOL    HW165389   5.057   3.508   8.100  0.8216 -1.3905 -0.1455
21316SOL    HW265390   5.011   3.524   8.243 -0.4014  0.4835 -0.7096
21317SOL     OW65391   1.465   0.002   2.281  0.3089 -0.0278  0.0565
21317SOL    HW165392   1.492  -0.053   2.355 -1.5894 -0.1979  0.6869
21317SOL    HW265393   1.433   0.083   2.322 -1.8334 -0.5662 -0.4203
21318SOL     OW65394   4.373   5.634  11.950  0.6510 -0.2253  0.0397
21318SOL    HW165395   4.359   5.729  11.953  0.8861 -0.1987  1.8760
21318SOL    HW265396   4.291   5.597  11.981  0.9069 -0.5564  0.3354
21319SOL     OW65397   3.820   7.777   2.244  0.2225 -0.3809 -0.8278
21319SOL    HW165398   3.873   7.727   2.181  0.1521 -1.1401 -0.3057
21319SOL    HW265399   3.767   7.710   2.288  0.0267  0.1814 -0.2007
21320SOL     OW65400   2.278   7.234  12.065  0.1449 -0.1268 -0.1361
21320SOL    HW165401   2.229   7.256  11.986  1.2959  0.2268 -0.7704
21320SOL    HW265402   2.290   7.139  12.061  0.9859 -0.0022 -0.8708
21321SOL     OW65403   6.901   6.361   2.168  0.5927 -0.1684  0.2403
21321SOL    HW165404   6.883   6.274   2.201  0.3588 -0.4084 -0.5010
21321SOL    HW265405   6.907   6.350   2.073 -1.9662  1.0190 -0.1542
21322SOL     OW65406   5.391   7.713  10.216 -0.2102  0.0196  0.2067
21322SOL    HW165407   5.485   7.703  10.231 -0.4169 -1.2257  0.8164
21322SOL    HW265408   5.379   7.694  10.123  0.2473  1.0835 -0.0786
21323SOL     OW65409   4.309   4.139   1.619 -0.6549  0.8471 -0.1036
21323SOL    HW165410   4.254   4.122   1.542  0.5951 -0.9642 -0.6703
21323SOL    HW265411   4.333   4.052   1.650  1.8768  1.5509  0.0954
21324SOL     OW65412   7.797   1.767   5.474  0.5657  0.7900  0.0232
21324SOL    HW165413   7.861   1.698   5.457 -1.0101 -0.1775 -2.5376
21324SOL    HW265414   7.841   1.848   5.445  1.0000  0.2759 -0.7942
21325SOL     OW65415   3.591   1.283   3.676  0.0415  0.1382 -0.2132
21325SOL    HW165416   3.533   1.299   3.751  0.3937 -0.1387  0.1204
21325SOL    HW265417   3.651   1.357   3.675 -0.8667  0.8961 -1.1001
21326SOL     OW65418   3.199   5.296  10.224  0.1031  0.3894  0.6233
21326SOL    HW165419   3.287   5.307  10.260  0.2939  1.2164 -0.0795
21326SOL    HW265420   3.146   5.266  10.298  1.3193 -1.8492  0.6721
21327SOL     OW65421   4.800   6.069   5.759  0.9412 -0.4678  0.1034
21327SOL    HW165422   4.874   6.010   5.754 -0.6376 -2.7752  1.8802
21327SOL    HW265423   4.797   6.096   5.851  0.0025  0.1583 -0.0959
21328SOL     OW65424   5.416   5.622   7.294  0.2214 -0.2262  0.6539
21328SOL    HW165425   5.470   5.669   7.230  0.6930  0.6717  1.6580
21328SOL    HW265426   5.326   5.639   7.267  0.4183 -0.4021 -0.1317
21329SOL     OW65427   4.809   6.201   9.612  0.8638  0.2219 -0.1951
21329SOL    HW165428   4.820   6.281   9.560 -0.6458  0.0614 -0.8250
21329SOL    HW265429   4.775   6.230   9.696  0.8192  0.2866 -0.2355
21330SOL     OW65430   2.162   3.296   6.402  0.3289  0.2298 -0.0910
21330SOL    HW165431   2.077   3.300   6.446 -0.0342  0.1946 -0.7782
21330SOL    HW265432   2.226   3.302   6.473 -0.2460  0.2630  0.4322
21331SOL     OW65433   3.356   2.627  11.357  0.1404 -0.2462 -0.5095
21331SOL    HW165434   3.319   2.625  11.269 -0.8488  0.8364 -0.1499
21331SOL    HW265435   3.362   2.720  11.378 -2.7967 -0.4450  1.8016
21332SOL     OW65436   7.431   0.104   5.231  0.4548  0.0089 -0.2481
21332SOL    HW165437   7.457   0.046   5.304 -1.5690 -2.2476 -1.1669
21332SOL    HW265438   7.433   0.047   5.154 -1.9327  1.0248 -1.1660
21333SOL     OW65439   4.000   2.299  10.788  0.3043  0.1144  0.1394
21333SOL    HW165440   3.976   2.223  10.841 -0.3984  0.5911  0.5208
21333SOL    HW265441   4.083   2.274  10.747  0.1961 -0.7684  0.4326
21334SOL     OW65442   7.784   3.027  10.256 -0.1264  0.3386  0.1904
21334SOL    HW165443   7.765   2.979  10.336  0.7600 -0.6364 -0.1637
21334SOL    HW265444   7.706   3.013  10.201 -0.1926 -0.0642  0.3825
21335SOL     OW65445   1.021   6.032  10.559  0.0854  0.0965  0.1300
21335SOL    HW165446   0.930   6.046  10.587 -1.1356 -0.9699 -2.9172
21335SOL    HW265447   1.066   6.112  10.585 -2.6108  2.3053 -1.4154
21336SOL     OW65448   0.338   4.907   5.524  0.1758 -0.1751 -0.0786
21336SOL    HW165449   0.300   4.995   5.526  1.7161  0.5156 -0.4782
21336SOL    HW265450   0.262   4.849   5.513 -0.9858  0.9946  1.3003
21337SOL     OW65451   3.451   0.375   1.313 -0.0244  0.1231 -0.5146
21337SOL    HW165452   3.536   0.367   1.356  0.2184  4.6731  0.4139
21337SOL    HW265453   3.471   0.374   1.220  2.0194  5.1050 -0.4615
21338SOL     OW65454   2.656   1.985   5.042 -0.4679 -0.2002  0.0842
21338SOL    HW165455   2.698   1.900   5.058 -0.1908 -0.3524 -1.2900
21338SOL    HW265456   2.729   2.046   5.031 -0.5479 -0.3948 -1.9566
21339SOL     OW65457   0.160   6.427  10.425 -0.2975 -0.5250 -0.0161
21339SOL    HW165458   0.096   6.497  10.440 -1.2970 -1.1970 -0.9839
21339SOL    HW265459   0.223   6.436  10.496 -1.6076  0.0010  1.1137
21340SOL     OW65460   6.701   2.701   5.697  0.0223 -0.0487  0.5643
21340SOL    HW165461   6.794   2.678   5.707 -0.2054 -1.0804  0.4647
21340SOL    HW265462   6.656   2.647   5.763 -0.6118 -0.3819 -0.1319
21341SOL     OW65463   4.538   6.641   3.297  0.7154 -0.3166 -0.1119
21341SOL    HW165464   4.543   6.721   3.245  0.9543  1.0716  1.9114
21341SOL    HW265465   4.620   6.639   3.347 -0.9122  0.4572  2.8764
21342SOL     OW65466   5.427   3.173   7.242 -0.6217 -0.0977  0.0771
21342SOL    HW165467   5.396   3.112   7.175  0.5144 -1.2885  0.5827
21342SOL    HW265468   5.516   3.194   7.216  0.3821 -1.7240  1.9005
21343SOL     OW65469   5.743   7.388   4.643 -0.1287 -0.3031 -0.0973
21343SOL    HW165470   5.702   7.322   4.699  0.4516 -0.8113 -0.2625
21343SOL    HW265471   5.782   7.338   4.572  1.1605  0.1271  0.2898
21344SOL     OW65472   3.718   1.420   7.339  0.5675 -0.2683  0.0559
21344SOL    HW165473   3.685   1.376   7.261  1.8920  0.2057 -0.8090
21344SOL    HW265474   3.805   1.382   7.353 -0.0732 -1.1911  2.0139
21345SOL     OW65475   0.855   5.065   4.400 -0.5393  0.1696 -0.3216
21345SOL    HW165476   0.761   5.069   4.382 -0.8709  0.1358  1.2490
21345SOL    HW265477   0.868   5.126   4.472  0.6473  0.1786 -0.5294
21346SOL     OW65478   3.050   0.600   7.806  0.0745 -0.0288 -0.2190
21346SOL    HW165479   3.118   0.565   7.863 -1.6119 -0.3635  1.7094
21346SOL    HW265480   3.006   0.522   7.770  0.2521  0.1719 -0.8785
21347SOL     OW65481   0.322   4.364   4.702  0.5750 -0.0326  0.0409
21347SOL    HW165482   0.288   4.311   4.774 -1.1529 -0.1442 -0.7923
21347SOL    HW265483   0.369   4.302   4.646 -0.0559 -0.3970 -0.0979
21348SOL     OW65484   4.338   0.167   3.306  0.5363  0.0606 -0.4539
21348SOL    HW165485   4.426   0.174   3.271  1.5191  1.9378  2.0755
21348SOL    HW265486   4.349   0.124   3.391 -1.0737 -0.2751 -0.3771
21349SOL     OW65487   0.132   3.159  10.494 -0.2389  0.1106 -0.2370
21349SOL    HW165488   0.107   3.218  10.422 -2.3306 -1.7341 -1.1442
21349SOL    HW265489   0.202   3.105  10.457 -1.5752 -1.1010 -1.1312
21350SOL     OW65490   3.385   2.000   6.828 -0.0521  0.0434  0.1318
21350SOL    HW165491   3.348   2.056   6.760 -3.9701 -1.3362  0.9200
21350SOL    HW265492   3.382   1.912   6.791 -0.2273 -0.4559  1.3163
21351SOL     OW65493   6.820   2.203   3.353  0.2569 -0.1355  0.3597
21351SOL    HW165494   6.858   2.165   3.273 -0.4675  1.4011 -0.7642
21351SOL    HW265495   6.735   2.161   3.361  1.1826 -1.9158  1.6182
21352SOL     OW65496   0.344   0.795   3.175 -0.4293 -0.0884 -0.2928
21352SOL    HW165497   0.277   0.733   3.146  0.6455 -0.7072 -1.5402
21352SOL    HW265498   0.296   0.877   3.188 -1.0861  0.2870 -3.9418
21353SOL     OW65499   3.002   0.558   0.097 -0.0253  0.5822 -0.6810
21353SOL    HW165500   2.925   0.505   0.115 -0.8920  1.8640 -0.4845
21353SOL    HW265501   3.005   0.565   0.002  0.0548  0.2567 -0.7046
21354SOL     OW65502   6.770   7.021   5.348  0.2482 -0.4308 -0.0554
21354SOL    HW165503   6.711   7.097   5.356  0.5540 -0.2974  1.1209
21354SOL    HW265504   6.788   7.015   5.254  0.8264  1.4239 -0.1024
21355SOL     OW65505   7.805   6.789   1.828 -0.0782  0.2005 -0.1762
21355SOL    HW165506   7.847   6.873   1.845  0.8272 -0.4227  0.8165
21355SOL    HW265507   7.846   6.757   1.748 -0.5942  0.7939 -0.6892
21356SOL     OW65508   7.981   3.075   7.739  0.1274 -0.1502 -0.3926
21356SOL    HW165509   7.978   3.134   7.664  0.6060 -0.2579 -0.5047
21356SOL    HW265510   7.947   2.992   7.705  1.3583 -0.5131 -0.8090
21357SOL     OW65511   5.800   1.943   3.692  0.1314  0.1500 -0.0179
21357SOL    HW165512   5.775   1.907   3.777  0.1171  0.2973  0.0406
21357SOL    HW265513   5.718   1.951   3.644  0.3888 -2.2569 -0.9670
21358SOL     OW65514   3.919   7.347  12.449  0.3289 -0.0491 -0.2499
21358SOL    HW165515   3.864   7.425  12.441 -0.5122 -0.7721 -2.0644
21358SOL    HW265516   3.901   7.314  12.538  0.6783  1.7618  0.5360
21359SOL     OW65517   0.850   7.522   7.013 -0.1696  0.1489  0.1436
21359SOL    HW165518   0.945   7.526   6.999 -0.0452  0.7321  1.0591
21359SOL    HW265519   0.840   7.465   7.089 -0.5148  0.4933  0.3583
21360SOL     OW65520   0.669   3.580   1.589  0.0945  0.2226  0.1652
21360SOL    HW165521   0.630   3.548   1.508  1.7357  0.2523 -0.6852
21360SOL    HW265522   0.666   3.505   1.648  1.0124 -0.5739 -0.7461
21361SOL     OW65523   3.353   5.664   7.684  0.3281 -0.7918  0.1935
21361SOL    HW165524   3.301   5.726   7.632 -0.6886 -1.0107  0.9263
21361SOL    HW265525   3.440   5.669   7.645 -0.2724 -0.5784 -1.2129
21362SOL     OW65526   5.349   0.958  11.833  0.1095  0.3082  0.4593
21362SOL    HW165527   5.427   0.947  11.889 -0.0250  1.1959  0.8265
21362SOL    HW265528   5.300   1.029  11.874 -1.7173 -1.2538  1.1427
21363SOL     OW65529   4.880   7.250   9.193  0.1197 -0.7271  0.5882
21363SOL    HW165530   4.937   7.321   9.220 -0.6620  0.3212 -0.4238
21363SOL    HW265531   4.831   7.227   9.272  1.3853 -1.1540  1.2830
21364SOL     OW65532   0.874   6.378  10.302 -0.0891  0.1254 -0.6052
21364SOL    HW165533   0.792   6.394  10.348  0.4366 -0.9819  0.7723
21364SOL    HW265534   0.942   6.408  10.363  0.5505  1.1689 -1.7798
21365SOL     OW65535   6.622   1.832  12.340  0.9001  0.4375 -0.6191
21365SOL    HW165536   6.554   1.879  12.292  1.1835  0.4354 -1.0217
21365SOL    HW265537   6.702   1.880  12.320  1.2168 -0.2993 -1.1455
21366SOL     OW65538   2.561   3.489   1.796 -0.3008  0.0552  0.0947
21366SOL    HW165539   2.639   3.499   1.741 -1.9039 -1.5517 -2.6552
21366SOL    HW265540   2.564   3.398   1.826 -1.8520 -0.5053 -1.3399
21367SOL     OW65541   1.287   4.747   0.795 -0.4346 -0.5888  0.2039
21367SOL    HW165542   1.353   4.685   0.763 -1.0539 -0.9434 -0.4016
21367SOL    HW265543   1.294   4.822   0.735 -0.2585 -0.4232  0.4298
21368SOL     OW65544   4.496   4.919  11.132  0.3783  0.2037 -0.1325
21368SOL    HW165545   4.424   4.861  11.157 -0.3930  1.0752 -0.2528
21368SOL    HW265546   4.574   4.878  11.170 -0.2064 -0.6436  0.1948
21369SOL     OW65547   5.121   2.968   5.700 -0.0027  0.4605 -0.9084
21369SOL    HW165548   5.027   2.959   5.715  0.0216 -2.9392 -1.9321
21369SOL    HW265549   5.161   2.949   5.785 -0.2196  0.8873 -0.7096
21370SOL     OW65550   3.450   0.535   4.515 -0.3876 -0.1104 -0.2245
21370SOL    HW165551   3.425   0.526   4.423 -0.0598  1.6139 -0.5109
21370SOL    HW265552   3.507   0.612   4.517  0.7207 -0.9154  1.2149
21371SOL     OW65553   1.199   3.737   2.366  0.1239  0.6755 -0.1111
21371SOL    HW165554   1.160   3.665   2.416  1.5537 -0.6985 -0.8568
21371SOL    HW265555   1.184   3.814   2.419 -0.9109 -0.2700  1.0415
21372SOL     OW65556   3.780   6.821   3.545  0.1425  0.3350  0.2565
21372SOL    HW165557   3.819   6.745   3.589 -0.4786 -0.0428  0.1602
21372SOL    HW265558   3.692   6.828   3.582 -0.7512 -0.5587 -1.5425
21373SOL     OW65559   7.710   5.296  11.408  0.0360 -0.3040  0.4936
21373SOL    HW165560   7.754   5.338  11.335 -0.1653 -2.2941 -0.8535
21373SOL    HW265561   7.646   5.360  11.438 -0.2391  0.3892 -1.4343
21374SOL     OW65562   2.299   7.645   0.012 -0.0082 -0.7203 -0.4350
21374SOL    HW165563   2.336   7.558   0.029  0.1064 -0.5984 -0.0543
21374SOL    HW265564   2.351   7.679  -0.062 -0.7669 -1.4098 -1.3014
21375SOL     OW65565   7.405   6.748   1.629 -0.0845  0.5036  0.1555
21375SOL    HW165566   7.419   6.666   1.582 -0.4687 -0.3574  1.4698
21375SOL    HW265567   7.476   6.751   1.693 -0.4425  0.8766  0.5416
21376SOL     OW65568   3.078   1.651   5.707  0.0818  0.0095  0.1045
21376SOL    HW165569   3.095   1.557   5.718  1.7819  0.2881  0.1777
21376SOL    HW265570   3.125   1.691   5.780  0.7258  1.0250 -0.8511
21377SOL     OW65571   1.647   1.756   7.552  0.4851  0.0259 -0.3127
21377SOL    HW165572   1.713   1.732   7.617 -0.1675 -1.5705 -0.2065
21377SOL    HW265573   1.676   1.841   7.519  0.5679  1.1702  2.4155
21378SOL     OW65574   5.750   3.327   7.583 -0.0982  0.0696  0.3024
21378SOL    HW165575   5.824   3.301   7.638  1.0135  0.1116 -1.0972
21378SOL    HW265576   5.732   3.251   7.528  0.6720  0.9016 -1.1777
21379SOL     OW65577   1.799   0.427   5.664  0.2382  0.1745  0.6922
21379SOL    HW165578   1.882   0.462   5.633 -1.6440  1.9699 -2.9831
21379SOL    HW265579   1.789   0.343   5.619 -1.6629  1.9307 -2.5313
21380SOL     OW65580   1.157   2.665  11.529 -0.4388 -0.1829  0.3130
21380SOL    HW165581   1.125   2.638  11.616 -1.2619 -0.7543 -0.1534
21380SOL    HW265582   1.100   2.737  11.504 -0.8447 -0.6612 -0.1676
21381SOL     OW65583   6.083   1.950   1.428  0.4619 -0.0907 -0.2266
21381SOL    HW165584   6.051   1.873   1.382  2.9852 -0.7752 -1.0021
21381SOL    HW265585   6.166   1.971   1.385  1.6366  0.8491  2.3067
21382SOL     OW65586   4.098   2.003   9.255 -0.2152 -0.2500 -0.6452
21382SOL    HW165587   4.071   1.998   9.347 -0.4364  1.9433 -0.5464
21382SOL    HW265588   4.016   2.013   9.207 -0.0269 -0.4332 -1.0024
21383SOL     OW65589   0.182   1.313   8.804 -0.7418  0.6127  0.3106
21383SOL    HW165590   0.192   1.218   8.796  0.9303  0.8024 -0.3699
21383SOL    HW265591   0.168   1.344   8.714 -2.0721  0.9490  0.6187
21384SOL     OW65592   2.978   4.543   0.852 -0.6826 -0.6378 -0.5030
21384SOL    HW165593   3.011   4.537   0.941 -2.5273  2.9714  0.6004
21384SOL    HW265594   2.940   4.456   0.835  0.7635 -1.7915  1.7133
21385SOL     OW65595   6.941   3.385   7.298 -0.4274 -0.5174  0.1878
21385SOL    HW165596   6.868   3.441   7.270 -0.2434 -0.7607 -0.8301
21385SOL    HW265597   7.019   3.437   7.276 -0.2666 -0.9761 -0.3469
21386SOL     OW65598   0.970   3.617   3.599 -0.0295 -0.5379  0.0348
21386SOL    HW165599   1.002   3.602   3.688 -0.0568  0.5132  0.2326
21386SOL    HW265600   0.895   3.558   3.591 -1.5611  1.0621  1.5989
21387SOL     OW65601   0.466   7.268   3.148  0.0371  0.3357 -0.4065
21387SOL    HW165602   0.532   7.269   3.078  0.9376  2.6306  0.3860
21387SOL    HW265603   0.388   7.304   3.108  0.2303  0.6350 -0.5172
21388SOL     OW65604   7.261   6.750   2.694  0.1551 -0.4918 -0.2270
21388SOL    HW165605   7.262   6.708   2.780 -1.0571  1.0976  0.6171
21388SOL    HW265606   7.226   6.838   2.711  2.3008  0.7897 -1.9315
21389SOL     OW65607   1.782   0.458   1.261  0.3731 -0.1595 -0.8329
21389SOL    HW165608   1.821   0.370   1.262  0.5363 -0.0865 -0.7567
21389SOL    HW265609   1.857   0.517   1.267  0.1996 -0.0225  0.1625
21390SOL     OW65610   2.049   4.242  12.101 -0.2969 -0.4575 -0.1111
21390SOL    HW165611   1.978   4.179  12.115  0.2281 -1.0188  0.0421
21390SOL    HW265612   2.108   4.199  12.040  1.6737 -1.4464  2.3095
21391SOL     OW65613   4.898   5.658   2.278  0.4523  0.0237  0.0411
21391SOL    HW165614   4.864   5.609   2.203  2.3866 -0.8171 -0.3585
21391SOL    HW265615   4.926   5.742   2.241  1.4436 -0.4065 -0.2204
21392SOL     OW65616   4.995   6.149   6.690 -0.4237 -0.0856  0.1120
21392SOL    HW165617   5.029   6.096   6.762  1.6658 -0.0525 -0.7642
21392SOL    HW265618   4.972   6.085   6.622 -1.0691 -0.0448  0.2920
21393SOL     OW65619   4.853   5.940   1.379 -0.0930 -0.2899 -0.2862
21393SOL    HW165620   4.820   5.984   1.458 -1.9779 -2.7413  0.4097
21393SOL    HW265621   4.838   6.004   1.309 -0.4876  1.0895  0.9926
21394SOL     OW65622   2.467   0.849   1.916 -0.0150  0.0112 -0.3912
21394SOL    HW165623   2.427   0.796   1.985  0.6336  0.3752  0.2858
21394SOL    HW265624   2.544   0.887   1.958  1.1219 -0.7847 -1.6964
21395SOL     OW65625   5.753   2.015   6.982  0.2653 -0.2602 -0.3453
21395SOL    HW165626   5.722   2.029   6.892 -2.4893 -1.0004  0.4130
21395SOL    HW265627   5.773   1.921   6.986  0.6618 -0.1752 -0.2213
21396SOL     OW65628   3.666   7.199   3.054 -0.4283 -0.1841  0.3512
21396SOL    HW165629   3.606   7.161   2.990 -0.6750  0.6002  0.1034
21396SOL    HW265630   3.688   7.285   3.018  0.1952 -0.1281  0.8476
21397SOL     OW65631   5.898   6.690   9.767  0.0122 -0.0316 -0.1723
21397SOL    HW165632   5.976   6.733   9.803  0.2335 -0.6363  0.0896
21397SOL    HW265633   5.933   6.631   9.699 -0.4236  1.3532 -1.6781
21398SOL     OW65634   1.488   0.817   7.344 -0.4846 -0.0111 -0.0565
21398SOL    HW165635   1.412   0.875   7.343 -0.1379  0.4314 -0.8648
21398SOL    HW265636   1.451   0.729   7.344 -1.0105  0.1970  1.0181
21399SOL     OW65637   0.043   3.611   8.788  0.1642  0.0275 -0.3710
21399SOL    HW165638   0.080   3.588   8.873 -2.2016  0.5736  0.8772
21399SOL    HW265639   0.022   3.527   8.748  1.2023 -0.2287 -0.4238
21400SOL     OW65640   6.985   3.579   9.924  0.3575  0.7086  0.2604
21400SOL    HW165641   6.979   3.508   9.987 -0.4883  0.5632  0.0346
21400SOL    HW265642   6.993   3.536   9.839 -2.0006  0.8041 -0.0745
21401SOL     OW65643   4.061   0.468   9.710 -0.3648  0.0679  0.3239
21401SOL    HW165644   4.032   0.387   9.668 -0.3964 -0.1438  0.7508
21401SOL    HW265645   3.985   0.498   9.760 -0.6060  0.7754 -0.4385
21402SOL     OW65646   4.029   0.319   1.387 -0.0318  0.2262  0.3774
21402SOL    HW165647   4.085   0.308   1.310  1.6487  0.5980  1.4775
21402SOL    HW265648   4.091   0.329   1.459 -1.5438  1.0520  1.6128
21403SOL     OW65649   4.365   2.850  11.151  0.5113 -0.4764 -0.0417
21403SOL    HW165650   4.277   2.856  11.186  0.2511 -3.1071 -0.0148
21403SOL    HW265651   4.359   2.888  11.063  0.2723  2.6303  1.2140
21404SOL     OW65652   6.218   2.722   8.181  0.2274 -0.4626 -0.0416
21404SOL    HW165653   6.201   2.816   8.187  1.0664 -0.3423  0.6571
21404SOL    HW265654   6.133   2.681   8.199 -0.6914  0.1521 -2.5376
21405SOL     OW65655   0.859   7.470  12.464 -0.1132  0.2699  0.0398
21405SOL    HW165656   0.942   7.512  12.488 -0.5391  0.4138  1.3436
21405SOL    HW265657   0.881   7.414  12.391  0.9999  0.8285 -0.0766
21406SOL     OW65658   3.616   0.282   5.585  0.5185  0.2346  0.2118
21406SOL    HW165659   3.541   0.224   5.599 -0.4636  1.0787 -1.2172
21406SOL    HW265660   3.638   0.271   5.492  0.8197  1.5465  0.1065
21407SOL     OW65661   2.543   2.636  11.960 -0.0605 -0.3357 -0.0107
21407SOL    HW165662   2.572   2.618  12.050 -0.7258 -0.2079  0.2385
21407SOL    HW265663   2.621   2.624  11.906  0.3961 -0.2136  0.6124
21408SOL     OW65664   0.814   1.402   4.111  1.0683  0.6988 -0.1182
21408SOL    HW165665   0.757   1.470   4.147  0.0439 -0.1976  0.0163
21408SOL    HW265666   0.872   1.378   4.184 -1.5659 -1.7210  1.3857
21409SOL     OW65667   3.122   0.659   0.814  0.3591  0.3482 -0.2797
21409SOL    HW165668   3.129   0.698   0.901  2.7212 -0.9443  0.2078
21409SOL    HW265669   3.179   0.582   0.818 -1.0152 -0.8660 -2.3950
21410SOL     OW65670   1.025   0.827   5.472 -0.2341  0.3467  0.1796
21410SOL    HW165671   1.065   0.902   5.516  1.1974 -0.5717  0.5208
21410SOL    HW265672   0.961   0.793   5.534 -0.5445  0.9994  0.2157
21411SOL     OW65673   4.257   1.320   9.345 -0.0446 -0.3372  0.2340
21411SOL    HW165674   4.170   1.310   9.304  0.4579 -3.2006 -0.3515
21411SOL    HW265675   4.289   1.404   9.312 -2.6180  0.9217  0.6247
21412SOL     OW65676   7.414   5.068   8.928 -0.0803 -0.3449 -0.3341
21412SOL    HW165677   7.447   5.054   9.017  0.3269 -0.5605 -0.5188
21412SOL    HW265678   7.357   5.145   8.935  1.1306  0.5618 -0.1861
21413SOL     OW65679   1.377   3.133   6.940 -0.5310 -0.1417 -0.8440
21413SOL    HW165680   1.470   3.137   6.961 -0.7807  0.2271  0.2352
21413SOL    HW265681   1.345   3.054   6.983 -0.2080 -1.8549 -3.4838
21414SOL     OW65682   6.400   6.802   9.742 -0.3401 -0.2222  0.4037
21414SOL    HW165683   6.366   6.869   9.800  1.3118 -0.9540  2.3622
21414SOL    HW265684   6.465   6.847   9.688  1.5819 -0.3326  2.4753
21415SOL     OW65685   1.045   6.669   4.060 -0.0403 -0.0345 -0.4133
21415SOL    HW165686   1.036   6.696   3.969  1.8702  0.8600 -0.3873
21415SOL    HW265687   0.992   6.590   4.067 -0.2954 -0.0686 -2.2659
21416SOL     OW65688   0.565   1.716  11.754  0.0352  0.5056 -0.0387
21416SOL    HW165689   0.657   1.718  11.727 -0.6370  1.0130 -2.5623
21416SOL    HW265690   0.535   1.628  11.732 -0.2208  0.4825  0.3741
21417SOL     OW65691   2.228   0.763   1.805  0.8172  0.1079  0.0261
21417SOL    HW165692   2.155   0.821   1.827  0.6762 -1.0901  3.1949
21417SOL    HW265693   2.306   0.810   1.835  1.2479  0.6160 -1.7497
21418SOL     OW65694   2.281   6.808   8.661 -0.2497 -0.3230 -0.2034
21418SOL    HW165695   2.211   6.750   8.691  0.1307  0.4256  2.4281
21418SOL    HW265696   2.236   6.882   8.622 -0.8813 -0.5533  0.0758
21419SOL     OW65697   4.361   7.576   0.432  0.0064  0.2326  0.0938
21419SOL    HW165698   4.297   7.555   0.365  1.6544 -2.3179 -0.8298
21419SOL    HW265699   4.314   7.567   0.515 -1.2186  0.0319 -0.6136
21420SOL     OW65700   0.667   3.260   1.442 -0.6569  0.8143 -0.0313
21420SOL    HW165701   0.754   3.296   1.426 -0.2277 -0.5995 -1.0650
21420SOL    HW265702   0.607   3.332   1.421  0.2281  1.4508 -0.4274
21421SOL     OW65703   1.989   7.667   4.266 -0.1116  0.0613  0.1554
21421SOL    HW165704   1.893   7.667   4.272 -0.0693  0.0140  0.9968
21421SOL    HW265705   2.009   7.736   4.203 -0.7609 -1.2135 -1.5128
21422SOL     OW65706   5.852   5.412   8.111 -0.0709  0.1404 -0.2640
21422SOL    HW165707   5.840   5.409   8.206  0.5457  2.7873 -0.0349
21422SOL    HW265708   5.765   5.433   8.077 -0.2741 -0.7278 -0.3091
21423SOL     OW65709   3.811   5.957   8.786 -0.0604 -0.2568  0.6804
21423SOL    HW165710   3.721   5.969   8.817 -0.2757  3.0237 -0.7143
21423SOL    HW265711   3.802   5.901   8.709 -0.7293 -0.9572  1.2539
21424SOL     OW65712   0.665   6.452   3.336 -0.1693  0.1111  0.5281
21424SOL    HW165713   0.576   6.482   3.317 -0.4828  0.0523  1.8070
21424SOL    HW265714   0.718   6.531   3.334 -0.1214  0.0753 -0.8009
21425SOL     OW65715   2.116   3.195   5.584  0.0688 -0.4542  0.0501
21425SOL    HW165716   2.021   3.193   5.596 -0.0884  0.2807 -0.9549
21425SOL    HW265717   2.140   3.286   5.603  0.6385 -0.7413  0.7358
21426SOL     OW65718   3.699   1.224   0.610 -0.2714  0.2077  0.3305
21426SOL    HW165719   3.671   1.284   0.541  0.5940  0.4281  0.1523
21426SOL    HW265720   3.674   1.138   0.579  0.2632  0.2897 -0.3533
21427SOL     OW65721   2.151   6.235   9.728  0.5959 -0.9371  0.0657
21427SOL    HW165722   2.097   6.156   9.725 -2.0933  0.7849 -0.0410
21427SOL    HW265723   2.177   6.242   9.820  0.1348 -1.4919  0.2493
21428SOL     OW65724   3.858   5.887   5.950  0.4836  0.1080 -0.6255
21428SOL    HW165725   3.798   5.959   5.969  0.1581 -0.0490 -1.0425
21428SOL    HW265726   3.886   5.902   5.860 -1.5741 -1.6704 -1.6440
21429SOL     OW65727   3.070   6.461   1.018  0.3722  0.4896  0.3510
21429SOL    HW165728   3.042   6.374   0.988 -0.4797  0.3911  1.3800
21429SOL    HW265729   3.026   6.522   0.958  1.7165  0.2274 -0.9774
21430SOL     OW65730   5.697   4.359   7.564  0.7598 -0.3022  0.4601
21430SOL    HW165731   5.698   4.368   7.468  2.2050  0.5065  0.5122
21430SOL    HW265732   5.754   4.284   7.581  0.1115 -0.7528  0.6837
21431SOL     OW65733   0.298   5.873   7.734 -0.1068  0.2903  0.2206
21431SOL    HW165734   0.374   5.931   7.740 -0.7932  1.1497  0.7354
21431SOL    HW265735   0.247   5.908   7.661  0.7623 -1.2429 -1.1887
21432SOL     OW65736   4.024   7.710   0.467 -0.3525  0.3346  0.1829
21432SOL    HW165737   4.065   7.713   0.381 -2.9108  1.7322 -1.1213
21432SOL    HW265738   3.974   7.628   0.466  0.8955 -0.4811  1.0680
21433SOL     OW65739   0.955   1.826   5.691  0.6077  0.0012  0.2950
21433SOL    HW165740   0.903   1.869   5.759 -2.5697  0.3789 -2.1180
21433SOL    HW265741   0.945   1.733   5.709 -1.1334  0.0580 -0.1393
21434SOL     OW65742   6.386   3.630   9.750 -0.3191  0.9834  0.4240
21434SOL    HW165743   6.394   3.721   9.721 -0.8660  1.2317  1.0375
21434SOL    HW265744   6.384   3.636   9.846 -0.3275  0.3204  0.4659
21435SOL     OW65745   3.493   0.510   9.445 -0.2558  0.0942 -0.2409
21435SOL    HW165746   3.447   0.593   9.449 -0.5819  0.0419 -2.1302
21435SOL    HW265747   3.502   0.483   9.537 -1.3627  1.5216  0.3207
21436SOL     OW65748   1.428   7.634   4.238  0.4901  0.0191 -0.0259
21436SOL    HW165749   1.434   7.655   4.331  1.4479 -0.1189 -0.0464
21436SOL    HW265750   1.490   7.693   4.196 -0.5624  0.6854 -0.6950
21437SOL     OW65751   7.175   6.243   3.883  0.0525 -0.4736 -0.3627
21437SOL    HW165752   7.245   6.192   3.925 -0.0380 -1.2478 -1.1089
21437SOL    HW265753   7.094   6.205   3.917 -0.0127 -0.2000 -0.2108
21438SOL     OW65754   0.373   1.533   3.737  0.1252 -0.3111 -0.0345
21438SOL    HW165755   0.326   1.490   3.665 -0.2765 -0.1887  0.1522
21438SOL    HW265756   0.442   1.582   3.694  1.0696 -1.7258 -0.2126
21439SOL     OW65757   2.446   0.812   8.966 -0.0109  0.2386  0.2484
21439SOL    HW165758   2.414   0.775   8.883 -0.8763  0.9023  0.2742
21439SOL    HW265759   2.540   0.826   8.951  0.2405 -1.4414  0.0585
21440SOL     OW65760   1.317   7.951   9.542  0.5257 -0.5327 -0.4295
21440SOL    HW165761   1.401   7.917   9.572  1.6601  1.2675 -1.3510
21440SOL    HW265762   1.310   8.037   9.585 -0.5044 -0.3635 -0.9085
21441SOL     OW65763   4.927   1.983   6.253  0.1162 -0.0310 -0.1479
21441SOL    HW165764   4.943   1.893   6.282  0.0718  0.0070 -0.0014
21441SOL    HW265765   4.878   2.022   6.325 -0.3485 -0.0486 -0.4517
21442SOL     OW65766   7.554   4.186  11.227 -0.1713  0.3214 -0.2694
21442SOL    HW165767   7.475   4.194  11.279  0.7608  0.4121  1.1729
21442SOL    HW265768   7.625   4.176  11.290  1.0044  0.4042 -1.5070
21443SOL     OW65769   5.020   5.149   4.455  0.2039 -0.3309 -0.3739
21443SOL    HW165770   4.965   5.078   4.420  0.7474 -0.9205 -0.0501
21443SOL    HW265771   5.021   5.215   4.386  0.5390 -1.0905 -1.1034
21444SOL     OW65772   4.690   7.519   2.816 -0.2632  0.3855 -0.0910
21444SOL    HW165773   4.621   7.509   2.881  0.0385 -0.3325  0.1288
21444SOL    HW265774   4.724   7.607   2.831 -0.1144  0.1845  0.8211
21445SOL     OW65775   0.219   6.108   3.195  0.3194 -0.2105 -0.4472
21445SOL    HW165776   0.276   6.172   3.154  0.4114  0.6448  0.9522
21445SOL    HW265777   0.191   6.051   3.124  0.6700  1.0552 -1.6301
21446SOL     OW65778   2.355   5.814   8.328 -0.0227 -0.4385 -0.8030
21446SOL    HW165779   2.369   5.898   8.370 -1.1654  0.0760 -1.3888
21446SOL    HW265780   2.352   5.750   8.399  2.2352 -0.2286 -0.4426
21447SOL     OW65781   1.544   5.752   2.960  0.4780 -0.3358  0.1908
21447SOL    HW165782   1.635   5.730   2.941  0.0261 -1.4491 -0.8446
21447SOL    HW265783   1.545   5.781   3.051  1.8354 -0.5141  0.2594
21448SOL     OW65784   0.862   2.173   9.018 -0.0874 -0.1741 -0.5857
21448SOL    HW165785   0.897   2.085   9.030  0.5243  0.1820  0.3715
21448SOL    HW265786   0.788   2.162   8.958  0.3030 -1.2561 -0.8868
21449SOL     OW65787   3.958   7.089   8.393 -0.1865  0.6190  0.6338
21449SOL    HW165788   3.958   7.180   8.362  0.4486  0.5280  0.3357
21449SOL    HW265789   3.956   7.096   8.488 -1.1771  0.9256  0.5956
21450SOL     OW65790   1.503   4.018   8.468  0.1826 -0.8271 -0.0925
21450SOL    HW165791   1.438   3.957   8.506 -0.7160  0.2284  0.1375
21450SOL    HW265792   1.565   3.962   8.423 -0.1742 -1.9721  0.7851
21451SOL     OW65793   5.941   1.515   1.881  0.6008 -0.8560  0.0551
21451SOL    HW165794   5.869   1.490   1.939  0.3150 -0.2960 -0.0420
21451SOL    HW265795   5.976   1.433   1.848  0.5345 -1.1656  0.7419
21452SOL     OW65796   2.033   2.341   8.245 -0.0110 -0.1171  0.4610
21452SOL    HW165797   2.058   2.319   8.335  2.6185 -2.1516 -0.6106
21452SOL    HW265798   2.093   2.411   8.220  1.5973 -1.7754 -0.6309
21453SOL     OW65799   7.510   0.663   3.411  0.0384  0.0323 -0.5336
21453SOL    HW165800   7.452   0.600   3.370 -0.4407 -0.9831  1.5811
21453SOL    HW265801   7.595   0.650   3.368 -0.6830 -0.2193 -1.9114
21454SOL     OW65802   7.698   2.043  10.440 -0.1023 -0.0141  0.0278
21454SOL    HW165803   7.607   2.047  10.470 -0.3743 -0.0077 -0.7821
21454SOL    HW265804   7.697   2.083  10.353 -0.1908 -3.9645 -1.9812
21455SOL     OW65805   1.332   1.566   2.882  0.0159  0.2038 -0.4408
21455SOL    HW165806   1.393   1.511   2.932  0.3439 -1.0151 -2.0861
21455SOL    HW265807   1.373   1.574   2.796 -0.4047  2.4496 -0.4758
21456SOL     OW65808   2.428   2.328   5.385  0.2480  0.1258 -0.6658
21456SOL    HW165809   2.491   2.356   5.451 -0.9586  0.6936  0.2868
21456SOL    HW265810   2.438   2.391   5.314  0.8451  0.1356 -0.5743
21457SOL     OW65811   0.678   2.410   8.625  0.3445  0.0918  0.2198
21457SOL    HW165812   0.653   2.403   8.717 -0.4438 -0.7910 -0.0451
21457SOL    HW265813   0.771   2.387   8.624  0.4154  0.3320  0.8254
21458SOL     OW65814   0.195   5.960   5.089  0.0203  0.0757 -0.0571
21458SOL    HW165815   0.239   5.876   5.091  1.7273  0.9025 -0.9214
21458SOL    HW265816   0.116   5.947   5.141  0.9832 -1.6234  1.0642
21459SOL     OW65817   3.335   1.331   0.001 -0.1026 -0.5249  0.0662
21459SOL    HW165818   3.382   1.367   0.076 -0.3578 -0.1255  0.0396
21459SOL    HW265819   3.331   1.237   0.018 -2.3444 -0.2038  1.8355
21460SOL     OW65820   4.403   5.703   1.605  0.5221  0.3842  0.2651
21460SOL    HW165821   4.359   5.786   1.584 -0.2641 -0.2089 -0.5088
21460SOL    HW265822   4.486   5.707   1.559  0.3968  0.6561  0.0608
21461SOL     OW65823   0.677   1.295   1.861 -0.3859 -0.2095  0.8552
21461SOL    HW165824   0.590   1.329   1.843  0.1767  0.8757  0.0508
21461SOL    HW265825   0.674   1.204   1.832 -1.3697 -0.3021  1.2427
21462SOL     OW65826   1.228   0.810   8.257 -0.6573 -0.2943  0.3145
21462SOL    HW165827   1.279   0.738   8.293 -1.8058 -1.0329  0.5177
21462SOL    HW265828   1.264   0.823   8.169  1.3395  0.7010  1.2128
21463SOL     OW65829   1.669   6.665  10.586 -0.4387  0.5945  0.0834
21463SOL    HW165830   1.727   6.708  10.522  1.0693  0.5473  1.3697
21463SOL    HW265831   1.648   6.733  10.649 -1.8342  0.6110 -0.3741
21464SOL     OW65832   2.164   6.393   0.813 -0.0080  0.3744  0.1415
21464SOL    HW165833   2.160   6.447   0.893  0.7646  0.5766  0.0536
21464SOL    HW265834   2.235   6.432   0.762  1.7599 -1.7228  0.8221
21465SOL     OW65835   0.869   6.331   9.935  0.7517 -0.1861  0.0040
21465SOL    HW165836   0.904   6.247   9.905  0.2240 -1.3265  2.3366
21465SOL    HW265837   0.774   6.321   9.930  0.6675 -0.1122  1.2166
21466SOL     OW65838   1.014   2.266   1.629  0.1491 -0.0075  0.1390
21466SOL    HW165839   0.942   2.327   1.614 -0.4317 -1.1038 -1.9883
21466SOL    HW265840   0.972   2.190   1.670  0.4994  0.2161  0.9174
21467SOL     OW65841   5.204   2.754   1.615 -0.3358 -0.0294 -0.4586
21467SOL    HW165842   5.206   2.659   1.603  1.1380 -0.0998  0.0551
21467SOL    HW265843   5.245   2.789   1.535 -1.3048  0.2141 -0.8595
21468SOL     OW65844   0.345   0.605  12.466  0.0332  0.0340 -0.3980
21468SOL    HW165845   0.307   0.624  12.551  1.0663  0.8554 -0.1061
21468SOL    HW265846   0.438   0.594  12.483  0.1067 -0.8340 -1.2681
21469SOL     OW65847   3.751   7.707  11.196 -0.0830  0.1230  0.2830
21469SOL    HW165848   3.797   7.627  11.224 -1.5849 -0.9155 -0.1032
21469SOL    HW265849   3.820   7.774  11.192  1.6662 -1.6506 -1.5329
21470SOL     OW65850   0.360   6.493   6.193  0.7967  0.2533 -0.3514
21470SOL    HW165851   0.357   6.588   6.185 -2.0886  0.2089 -1.0359
21470SOL    HW265852   0.328   6.461   6.108  3.1326 -1.4343 -0.7068
21471SOL     OW65853   7.937   7.784   0.803 -0.4754  0.4199 -0.1021
21471SOL    HW165854   7.969   7.773   0.893  0.6501 -1.2829 -0.6552
21471SOL    HW265855   7.861   7.841   0.812 -2.0178 -1.7726  2.2920
21472SOL     OW65856   0.287   4.992   7.138 -0.3112  0.7956 -0.0117
21472SOL    HW165857   0.380   4.972   7.123 -0.6035 -0.0041 -0.8888
21472SOL    HW265858   0.247   4.982   7.051 -1.1957  1.2428  0.3390
21473SOL     OW65859   7.084   5.990   3.323 -0.3896 -0.6164  0.3116
21473SOL    HW165860   7.043   6.073   3.297  0.2435  0.3108  2.1241
21473SOL    HW265861   7.022   5.949   3.383  0.2943 -0.2936  1.2715
21474SOL     OW65862   4.755   2.421   2.459  0.3529  0.1640  0.1992
21474SOL    HW165863   4.731   2.414   2.367  1.9678  3.5140 -0.6339
21474SOL    HW265864   4.848   2.400   2.462  0.7857  1.9201  0.6246
21475SOL     OW65865   5.924   4.661   1.068 -0.1858 -0.0115  0.5028
21475SOL    HW165866   5.925   4.755   1.086 -0.5110 -0.2110  1.5996
21475SOL    HW265867   5.902   4.655   0.975 -1.2470  0.9737  0.6719
21476SOL     OW65868   6.830   7.611   9.561  0.0846 -0.0317 -0.4040
21476SOL    HW165869   6.843   7.652   9.646 -0.0396  0.2274 -0.5073
21476SOL    HW265870   6.802   7.521   9.581 -1.0628  0.3660 -0.1501
21477SOL     OW65871   2.533   2.212   8.755 -0.1317  0.4726  0.1208
21477SOL    HW165872   2.587   2.135   8.774  1.0316  1.2866  0.2373
21477SOL    HW265873   2.563   2.241   8.669 -1.5899 -0.0345 -0.5881
21478SOL     OW65874   3.889   2.475   2.579  0.0820 -0.1381  0.2663
21478SOL    HW165875   3.804   2.470   2.536  0.4042  0.2205 -0.4287
21478SOL    HW265876   3.930   2.553   2.542  1.0489 -0.7713 -0.0385
21479SOL     OW65877   6.719   4.898  12.015  0.6270  0.5100  0.9582
21479SOL    HW165878   6.663   4.833  12.057 -1.1823  0.5219 -1.2613
21479SOL    HW265879   6.780   4.847  11.962 -0.6727  0.5362 -0.6368
21480SOL     OW65880   5.609   2.539   4.349 -0.3390  0.6005 -0.0537
21480SOL    HW165881   5.557   2.619   4.351  1.8776  2.1116  1.7118
21480SOL    HW265882   5.594   2.498   4.434  0.2017  0.3094 -0.0914
21481SOL     OW65883   7.580   6.632   6.705 -0.3360  0.5468  0.7282
21481SOL    HW165884   7.557   6.633   6.798 -1.3560  1.2800  0.4861
21481SOL    HW265885   7.496   6.639   6.659 -0.1591 -2.7126 -0.3441
21482SOL     OW65886   2.708   0.491   8.937 -0.6682  0.0996  0.0251
21482SOL    HW165887   2.790   0.520   8.896 -0.6416 -0.3721 -0.2569
21482SOL    HW265888   2.675   0.569   8.982 -0.0899  0.3056  0.0998
21483SOL     OW65889   2.091   4.092   3.162 -0.2412  0.4527  0.1802
21483SOL    HW165890   2.024   4.033   3.197  1.6236 -0.3136  2.8700
21483SOL    HW265891   2.096   4.070   3.069 -1.1363 -2.1629  0.6521
21484SOL     OW65892   1.101   6.596  11.893  0.1954 -0.1666 -0.0021
21484SOL    HW165893   1.019   6.561  11.860  0.1045 -0.2041  0.2589
21484SOL    HW265894   1.112   6.679  11.848 -0.1328 -0.0251  0.1795
21485SOL     OW65895   1.046   2.845  11.323 -0.2491 -0.2328  0.4733
21485SOL    HW165896   1.138   2.865  11.343  0.2401 -0.7048 -1.1278
21485SOL    HW265897   1.010   2.927  11.289 -0.3715 -0.0922  0.9426
21486SOL     OW65898   4.091   6.806   4.115  0.1491  0.1394 -0.0275
21486SOL    HW165899   4.048   6.881   4.157 -0.1955  0.4650 -0.9387
21486SOL    HW265900   4.083   6.823   4.021 -1.2215 -1.7604 -0.3067
21487SOL     OW65901   2.387   0.518   7.724 -0.1407  0.4238 -0.0155
21487SOL    HW165902   2.423   0.463   7.654  0.5052  1.4066 -0.4802
21487SOL    HW265903   2.334   0.458   7.777  1.1072 -0.7881 -0.0830
21488SOL     OW65904   7.418   6.618   5.197 -0.3954  0.5454  0.3255
21488SOL    HW165905   7.414   6.686   5.264 -1.6169 -0.3535  1.2060
21488SOL    HW265906   7.451   6.540   5.243  1.2949  0.5738 -0.7346
21489SOL     OW65907   5.363   5.091  11.289  0.0895 -0.1174  0.1599
21489SOL    HW165908   5.356   5.171  11.238  0.2662  0.3581  0.8644
21489SOL    HW265909   5.398   5.026  11.227 -1.3754 -0.0448 -0.7916
21490SOL     OW65910   0.783   5.925   4.549 -0.4704 -0.3206 -0.2901
21490SOL    HW165911   0.707   5.913   4.493  1.7236 -0.3737 -3.5074
21490SOL    HW265912   0.829   5.841   4.547  0.1926 -0.0160  0.8161
21491SOL     OW65913   5.070   2.231   9.001 -0.0761 -0.3115 -0.0109
21491SOL    HW165914   5.082   2.175   9.077 -1.6458 -1.4332 -0.5410
21491SOL    HW265915   5.000   2.291   9.026 -0.8658 -0.9355 -0.6813
21492SOL     OW65916   6.503   7.368   9.527 -0.3822 -0.2532  0.1946
21492SOL    HW165917   6.487   7.454   9.489 -0.9016 -0.4503 -0.0386
21492SOL    HW265918   6.425   7.317   9.506  0.7656 -1.4212 -1.4958
21493SOL     OW65919   3.398   3.313  10.355  0.2980  0.2081 -0.3724
21493SOL    HW165920   3.437   3.286  10.272 -1.0167 -1.1759 -0.5852
21493SOL    HW265921   3.304   3.300  10.343  0.0780 -0.0908  1.3580
21494SOL     OW65922   7.003   4.883   5.856  0.4361  0.0930  0.6005
21494SOL    HW165923   6.952   4.895   5.776  1.8830 -1.1022 -0.5602
21494SOL    HW265924   6.989   4.963   5.906 -1.0908  0.5578 -0.5000
21495SOL     OW65925   0.325   4.412   0.579 -0.2479 -0.7212 -0.1600
21495SOL    HW165926   0.416   4.385   0.595 -0.6636 -1.2734  1.4086
21495SOL    HW265927   0.327   4.448   0.489  1.3844 -1.2377 -0.3760
21496SOL     OW65928   2.013   4.248  10.847  0.0620  0.8983 -0.6314
21496SOL    HW165929   2.001   4.154  10.834  0.9728  1.0393 -2.8416
21496SOL    HW265930   2.092   4.269  10.798  0.2471  2.7278  0.3706
21497SOL     OW65931   6.331   2.932   9.682  0.0605  0.5065  0.1617
21497SOL    HW165932   6.281   2.869   9.631 -0.9746  1.1118  0.3946
21497SOL    HW265933   6.272   2.957   9.754  0.7504  1.1221  0.5260
21498SOL     OW65934   3.849   4.801   2.017  0.3254  0.6341  0.4122
21498SOL    HW165935   3.851   4.706   2.014  1.1472  0.6192  1.2005
21498SOL    HW265936   3.919   4.828   1.957 -1.5122  0.8210 -1.8033
21499SOL     OW65937   2.241   7.810   2.774 -0.0289  0.3406 -0.3600
21499SOL    HW165938   2.271   7.897   2.798  1.0493  0.3102 -1.4820
21499SOL    HW265939   2.182   7.823   2.701  1.3885  0.0636 -1.6061
21500SOL     OW65940   5.110   4.375   3.828 -0.5978  0.2954  0.3753
21500SOL    HW165941   5.119   4.399   3.920  2.6394  1.2994 -0.0763
21500SOL    HW265942   5.067   4.451   3.788 -1.1191  0.2684  0.8689
21501SOL     OW65943   4.478   2.525   1.597 -0.2678 -0.7460  0.1471
21501SOL    HW165944   4.484   2.588   1.525 -1.7072 -0.9449 -0.1769
21501SOL    HW265945   4.441   2.446   1.557  2.0423 -2.0664  0.4123
21502SOL     OW65946   2.471   2.495   8.308  0.1360 -0.1046 -0.4002
21502SOL    HW165947   2.527   2.488   8.231  1.0566  0.6313  0.1809
21502SOL    HW265948   2.449   2.588   8.313  1.4752  0.1831  1.1385
21503SOL     OW65949   5.658   7.025   7.441 -0.0947  0.3453  0.4308
21503SOL    HW165950   5.689   7.058   7.525  0.2730  0.6673  0.1738
21503SOL    HW265951   5.729   6.969   7.409  0.1544  0.9254 -0.0669
21504SOL     OW65952   0.853   2.046  12.119 -0.5941 -0.3052  0.4371
21504SOL    HW165953   0.781   2.107  12.104  0.9396  1.5536  0.2749
21504SOL    HW265954   0.925   2.081  12.067  0.3161 -2.3880  0.2026
21505SOL     OW65955   2.361   4.222  12.258  0.1962  0.0535  0.1630
21505SOL    HW165956   2.388   4.265  12.339  2.0729  0.4131 -0.5960
21505SOL    HW265957   2.296   4.280  12.220 -0.2465  0.1856  1.1061
21506SOL     OW65958   0.572   4.118   4.733  0.5434 -0.1873 -0.4991
21506SOL    HW165959   0.537   4.083   4.816 -0.8181  1.1783 -0.4490
21506SOL    HW265960   0.653   4.069   4.719  0.7202 -0.5761  1.5470
21507SOL     OW65961   6.955   0.501   4.130 -0.0557  0.1141 -0.0669
21507SOL    HW165962   6.959   0.510   4.226  0.2376  0.2549 -0.0921
21507SOL    HW265963   6.887   0.562   4.103 -2.2191 -1.9811  0.3218
21508SOL     OW65964   5.908   7.365   2.615 -0.3459 -0.4088 -0.0695
21508SOL    HW165965   5.965   7.360   2.692  0.6925  1.1242 -0.6991
21508SOL    HW265966   5.822   7.386   2.651  0.3098  1.2295  0.6567
21509SOL     OW65967   1.619   5.157  10.073 -0.3005  0.0142 -0.1867
21509SOL    HW165968   1.634   5.093  10.003  1.2027 -1.3178  1.2563
21509SOL    HW265969   1.598   5.104  10.150 -0.1122  1.3340  0.8119
21510SOL     OW65970   2.710   6.164   5.267 -0.3407 -0.0902  0.4532
21510SOL    HW165971   2.761   6.229   5.219  0.3618  0.3006  1.6694
21510SOL    HW265972   2.648   6.130   5.203  1.0232 -0.1303 -0.9277
21511SOL     OW65973   6.564   6.771   2.841 -0.4642 -0.1307  0.1203
21511SOL    HW165974   6.543   6.737   2.754  1.0034  0.8668 -0.6603
21511SOL    HW265975   6.658   6.758   2.850 -0.1986  1.8731  0.5921
21512SOL     OW65976   1.110   5.371   4.151  0.0220 -0.3374  0.4986
21512SOL    HW165977   1.121   5.410   4.064  1.4459 -0.4070  0.6191
21512SOL    HW265978   1.024   5.329   4.148 -0.2928  0.3512 -0.5995
21513SOL     OW65979   5.613   3.573   6.951  0.7636 -0.4343 -0.7739
21513SOL    HW165980   5.644   3.535   6.869  0.5691 -0.3425 -0.8900
21513SOL    HW265981   5.533   3.620   6.927 -0.4386 -2.0663 -0.2024
21514SOL     OW65982   1.285   5.466  10.143  0.7507  0.3472  0.0442
21514SOL    HW165983   1.306   5.374  10.159 -0.9515 -0.3035 -1.1205
21514SOL    HW265984   1.217   5.486  10.207 -0.4728  0.0942 -1.1442
21515SOL     OW65985   4.052   1.981   3.256 -0.0981  0.1675 -0.3598
21515SOL    HW165986   4.144   1.977   3.283 -0.3580 -1.1384  0.4317
21515SOL    HW265987   4.041   1.904   3.200 -1.0677 -0.5222  0.7607
21516SOL     OW65988   7.421   2.694   7.332 -0.3800 -0.5256  0.4243
21516SOL    HW165989   7.409   2.787   7.311  0.4841 -0.7909 -1.4804
21516SOL    HW265990   7.336   2.654   7.312 -1.2426  0.0267  2.6955
21517SOL     OW65991   1.910   3.639   1.893 -0.2365 -0.2070 -0.1836
21517SOL    HW165992   1.825   3.646   1.937  0.7770 -0.2953  1.9374
21517SOL    HW265993   1.953   3.565   1.936  0.4714 -0.9505 -2.0683
21518SOL     OW65994   6.185   1.127   0.218  0.4860  0.2048 -0.1323
21518SOL    HW165995   6.227   1.114   0.303  0.4566  0.0785 -0.1371
21518SOL    HW265996   6.190   1.221   0.203 -0.2283  0.3328  0.3786
21519SOL     OW65997   7.213   0.962   8.721 -0.0194  0.5393  0.3277
21519SOL    HW165998   7.276   0.890   8.712 -0.7823 -0.3001  1.4647
21519SOL    HW265999   7.204   0.974   8.815 -1.5625  0.6385  0.1905
21520SOL     OW66000   5.330   3.035   1.718 -0.1245  0.0084 -0.2113
21520SOL    HW166001   5.358   3.084   1.641  0.4547  0.2380  0.1385
21520SOL    HW266002   5.331   3.099   1.789 -0.3052 -0.2827  0.0550
21521SOL     OW66003   0.914   7.023   6.873 -0.6526 -0.6076 -0.0276
21521SOL    HW166004   0.970   6.957   6.914 -0.6611 -0.5985 -0.0010
21521SOL    HW266005   0.860   6.974   6.812 -0.4055 -0.5760 -0.2753
21522SOL     OW66006   6.583   6.820   8.909 -0.5932 -0.0198  0.2917
21522SOL    HW166007   6.602   6.849   8.998 -0.2008  0.3544  0.0937
21522SOL    HW266008   6.639   6.876   8.854 -2.4840  1.3364 -0.3516
21523SOL     OW66009   7.966   6.269   5.417 -0.1964 -0.0971  0.0628
21523SOL    HW166010   7.950   6.175   5.431  1.1574 -0.0674  2.2554
21523SOL    HW266011   8.040   6.271   5.356 -1.1918 -0.3679 -1.2207
21524SOL     OW66012   0.025   3.592   7.112  0.4095 -0.3495 -0.0831
21524SOL    HW166013  -0.066   3.622   7.117 -0.1959 -2.1651  0.5989
21524SOL    HW266014   0.039   3.545   7.195  1.8722 -0.3680 -0.3171
21525SOL     OW66015   4.724   7.351   8.262  0.1378  0.4013 -0.4488
21525SOL    HW166016   4.641   7.355   8.214 -1.7815 -0.7434  2.5210
21525SOL    HW266017   4.724   7.431   8.316  0.3981 -0.1573  0.3947
21526SOL     OW66018   2.605   7.592   7.434  0.0920  0.3666  0.2177
21526SOL    HW166019   2.511   7.607   7.428  0.2154  1.2108  0.1905
21526SOL    HW266020   2.626   7.534   7.361 -0.4669 -0.1311  0.4531
21527SOL     OW66021   4.601   0.724   4.346 -0.0434 -0.0694 -0.0267
21527SOL    HW166022   4.632   0.686   4.428 -0.3045  0.5374  0.3593
21527SOL    HW266023   4.564   0.650   4.298 -0.5072 -0.3177  0.6958
21528SOL     OW66024   7.504   6.485   9.802 -0.5687  0.2401 -0.9265
21528SOL    HW166025   7.590   6.447   9.821 -0.6985 -0.8675 -2.3643
21528SOL    HW266026   7.451   6.464   9.879  0.3189  0.5289 -0.2281
21529SOL     OW66027   2.984   3.978   7.550 -0.2682  0.1880 -0.1931
21529SOL    HW166028   2.973   4.019   7.464 -1.7112  0.9464  0.3290
21529SOL    HW266029   3.046   4.035   7.596 -0.9077  0.8204 -0.0976
21530SOL     OW66030   2.807   7.424   1.345 -0.3961 -0.1025  0.3521
21530SOL    HW166031   2.901   7.437   1.332 -0.5446  1.0657  0.3370
21530SOL    HW266032   2.766   7.483   1.282 -1.1411 -0.3910  0.5553
21531SOL     OW66033   7.915   6.449   9.365  0.6818  0.0175 -0.3425
21531SOL    HW166034   7.855   6.523   9.356  1.5685  0.9294  0.8624
21531SOL    HW266035   7.991   6.473   9.313  1.5303  0.6012  1.1162
21532SOL     OW66036   5.892   0.750   6.142 -0.0845  0.6172  0.5171
21532SOL    HW166037   5.891   0.737   6.237  0.1152 -0.3309  0.3979
21532SOL    HW266038   5.828   0.688   6.109  0.6706  0.1295 -0.0587
21533SOL     OW66039   7.775   4.076   6.153  0.2238  0.6725 -0.5231
21533SOL    HW166040   7.787   3.990   6.113  1.2828 -0.2148  1.5593
21533SOL    HW266041   7.759   4.058   6.246 -1.4096  2.6578 -0.3173
21534SOL     OW66042   6.347   1.806   9.189 -0.1263 -0.2444  0.0106
21534SOL    HW166043   6.357   1.879   9.128  0.2544 -0.5212 -0.2642
21534SOL    HW266044   6.405   1.829   9.262 -0.6037  0.1001  0.2880
21535SOL     OW66045   2.365   0.555  10.390  0.1778  0.1524 -0.5942
21535SOL    HW166046   2.454   0.526  10.411 -0.0354 -1.3539 -1.6486
21535SOL    HW266047   2.318   0.552  10.474  0.5204 -1.3082 -0.4330
21536SOL     OW66048   1.241   2.031   6.253 -0.5524 -0.4781  0.3362
21536SOL    HW166049   1.296   2.108   6.242 -0.4434 -0.7220 -1.1419
21536SOL    HW266050   1.159   2.065   6.289 -0.3743  0.2868  0.0493
21537SOL     OW66051   4.051   0.241   5.046  0.1069  0.3094  0.6024
21537SOL    HW166052   4.023   0.239   4.955 -1.4088 -1.4345  1.0372
21537SOL    HW266053   4.137   0.200   5.046  0.0373  0.1598 -0.0170
21538SOL     OW66054   2.352   7.245  11.488 -0.2530  0.0763  0.0101
21538SOL    HW166055   2.297   7.316  11.457  0.6447  0.5058 -0.6576
21538SOL    HW266056   2.429   7.288  11.525  1.1528 -0.5329 -2.0371
21539SOL     OW66057   7.519   5.538   0.070  0.2093 -0.2465  0.8400
21539SOL    HW166058   7.452   5.566   0.007  2.7464 -0.2602 -2.0935
21539SOL    HW266059   7.522   5.443   0.061  1.0492 -0.1901  0.4400
21540SOL     OW66060   3.877   1.897   6.189  1.0970  0.4645  0.5423
21540SOL    HW166061   3.784   1.918   6.177  0.5345 -1.3679  1.4075
21540SOL    HW266062   3.912   1.892   6.100 -0.4100 -1.8789 -0.0216
21541SOL     OW66063   4.959   2.439  11.322 -0.3662 -0.1735 -0.3843
21541SOL    HW166064   4.974   2.347  11.342 -0.3908  0.0327  0.6705
21541SOL    HW266065   5.019   2.486  11.381 -1.0806  0.5100 -0.1891
21542SOL     OW66066   4.491   5.864   8.898  0.7146 -0.3374  0.1688
21542SOL    HW166067   4.446   5.801   8.842 -0.3025 -1.4902  2.1718
21542SOL    HW266068   4.552   5.909   8.839 -1.9790  0.2895 -2.3866
21543SOL     OW66069   6.195   7.756   1.945  0.3423 -0.0313 -0.0118
21543SOL    HW166070   6.202   7.844   1.982  1.3430  0.2290 -0.8116
21543SOL    HW266071   6.249   7.702   2.002  0.7971  0.1208 -0.2963
21544SOL     OW66072   5.897   5.697   5.561 -0.3342  0.6408 -0.0542
21544SOL    HW166073   5.983   5.737   5.572  1.1548 -1.9319 -1.2733
21544SOL    HW266074   5.863   5.689   5.650  1.0764  0.9332  0.5350
21545SOL     OW66075   7.438   0.678  11.368 -0.0892  0.5385 -0.2817
21545SOL    HW166076   7.416   0.739  11.438 -0.5750 -0.9875  0.9525
21545SOL    HW266077   7.455   0.734  11.292 -0.4276  2.1936  0.8065
21546SOL     OW66078   3.770   3.483   7.045  0.1650  0.0467  0.3590
21546SOL    HW166079   3.851   3.529   7.069  0.3101  1.1981 -1.9465
21546SOL    HW266080   3.778   3.397   7.085  1.8249  0.6508  1.4533
21547SOL     OW66081   1.914   2.409   9.418  0.5446  0.1390 -0.2209
21547SOL    HW166082   1.928   2.369   9.332 -1.0906  0.5458 -0.7216
21547SOL    HW266083   1.891   2.500   9.399  0.5176  0.3300  0.6768
21548SOL     OW66084   7.407   2.429   5.789 -0.2366 -0.1692 -0.3332
21548SOL    HW166085   7.334   2.371   5.810  1.1756 -1.3768  1.6624
21548SOL    HW266086   7.368   2.515   5.775 -2.2228 -1.2237 -1.6152
21549SOL     OW66087   3.498   1.465   3.214 -0.0278  0.0609 -0.0668
21549SOL    HW166088   3.511   1.453   3.308 -0.0346  1.6976  0.1711
21549SOL    HW266089   3.405   1.481   3.204  0.0834  0.6069 -0.2624
21550SOL     OW66090   6.129   4.703   8.954  0.1624  0.3675 -0.4890
21550SOL    HW166091   6.213   4.707   8.909  0.7244  2.2162  0.6534
21550SOL    HW266092   6.147   4.655   9.035 -0.7248 -2.4299 -1.7976
21551SOL     OW66093   1.376   1.961   7.294  0.3100  0.0081 -0.1096
21551SOL    HW166094   1.393   1.874   7.330 -0.1707  0.1337  0.4421
21551SOL    HW266095   1.306   1.996   7.349  1.3651  1.2597  0.4893
21552SOL     OW66096   3.095   7.428   6.265  0.4287 -0.2134  0.3903
21552SOL    HW166097   3.160   7.364   6.237  0.5977 -0.0714  0.4525
21552SOL    HW266098   3.019   7.413   6.208  1.2722  1.0048 -1.1286
21553SOL     OW66099   5.565   2.070   2.699  0.5469  0.0361 -0.1120
21553SOL    HW166100   5.602   2.013   2.766 -0.2454 -0.7226 -0.2977
21553SOL    HW266101   5.519   2.010   2.640 -3.2951  1.0446  1.5345
21554SOL     OW66102   2.538   2.421   5.121 -0.6180 -0.3775 -0.3043
21554SOL    HW166103   2.616   2.394   5.168  0.8318 -0.6639 -2.6835
21554SOL    HW266104   2.514   2.505   5.159 -0.5241 -1.2905  1.9441
21555SOL     OW66105   7.598   5.577   7.570  0.1745 -0.1068 -0.7100
21555SOL    HW166106   7.641   5.528   7.640  1.5144  3.1005  0.9506
21555SOL    HW266107   7.517   5.609   7.609 -0.2219 -0.2025 -1.4362
21556SOL     OW66108   0.041   3.347  11.893  0.4952  0.7462 -0.0803
21556SOL    HW166109   0.020   3.338  11.800  0.4030  0.1345 -0.0062
21556SOL    HW266110   0.033   3.440  11.910  1.6041  1.0230 -0.9489
21557SOL     OW66111   4.745   4.747  10.914 -0.4465 -0.0167  0.2481
21557SOL    HW166112   4.657   4.774  10.887 -0.1964  1.1932  0.5905
21557SOL    HW266113   4.737   4.653  10.931 -0.9904 -0.5480 -2.4535
21558SOL     OW66114   0.817   3.392   7.473  0.4012 -0.5225 -0.5417
21558SOL    HW166115   0.822   3.461   7.407  0.7228 -0.9016 -0.9265
21558SOL    HW266116   0.810   3.311   7.421  1.2158 -0.8731 -0.1170
21559SOL     OW66117   6.502   0.218   0.765  0.3006 -0.3135 -0.1874
21559SOL    HW166118   6.554   0.280   0.713  0.8644 -1.6782 -1.3006
21559SOL    HW266119   6.439   0.181   0.703 -0.9130  0.0584  0.7655
21560SOL     OW66120   6.567   5.331   6.773 -0.1657 -0.0852  0.3595
21560SOL    HW166121   6.581   5.371   6.858 -0.4386 -0.8677  0.7854
21560SOL    HW266122   6.625   5.379   6.714  0.1282  0.3723  1.0079
21561SOL     OW66123   0.094   2.359   6.111 -0.5452 -0.2149 -0.0871
21561SOL    HW166124   0.119   2.291   6.173 -1.5436 -0.2578  0.2933
21561SOL    HW266125   0.175   2.407   6.093 -0.2350 -0.2051  1.2419
21562SOL     OW66126   0.344   3.250   9.490 -0.4352 -0.1067 -0.2591
21562SOL    HW166127   0.398   3.186   9.537  2.5510  1.3914 -1.3322
21562SOL    HW266128   0.351   3.330   9.542  0.6288  0.8189 -1.7392
21563SOL     OW66129   4.172   7.412   4.553 -1.1738 -0.0433  0.4740
21563SOL    HW166130   4.160   7.411   4.648  2.5840  0.1458  1.0840
21563SOL    HW266131   4.204   7.324   4.532 -0.6861  0.3230 -0.3792
21564SOL     OW66132   1.270   1.257   5.545  0.1296  0.0481  0.9247
21564SOL    HW166133   1.357   1.219   5.558  0.1982 -0.8504 -1.6621
21564SOL    HW266134   1.210   1.183   5.550 -0.2172  0.2788  0.2654
21565SOL     OW66135   3.572   6.034   3.118  0.0504  0.4389  0.1170
21565SOL    HW166136   3.655   6.028   3.069 -1.1589 -2.8929 -1.8991
21565SOL    HW266137   3.563   5.948   3.159 -2.5060  0.6347  0.0951
21566SOL     OW66138   2.767   5.090   3.436  1.1733 -0.1075 -0.3793
21566SOL    HW166139   2.762   5.164   3.375  0.7918  0.2727  0.1080
21566SOL    HW266140   2.718   5.020   3.393  0.0867  0.4595 -0.0861
21567SOL     OW66141   1.078   6.167   5.123 -0.0053  0.0039 -0.0840
21567SOL    HW166142   1.131   6.088   5.112  1.9086  1.4486 -2.2579
21567SOL    HW266143   1.134   6.227   5.172  0.5551  1.5906 -2.4870
21568SOL     OW66144   5.350   4.785   9.225  0.2201 -0.4177 -0.1037
21568SOL    HW166145   5.404   4.837   9.285  0.7462 -1.0775  0.0027
21568SOL    HW266146   5.359   4.695   9.256 -0.0384 -0.6814 -0.7740
21569SOL     OW66147   1.468   3.186  10.373  0.5060 -0.2227 -0.0908
21569SOL    HW166148   1.550   3.165  10.328  0.1382  1.1591 -1.5178
21569SOL    HW266149   1.494   3.246  10.444  0.7224  0.4141 -0.6969
21570SOL     OW66150   5.652   0.020   4.052 -0.2814 -0.0942  0.0343
21570SOL    HW166151   5.627   0.035   3.961 -1.1213 -1.4398  0.0151
21570SOL    HW266152   5.592  -0.048   4.083  0.1211  0.1861  1.5377
21571SOL     OW66153   1.986   2.167  11.426  0.0570  0.5674 -0.0754
21571SOL    HW166154   2.074   2.204  11.433  0.9279 -1.4576  0.2377
21571SOL    HW266155   1.993   2.081  11.466 -2.9149  1.5921  3.2153
21572SOL     OW66156   3.547   6.928   2.277  0.0504 -0.8057  0.1233
21572SOL    HW166157   3.506   6.915   2.363 -0.2570 -1.3960 -0.1124
21572SOL    HW266158   3.534   6.846   2.231  1.6742 -1.0980  0.1149
21573SOL     OW66159   3.190   6.153   7.545  0.4523  0.0178  0.5355
21573SOL    HW166160   3.183   6.121   7.455 -2.3714  0.5214  0.4716
21573SOL    HW266161   3.140   6.090   7.596  1.2849  0.2306  1.6390
21574SOL     OW66162   7.593   4.112  10.965  0.3016 -0.9039 -0.6759
21574SOL    HW166163   7.570   4.138  11.054 -1.4933 -0.1913 -1.3086
21574SOL    HW266164   7.627   4.023  10.974  0.0927 -0.8615  0.6976
21575SOL     OW66165   5.588   0.385  12.044 -0.6054 -0.0185  0.3237
21575SOL    HW166166   5.593   0.342  12.129 -3.0024 -1.6696 -0.2625
21575SOL    HW266167   5.601   0.478  12.063  1.4806 -0.5908  2.0862
21576SOL     OW66168   5.649   3.553   2.232  0.1561 -0.2059 -0.2707
21576SOL    HW166169   5.674   3.622   2.171 -0.5136 -0.5268 -0.9291
21576SOL    HW266170   5.559   3.575   2.256  0.5629  0.1717  0.9731
21577SOL     OW66171   5.532   7.211  11.563  0.0243 -0.4992 -0.2409
21577SOL    HW166172   5.483   7.160  11.626  0.6651  0.9411  1.5089
21577SOL    HW266173   5.466   7.258  11.513 -0.4475 -0.1737  0.6765
21578SOL     OW66174   1.289   1.316   8.235 -0.0019  0.2718 -0.4413
21578SOL    HW166175   1.348   1.241   8.241 -0.1431  0.2494  0.8608
21578SOL    HW266176   1.202   1.277   8.230  0.0104  0.3304 -1.2530
21579SOL     OW66177   0.496   4.266   5.489  0.1957  0.1740 -0.6079
21579SOL    HW166178   0.468   4.337   5.431  0.6743  0.0733 -0.9681
21579SOL    HW266179   0.422   4.206   5.490  0.6136 -0.4090 -2.0603
21580SOL     OW66180   7.842   6.734   7.443 -0.5561 -0.8754 -0.5506
21580SOL    HW166181   7.811   6.660   7.495  0.6798 -1.5413 -0.7162
21580SOL    HW266182   7.923   6.761   7.486 -0.2237 -0.5667 -1.3558
21581SOL     OW66183   1.742   6.003  10.189 -0.0360 -0.0853 -0.0258
21581SOL    HW166184   1.658   6.003  10.236 -0.4574 -1.3764 -0.7201
21581SOL    HW266185   1.804   6.040  10.251 -0.9234 -0.0504  0.8723
21582SOL     OW66186   6.839   5.120   4.823 -0.2846 -0.1974  0.3065
21582SOL    HW166187   6.841   5.210   4.857  0.2903 -0.9887  2.5548
21582SOL    HW266188   6.746   5.099   4.817 -0.4180  0.4081  0.1271
21583SOL     OW66189   4.607   4.580   1.833  0.4077  0.1940  0.4574
21583SOL    HW166190   4.528   4.527   1.833  0.4978  0.0297 -0.7402
21583SOL    HW266191   4.606   4.625   1.917  0.9593 -2.6143  2.0785
21584SOL     OW66192   6.552   2.808   9.782 -0.0724 -0.3529 -0.5905
21584SOL    HW166193   6.497   2.829   9.707  1.4307 -0.4900 -1.7718
21584SOL    HW266194   6.580   2.717   9.767  0.2581 -0.3771  0.1173
21585SOL     OW66195   2.802   2.991   0.264 -0.6260  0.1796  0.5440
21585SOL    HW166196   2.765   2.985   0.176 -0.8628  1.8729  0.5024
21585SOL    HW266197   2.727   2.977   0.322 -1.2214  2.5719  0.4542
21586SOL     OW66198   6.434   1.740   7.282  0.2481 -0.6230 -0.0380
21586SOL    HW166199   6.394   1.711   7.200 -3.1000  1.0812  0.8189
21586SOL    HW266200   6.442   1.835   7.273  0.2500 -0.4563  1.4102
21587SOL     OW66201   2.675   1.663   6.029  0.2112 -0.2880  1.1128
21587SOL    HW166202   2.618   1.614   5.969 -1.3946  1.0497  1.4929
21587SOL    HW266203   2.728   1.595   6.072 -0.7400 -1.5254  0.3971
21588SOL     OW66204   6.833   4.571   4.515 -0.3865 -0.6165 -0.3706
21588SOL    HW166205   6.867   4.660   4.506  0.3180 -0.8898 -0.4512
21588SOL    HW266206   6.756   4.581   4.571  1.4259 -0.3303  2.2449
21589SOL     OW66207   7.321   2.997   8.080 -0.2357 -0.4839  0.1794
21589SOL    HW166208   7.269   2.918   8.066 -1.3654  0.5117 -1.7099
21589SOL    HW266209   7.407   2.976   8.046 -0.2686 -1.1660  0.4991
21590SOL     OW66210   2.893   4.338   4.307  0.1319 -0.2537  0.0893
21590SOL    HW166211   2.971   4.393   4.300  1.0840 -1.5888 -0.2056
21590SOL    HW266212   2.863   4.349   4.397  1.2736 -0.5194  0.5084
21591SOL     OW66213   1.600   7.424   4.554 -0.0840 -1.2282 -0.4613
21591SOL    HW166214   1.648   7.365   4.611  0.3011 -2.1112 -1.6584
21591SOL    HW266215   1.516   7.437   4.597 -0.6941 -3.6943 -0.7587
21592SOL     OW66216   4.015   4.040   0.333  0.2921  0.3445  0.3899
21592SOL    HW166217   4.079   4.053   0.262  1.4185  3.6382  1.7819
21592SOL    HW266218   4.066   4.004   0.405  0.5361  2.2571  1.2508
21593SOL     OW66219   1.093   0.275   1.305 -0.1951  0.0088  0.1396
21593SOL    HW166220   1.063   0.278   1.395  1.1627 -0.7933  0.6556
21593SOL    HW266221   1.183   0.307   1.308 -1.0353  2.8812 -1.4228
21594SOL     OW66222   4.040   7.056  11.755  0.6378 -0.3003  0.3319
21594SOL    HW166223   4.008   6.975  11.716  0.3695 -0.2558  0.4575
21594SOL    HW266224   4.097   7.028  11.827 -1.0081 -0.3905  1.6485
21595SOL     OW66225   5.974   5.983   5.545  0.0263 -0.2545  0.0788
21595SOL    HW166226   6.058   6.026   5.530 -0.6150  1.0257 -0.0082
21595SOL    HW266227   5.955   5.999   5.638  0.1758 -1.1125  0.2669
21596SOL     OW66228   0.138   6.255   1.349 -0.1250 -0.1589 -0.2612
21596SOL    HW166229   0.096   6.242   1.434  0.6577 -0.9495  0.0194
21596SOL    HW266230   0.218   6.303   1.368  0.2878 -0.7521 -0.4841
21597SOL     OW66231   2.847   0.294  11.311 -0.6185  0.5192 -0.2277
21597SOL    HW166232   2.880   0.258  11.229 -1.3133 -1.7558  0.4039
21597SOL    HW266233   2.921   0.339  11.350  0.4811 -0.6458 -0.8938
21598SOL     OW66234   1.639   1.099  12.332  0.7090 -0.0459  0.0383
21598SOL    HW166235   1.687   1.153  12.269  0.0130  1.0859  0.4362
21598SOL    HW266236   1.705   1.071  12.396  1.0754  0.3828 -0.1522
21599SOL     OW66237   4.022   1.744  11.045  0.1192 -0.4937  0.3337
21599SOL    HW166238   3.984   1.679  10.986  0.1807  1.1262 -1.6194
21599SOL    HW266239   4.028   1.823  10.992  2.8070  0.3235  1.6797
21600SOL     OW66240   0.721   5.872   6.798  0.1944 -0.1103 -0.0048
21600SOL    HW166241   0.758   5.823   6.872  0.1733  0.3422  0.3081
21600SOL    HW266242   0.764   5.958   6.803 -0.0875  0.0457 -0.2945
21601SOL     OW66243   1.417   7.588   0.625 -0.3304 -0.2043  0.4280
21601SOL    HW166244   1.333   7.547   0.605 -0.8512  0.5127  1.1148
21601SOL    HW266245   1.398   7.650   0.695  0.5414  0.8789 -0.2588
21602SOL     OW66246   4.741   7.747   9.065  0.0803 -0.2232 -0.0791
21602SOL    HW166247   4.813   7.716   9.011  0.7250 -0.2013  0.7527
21602SOL    HW266248   4.683   7.792   9.003  1.2172  0.5458 -0.6302
21603SOL     OW66249   5.906   3.998   3.333  0.1240 -1.0422  0.0977
21603SOL    HW166250   5.860   4.016   3.415  1.3579  1.5363  0.3131
21603SOL    HW266251   5.932   3.906   3.340 -1.5426 -1.4474  1.6747
21604SOL     OW66252   3.341   0.051   5.649 -0.2926 -0.4264  0.0492
21604SOL    HW166253   3.404   0.093   5.707 -0.4743  0.1469 -0.1651
21604SOL    HW266254   3.284   0.002   5.708 -1.1723  1.0550  0.4820
21605SOL     OW66255   5.997   2.135  10.052  0.6884  0.0936 -0.3576
21605SOL    HW166256   5.963   2.128   9.962  1.6066  0.1214 -0.7197
21605SOL    HW266257   6.085   2.098  10.046  1.2238  1.2320  0.2681
21606SOL     OW66258   6.933   6.534   0.884  0.3119  0.0807 -0.1608
21606SOL    HW166259   6.849   6.558   0.844  1.0564  2.0934 -0.6812
21606SOL    HW266260   6.921   6.445   0.916 -1.0502 -0.8420 -2.9295
21607SOL     OW66261   5.848   3.300  11.244  0.4586  0.1321  0.6432
21607SOL    HW166262   5.858   3.358  11.319  1.9260 -0.7734  1.1904
21607SOL    HW266263   5.759   3.266  11.251 -0.1784  1.7233  0.7090
21608SOL     OW66264   6.124   1.698  11.368 -0.0018 -0.3684  0.3545
21608SOL    HW166265   6.161   1.734  11.288  1.2051 -0.8516  0.6750
21608SOL    HW266266   6.196   1.649  11.408 -0.8043 -0.7757  1.3438
21609SOL     OW66267   3.061   6.215   9.794 -0.3650  0.2030 -0.3090
21609SOL    HW166268   3.017   6.228   9.710 -0.5024 -0.4847 -0.3499
21609SOL    HW266269   3.136   6.159   9.773  0.9554  1.9346 -0.3567
21610SOL     OW66270   5.550   5.188   8.640  0.2027 -0.5422  0.0533
21610SOL    HW166271   5.485   5.210   8.708 -1.8882 -2.7179 -1.0697
21610SOL    HW266272   5.618   5.140   8.688  1.1872  1.9086  1.2884
21611SOL     OW66273   1.804   7.011   4.920 -0.1713 -0.3773  0.2133
21611SOL    HW166274   1.820   6.921   4.891  0.1512 -0.3504  0.3020
21611SOL    HW266275   1.721   7.006   4.967 -0.1254 -0.6413  0.2717
21612SOL     OW66276   3.086   4.500   0.575 -0.5901 -0.4373 -0.5653
21612SOL    HW166277   3.001   4.508   0.616  0.3200  2.2405  1.0421
21612SOL    HW266278   3.120   4.416   0.606 -2.4518 -1.4143 -1.0118
21613SOL     OW66279   0.279   0.099   2.717  0.2092 -0.0187  0.2833
21613SOL    HW166280   0.224   0.020   2.717 -0.0852  0.1812 -0.8550
21613SOL    HW266281   0.265   0.137   2.804 -0.1969 -0.8345  0.5888
21614SOL     OW66282   4.984   5.300   3.160  0.1003  0.3193  0.1091
21614SOL    HW166283   5.055   5.238   3.140 -0.3605 -0.2658  0.2432
21614SOL    HW266284   5.020   5.386   3.138  0.2757 -0.1128 -1.4477
21615SOL     OW66285   7.208   3.364   0.885 -0.0708  0.4705 -0.6501
21615SOL    HW166286   7.120   3.348   0.919 -0.1171 -1.0081 -1.3962
21615SOL    HW266287   7.202   3.343   0.792  1.0926  0.3055 -0.6979
21616SOL     OW66288   7.088   2.287   0.993 -0.0634 -0.0593 -0.3702
21616SOL    HW166289   7.179   2.295   0.963 -0.4801  0.8574 -1.4545
21616SOL    HW266290   7.095   2.289   1.089  1.0075  0.7034 -0.4413
21617SOL     OW66291   6.128   0.838   4.453  0.1085  0.5058 -0.5883
21617SOL    HW166292   6.215   0.878   4.451 -0.2944  1.3869 -1.7137
21617SOL    HW266293   6.092   0.861   4.538  0.3621  1.5231 -0.7447
21618SOL     OW66294   1.883   1.751  12.291 -0.2570 -0.3620 -0.2158
21618SOL    HW166295   1.821   1.679  12.305  0.4684 -1.3561 -1.8425
21618SOL    HW266296   1.869   1.778  12.201 -0.1358  1.2153  0.2031
21619SOL     OW66297   3.293   1.875   5.427 -0.5483 -0.1106 -0.2435
21619SOL    HW166298   3.268   1.967   5.434 -0.1039  0.1215 -1.3329
21619SOL    HW266299   3.354   1.861   5.499 -0.4005  0.5317 -0.2387
21620SOL     OW66300   4.218   7.223   0.613  0.1526  0.1006  0.2394
21620SOL    HW166301   4.131   7.250   0.585  0.7010  0.3402 -1.3325
21620SOL    HW266302   4.231   7.137   0.573 -0.0518 -0.7723  1.9760
21621SOL     OW66303   3.049   6.693  10.911 -0.2394 -0.2140  0.0018
21621SOL    HW166304   3.114   6.624  10.900 -2.4640 -2.7329  1.4519
21621SOL    HW266305   3.099   6.769  10.938  2.1026 -2.1364  1.5031
21622SOL     OW66306   7.255   7.136   7.795  0.3458  0.1671 -0.1279
21622SOL    HW166307   7.305   7.108   7.872 -1.4799  0.5160  1.2526
21622SOL    HW266308   7.285   7.226   7.780  1.3050 -0.1749 -0.3600
21623SOL     OW66309   0.597   2.301   4.908 -0.2483  0.0825 -0.1573
21623SOL    HW166310   0.558   2.365   4.849 -0.2800 -0.3191 -0.5809
21623SOL    HW266311   0.648   2.243   4.851  2.3855  1.5591  0.5318
21624SOL     OW66312   1.495   4.725   7.764  0.2772  0.3514  0.3292
21624SOL    HW166313   1.535   4.770   7.690  0.6389  0.6575  0.7041
21624SOL    HW266314   1.437   4.790   7.803  0.7654  0.4779  0.8453
21625SOL     OW66315   4.414   0.524   1.056 -0.6530 -0.0891  0.4851
21625SOL    HW166316   4.373   0.608   1.039 -0.1187  0.2123  0.6707
21625SOL    HW266317   4.455   0.499   0.973  0.2673  0.4422  0.7652
21626SOL     OW66318   5.216   2.886  10.490  0.5155 -0.2792 -0.2473
21626SOL    HW166319   5.283   2.929  10.438  0.9552 -0.7431 -0.0633
21626SOL    HW266320   5.133   2.913  10.449  0.7944  0.4814 -0.3264
21627SOL     OW66321   5.698   3.060   3.473 -0.1227 -0.2236  0.4056
21627SOL    HW166322   5.671   3.055   3.565  2.3751  1.1817  1.2989
21627SOL    HW266323   5.793   3.050   3.476 -0.0438 -0.7173 -2.1175
21628SOL     OW66324   5.439   3.584  11.854  0.1243  0.0887  0.1766
21628SOL    HW166325   5.476   3.665  11.819  1.1470 -0.4896 -0.1182
21628SOL    HW266326   5.479   3.515  11.801 -1.3119 -0.5836 -0.0831
21629SOL     OW66327   1.209   1.999   5.094  0.5111  0.0222  0.4136
21629SOL    HW166328   1.166   2.081   5.070 -0.2600 -0.1308  1.2072
21629SOL    HW266329   1.207   1.946   5.015  3.2469  1.6313 -0.8970
21630SOL     OW66330   7.962   0.613   9.448  0.1669  0.3883  0.1539
21630SOL    HW166331   8.027   0.595   9.516  0.2001 -0.0948  0.0002
21630SOL    HW266332   7.890   0.655   9.494  0.8990  1.6298  0.2037
21631SOL     OW66333   2.471   5.483   9.954 -0.2453  0.4000  0.4352
21631SOL    HW166334   2.427   5.401   9.932  0.2561  0.6526 -1.6862
21631SOL    HW266335   2.564   5.464   9.944 -0.0266  0.7783  1.6303
21632SOL     OW66336   7.783   3.469   1.979 -0.1956  0.1105  0.4919
21632SOL    HW166337   7.837   3.498   1.906  0.1286  1.3786  1.2142
21632SOL    HW266338   7.767   3.376   1.961  1.9811 -0.2436  0.1252
21633SOL     OW66339   0.943   7.415   5.325 -0.3866  0.4337  0.3306
21633SOL    HW166340   0.867   7.470   5.345  0.1354  1.1452  0.3808
21633SOL    HW266341   0.910   7.353   5.260 -0.3854  2.3908 -1.6715
21634SOL     OW66342   4.020   2.157   4.095  0.1254 -0.7721 -0.0122
21634SOL    HW166343   3.982   2.137   4.180  0.0213 -0.3149  0.0554
21634SOL    HW266344   4.024   2.253   4.093  1.8488 -0.7993  0.2469
21635SOL     OW66345   3.047   3.663   9.052 -0.0751  0.7301  0.1042
21635SOL    HW166346   3.126   3.611   9.055 -1.3203 -1.3411 -0.8251
21635SOL    HW266347   2.991   3.628   9.121 -1.3150  0.0951 -1.1628
21636SOL     OW66348   2.003   4.727   2.075  0.4039  0.0319 -0.2208
21636SOL    HW166349   1.936   4.668   2.110 -1.4221  1.8595 -0.4336
21636SOL    HW266350   2.085   4.680   2.086 -0.9161 -2.3711 -0.0447
21637SOL     OW66351   5.871   0.446   9.173 -0.2370 -0.1661 -0.0023
21637SOL    HW166352   5.837   0.385   9.107 -0.1191 -0.8313  0.5385
21637SOL    HW266353   5.935   0.394   9.223  0.8864  0.7842 -0.4004
21638SOL     OW66354   7.885   0.533   5.805  0.3625  0.0619  0.6725
21638SOL    HW166355   7.945   0.533   5.731 -1.6544  0.2131 -1.0833
21638SOL    HW266356   7.938   0.561   5.879  1.8835  2.8690 -1.2541
21639SOL     OW66357   5.923   4.427   4.531 -0.0448  0.5236  0.0843
21639SOL    HW166358   5.951   4.356   4.590  0.0837  0.4894 -0.0185
21639SOL    HW266359   5.828   4.418   4.527 -0.0589  0.5486  0.3181
21640SOL     OW66360   5.231   6.133  11.333  0.2494 -0.3056 -0.1044
21640SOL    HW166361   5.230   6.219  11.374  0.4324 -0.2925 -0.1257
21640SOL    HW266362   5.174   6.142  11.257  2.0007  0.4537 -1.4074
21641SOL     OW66363   1.802   4.174   0.289  0.0925 -0.1603  0.2012
21641SOL    HW166364   1.810   4.107   0.357  0.2620  0.5948  0.9498
21641SOL    HW266365   1.713   4.163   0.255 -0.0377 -0.4721  0.6310
21642SOL     OW66366   3.640   1.699   0.310  0.2579  0.0111  0.3275
21642SOL    HW166367   3.588   1.686   0.389 -0.7726  1.2422 -0.1130
21642SOL    HW266368   3.727   1.724   0.342 -0.0192  0.0334  1.0727
21643SOL     OW66369   5.017   3.171   7.391 -0.0176 -0.5827  0.1766
21643SOL    HW166370   5.026   3.194   7.484 -3.3503 -2.2025  1.0316
21643SOL    HW266371   4.937   3.215   7.363  0.1781 -1.2492 -1.5377
21644SOL     OW66372   7.833   5.220   6.031  0.2317 -0.0796 -0.1839
21644SOL    HW166373   7.773   5.294   6.043  1.4198  0.7105  1.1597
21644SOL    HW266374   7.829   5.172   6.113  1.2181 -0.1798 -0.1818
21645SOL     OW66375   1.969   4.643   6.045 -0.8800  0.1030 -0.0889
21645SOL    HW166376   2.031   4.600   6.104  0.4618  0.4831 -1.1835
21645SOL    HW266377   1.964   4.586   5.969 -1.2536  0.4908 -0.3602
21646SOL     OW66378   3.877   5.405   6.543 -0.2831  0.1765 -0.0572
21646SOL    HW166379   3.925   5.420   6.624  1.0630  1.9745 -1.1145
21646SOL    HW266380   3.786   5.392   6.571 -0.1378  2.3052  1.6663
21647SOL     OW66381   3.681   5.769   4.534  0.1442 -1.1750 -0.1186
21647SOL    HW166382   3.600   5.758   4.484 -0.6803  0.3169  0.8305
21647SOL    HW266383   3.684   5.693   4.591 -1.2028 -0.7110  0.6234
21648SOL     OW66384   1.383   6.571   1.322 -0.0430  0.2481  0.0924
21648SOL    HW166385   1.444   6.629   1.368 -0.5735  0.0741  1.0438
21648SOL    HW266386   1.322   6.630   1.278 -0.1540  0.4188  0.4709
21649SOL     OW66387   3.318   1.538   6.001 -0.0479  0.3184 -0.0519
21649SOL    HW166388   3.314   1.548   5.906 -0.7946 -0.5213 -0.1241
21649SOL    HW266389   3.411   1.529   6.020  0.2172  1.7818 -0.5398
21650SOL     OW66390   1.296   3.743  11.581 -0.3825 -0.7545  0.0178
21650SOL    HW166391   1.201   3.738  11.571 -0.2607 -0.3728 -1.7178
21650SOL    HW266392   1.329   3.669  11.530  0.2679 -0.2245 -0.3596
21651SOL     OW66393   5.552   1.567   5.447 -0.3999  0.2835  0.2487
21651SOL    HW166394   5.586   1.483   5.480 -2.1861 -0.3432  0.6143
21651SOL    HW266395   5.469   1.544   5.405 -0.7068  1.8272 -0.0449
21652SOL     OW66396   4.358   4.973   9.170  0.5002 -0.3874  0.3399
21652SOL    HW166397   4.320   5.050   9.127 -2.2206 -1.4440  0.6517
21652SOL    HW266398   4.331   4.899   9.115  3.3964 -1.1868 -0.1874
21653SOL     OW66399   2.250   6.889   7.518  0.5881  0.6180 -0.9411
21653SOL    HW166400   2.312   6.822   7.545  2.2608  2.2506 -0.5041
21653SOL    HW266401   2.244   6.947   7.594 -1.7109  0.3908 -0.8848
21654SOL     OW66402   6.867   3.506   0.687 -0.3329 -0.2931  0.3031
21654SOL    HW166403   6.919   3.505   0.607  0.2392 -1.4464  0.6725
21654SOL    HW266404   6.776   3.505   0.656 -0.2921  3.1552 -0.3869
21655SOL     OW66405   4.324   0.068  10.116  0.6443 -0.5023  0.6502
21655SOL    HW166406   4.299   0.032  10.031 -1.0366  0.7220  0.5529
21655SOL    HW266407   4.289   0.007  10.180  0.3562 -0.5269  0.4692
21656SOL     OW66408   6.382   5.425   1.861 -0.0301 -0.0618 -0.5681
21656SOL    HW166409   6.456   5.466   1.816  0.3658  0.1593  0.2642
21656SOL    HW266410   6.405   5.430   1.954 -0.3923 -1.3794 -0.3965
21657SOL     OW66411   3.133   1.392   5.043 -0.2903  0.1394 -0.0430
21657SOL    HW166412   3.110   1.310   5.000 -1.0093  0.2905  0.0502
21657SOL    HW266413   3.129   1.457   4.973 -2.3879  0.5458  0.4190
21658SOL     OW66414   3.350   6.068  11.971 -0.1426 -0.4670  0.0208
21658SOL    HW166415   3.358   6.001  11.903  1.2864 -0.7211  0.4291
21658SOL    HW266416   3.388   6.147  11.932 -1.0673 -0.0905 -0.1553
21659SOL     OW66417   6.591   1.633   0.363  0.0977  0.0527 -0.8045
21659SOL    HW166418   6.602   1.649   0.270 -3.5715 -0.5786 -1.4812
21659SOL    HW266419   6.572   1.539   0.370  0.5773  0.0287  0.6378
21660SOL     OW66420   2.315   5.267   7.151 -0.3570 -0.8185  0.0163
21660SOL    HW166421   2.225   5.296   7.135 -1.2396 -2.8027  1.1112
21660SOL    HW266422   2.362   5.289   7.070 -1.3913  1.6355 -0.0199
21661SOL     OW66423   0.534   0.386   9.586  0.0909  0.6755 -0.3516
21661SOL    HW166424   0.489   0.430   9.658 -0.7781  0.0737 -0.5090
21661SOL    HW266425   0.568   0.306   9.626 -0.1550  0.4743 -0.5489
21662SOL     OW66426   6.301   0.876   6.067  0.3383 -0.6006  0.3903
21662SOL    HW166427   6.218   0.829   6.057 -0.5269  1.2139 -1.8448
21662SOL    HW266428   6.363   0.825   6.015  0.3842 -1.3942  1.2101
21663SOL     OW66429   5.493   3.736   4.974 -0.2554  0.6733 -0.2141
21663SOL    HW166430   5.484   3.824   5.011 -2.1668  0.4171  0.0190
21663SOL    HW266431   5.479   3.748   4.880  2.7483  1.0435 -0.7156
21664SOL     OW66432   1.664   0.685   5.710  0.2677  0.7669 -0.2018
21664SOL    HW166433   1.687   0.736   5.632  1.4000  0.1928 -0.2677
21664SOL    HW266434   1.702   0.599   5.693 -0.4448  0.3113  0.5066
21665SOL     OW66435   5.768   7.739   7.630  0.3230  0.1814 -0.0739
21665SOL    HW166436   5.798   7.650   7.645 -1.2104 -0.3793 -0.1724
21665SOL    HW266437   5.697   7.752   7.692 -1.1675  0.4070 -1.7275
21666SOL     OW66438   0.857   5.858   6.275 -0.5089 -0.8939 -0.2403
21666SOL    HW166439   0.819   5.940   6.307  0.5682 -0.6915  0.5648
21666SOL    HW266440   0.891   5.879   6.188 -0.4438 -0.5493 -0.1316
21667SOL     OW66441   3.400   7.290  10.291  0.0437  0.0640 -0.0258
21667SOL    HW166442   3.329   7.286  10.227  1.0074  0.2054 -1.1244
21667SOL    HW266443   3.427   7.382  10.292  0.8203 -0.1542 -0.3076
21668SOL     OW66444   0.149   0.564   9.676  0.5745  0.3533  0.1543
21668SOL    HW166445   0.213   0.634   9.690 -0.3480  1.5522 -1.2862
21668SOL    HW266446   0.119   0.541   9.763  2.9241 -0.2407  0.8731
21669SOL     OW66447   1.330   3.568   9.005  0.6611 -0.4862  0.1308
21669SOL    HW166448   1.252   3.514   9.012  1.7353 -2.5005 -2.0118
21669SOL    HW266449   1.317   3.638   9.069 -2.1619 -1.5936  0.9069
21670SOL     OW66450   2.458   4.533   6.362  0.2085 -0.0535 -0.1984
21670SOL    HW166451   2.476   4.628   6.363  2.3304 -0.3826 -0.7981
21670SOL    HW266452   2.415   4.516   6.445 -1.4530  1.6364 -0.6541
21671SOL     OW66453   6.354   5.303   5.112  0.1502 -0.2325 -0.3276
21671SOL    HW166454   6.424   5.332   5.054  0.3515 -1.3099 -0.6510
21671SOL    HW266455   6.388   5.223   5.152 -0.5994 -0.3557  0.0846
21672SOL     OW66456   5.572   6.780   8.293  0.4850 -0.1814  0.2283
21672SOL    HW166457   5.576   6.690   8.325  2.6932  0.0908  0.8833
21672SOL    HW266458   5.585   6.834   8.371  0.6568  0.6477 -0.3577
21673SOL     OW66459   1.913   3.313   0.953  0.4618 -0.1766  0.1295
21673SOL    HW166460   1.935   3.252   0.882  2.0946  0.5977 -0.0923
21673SOL    HW266461   1.823   3.339   0.935  1.0173  0.4898 -2.0953
21674SOL     OW66462   3.060   3.258   9.828 -0.0388 -0.1009  0.3633
21674SOL    HW166463   3.083   3.329   9.888  1.1519 -0.1546 -0.0161
21674SOL    HW266464   3.001   3.202   9.879  1.0223 -0.1929  1.5286
21675SOL     OW66465   7.813   1.098   0.950  0.8608 -0.1012  0.0105
21675SOL    HW166466   7.831   1.186   0.915  1.5911  0.3120  1.3542
21675SOL    HW266467   7.733   1.109   1.002 -0.7220 -0.9019 -2.1203
21676SOL     OW66468   0.480   5.344   6.219  0.3432 -0.4927  0.2687
21676SOL    HW166469   0.385   5.353   6.210  0.3898  1.9129  1.2613
21676SOL    HW266470   0.515   5.396   6.146  0.8285  1.0485  1.5465
21677SOL     OW66471   4.385   5.141   0.416 -0.4927  0.1912  0.2573
21677SOL    HW166472   4.364   5.134   0.323 -1.3126  1.9799  0.2583
21677SOL    HW266473   4.478   5.119   0.422  0.2099  2.3428 -1.3963
21678SOL     OW66474   5.338   0.627   0.544  0.3505  0.0484  0.4112
21678SOL    HW166475   5.354   0.718   0.570 -0.4538  0.8807 -1.7680
21678SOL    HW266476   5.404   0.609   0.478 -0.1040 -0.6044  0.1263
21679SOL     OW66477   5.899   1.574   7.073 -0.7281 -0.3526 -0.0071
21679SOL    HW166478   5.947   1.544   7.150 -0.5229  0.1090  0.0495
21679SOL    HW266479   5.905   1.501   7.011  0.4411 -0.1434 -0.1745
21680SOL     OW66480   4.286   6.202   7.964 -0.6965 -0.1519  0.3816
21680SOL    HW166481   4.253   6.242   7.884 -0.6064 -0.7280  0.0502
21680SOL    HW266482   4.300   6.110   7.941 -0.7187 -0.3341  1.0716
21681SOL     OW66483   6.518   3.880   9.746 -0.0863 -0.2526 -0.1688
21681SOL    HW166484   6.460   3.870   9.671  0.2867  1.1636 -0.6735
21681SOL    HW266485   6.605   3.890   9.708  0.4351 -1.6706  0.5524
21682SOL     OW66486   6.238   1.509   3.108  0.7930  0.0717 -0.2263
21682SOL    HW166487   6.271   1.557   3.184  0.9272  0.3708 -0.4741
21682SOL    HW266488   6.278   1.552   3.032  0.4185 -0.0282 -0.4854
21683SOL     OW66489   4.863   7.798   7.982 -0.2565  0.4612 -0.1035
21683SOL    HW166490   4.948   7.791   7.939 -1.7487 -4.4229 -3.1585
21683SOL    HW266491   4.870   7.744   8.061 -0.2935  0.7933  0.1297
21684SOL     OW66492   1.160   2.557   9.531 -0.0549  0.3734 -0.0089
21684SOL    HW166493   1.138   2.648   9.512  0.5282  0.6712  0.7012
21684SOL    HW266494   1.158   2.513   9.446 -2.0923  0.6517 -0.1608
21685SOL     OW66495   5.376   3.594   7.427  0.2604 -0.5968  0.1432
21685SOL    HW166496   5.338   3.590   7.515 -0.1938 -0.2749 -0.0305
21685SOL    HW266497   5.370   3.686   7.403 -0.7076 -0.8583 -0.6865
21686SOL     OW66498   1.875   1.146   8.203  0.5131 -0.2664  0.1219
21686SOL    HW166499   1.901   1.089   8.275  1.5029 -0.3676 -0.3027
21686SOL    HW266500   1.837   1.087   8.138 -0.4941 -0.1604  0.5966
21687SOL     OW66501   6.259   1.442  11.405 -0.1776  1.4779 -0.3512
21687SOL    HW166502   6.337   1.465  11.456  0.4763 -0.1734 -0.5421
21687SOL    HW266503   6.289   1.442  11.314 -0.5000  1.2515 -0.4574
21688SOL     OW66504   1.956   6.086   0.276  0.0423  0.0127 -0.6787
21688SOL    HW166505   1.898   6.010   0.270 -0.9612  0.6676  0.2926
21688SOL    HW266506   2.044   6.050   0.267 -0.4520 -1.1485 -1.0787
21689SOL     OW66507   5.300   6.980   3.979  0.6045 -0.1742  0.7382
21689SOL    HW166508   5.261   7.047   3.923 -2.6733 -1.2053  1.6161
21689SOL    HW266509   5.314   6.905   3.921  3.4702  0.8338 -0.0456
21690SOL     OW66510   1.835   0.500   1.934 -0.6483 -0.2816 -0.4856
21690SOL    HW166511   1.870   0.554   2.005 -0.0668 -1.3128  0.0484
21690SOL    HW266512   1.768   0.554   1.893  0.0930  0.9283 -0.1455
21691SOL     OW66513   1.657   0.435   0.482 -0.2473 -0.2448 -0.2962
21691SOL    HW166514   1.703   0.430   0.398 -1.8710 -2.4421 -1.1755
21691SOL    HW266515   1.579   0.488   0.463 -0.3118 -0.2396 -0.0162
21692SOL     OW66516   4.949   0.975   2.112  0.2547 -0.0690 -0.7535
21692SOL    HW166517   4.997   1.046   2.154  1.5730 -1.0440 -0.5237
21692SOL    HW266518   4.906   1.015   2.037 -0.9387  1.4155  0.6543
21693SOL     OW66519   4.103   7.388   7.601  0.1846 -0.3022  0.4489
21693SOL    HW166520   4.031   7.334   7.634 -0.6932 -0.0089 -0.8847
21693SOL    HW266521   4.060   7.470   7.576  0.7727 -0.5072 -1.3740
21694SOL     OW66522   5.474   3.859   2.271  0.3398 -0.3907 -0.0240
21694SOL    HW166523   5.564   3.874   2.240  0.8144  0.7956  1.7745
21694SOL    HW266524   5.421   3.920   2.220  0.7979  0.0269 -0.0091
21695SOL     OW66525   2.314   1.071   8.512 -0.0447 -0.1562 -0.2349
21695SOL    HW166526   2.318   0.985   8.470 -2.4774 -1.0229  1.1422
21695SOL    HW266527   2.267   1.126   8.449 -0.6234 -0.5045 -0.1087
21696SOL     OW66528   6.047   3.783   0.367 -0.1877  0.3599 -0.0320
21696SOL    HW166529   5.976   3.722   0.345 -0.4994  0.6832  0.0659
21696SOL    HW266530   6.119   3.727   0.394 -0.6212  0.0436  0.4917
21697SOL     OW66531   7.461   1.209   4.805 -0.3143  0.2004  0.6873
21697SOL    HW166532   7.534   1.270   4.799 -0.5163  0.4554  0.8092
21697SOL    HW266533   7.385   1.258   4.774 -0.4939  0.0397  0.8626
21698SOL     OW66534   2.688   3.135   6.329 -0.1716  0.5770 -0.1938
21698SOL    HW166535   2.664   3.186   6.252 -0.4934 -0.8629 -1.0821
21698SOL    HW266536   2.611   3.139   6.386  0.5471  2.7751  0.7353
21699SOL     OW66537   7.337   3.156   7.088  0.5519  0.2051  0.1827
21699SOL    HW166538   7.389   3.083   7.057  1.6018  0.5928  0.9633
21699SOL    HW266539   7.371   3.232   7.041  2.4406  0.8672  2.4342
21700SOL     OW66540   1.310   1.264   9.137  0.2732 -0.5828  0.0997
21700SOL    HW166541   1.384   1.295   9.085  0.6453 -0.8517  0.4630
21700SOL    HW266542   1.249   1.227   9.073  0.1432  0.2512 -0.2656
21701SOL     OW66543   7.017   4.425   3.469  0.3772  0.3042  0.7530
21701SOL    HW166544   6.937   4.474   3.451 -0.6737 -1.6640 -0.2997
21701SOL    HW266545   7.064   4.422   3.385  0.0420 -1.0782  0.5869
21702SOL     OW66546   1.406   6.766   0.311  0.5362  0.0212 -0.1244
21702SOL    HW166547   1.456   6.772   0.230  2.2373 -0.2082  0.8613
21702SOL    HW266548   1.460   6.811   0.376 -0.8316  0.2735  0.8777
21703SOL     OW66549   0.591   1.391   9.749 -0.3806 -0.3225 -0.1144
21703SOL    HW166550   0.574   1.469   9.696 -0.9880 -0.3731 -0.0086
21703SOL    HW266551   0.683   1.371   9.735 -0.9091 -1.3576 -2.5707
21704SOL     OW66552   6.156   4.325  11.253  0.5708  0.5501 -0.3697
21704SOL    HW166553   6.243   4.338  11.291  0.7163  1.4815 -0.9787
21704SOL    HW266554   6.134   4.234  11.273  1.6652  0.3153 -0.1763
21705SOL     OW66555   6.533   0.279   5.367  0.8410 -0.2763 -0.6809
21705SOL    HW166556   6.487   0.195   5.366 -0.7565  0.4812  1.2764
21705SOL    HW266557   6.562   0.290   5.458 -0.7931  2.1311 -0.3406
21706SOL     OW66558   7.076   0.925   6.735  0.3910 -0.2428 -0.3002
21706SOL    HW166559   7.113   0.960   6.654  0.1717  1.4071  0.2850
21706SOL    HW266560   7.152   0.905   6.789  0.5732  2.6996  0.7144
21707SOL     OW66561   2.946   4.229  11.945  0.6732 -0.1579 -0.6149
21707SOL    HW166562   2.931   4.135  11.958  0.7787 -0.0139  0.6468
21707SOL    HW266563   2.977   4.260  12.030 -0.0654  1.1613 -0.8129
21708SOL     OW66564   2.646   1.081   4.597 -0.3589 -0.2351 -0.0459
21708SOL    HW166565   2.680   1.022   4.530  0.1342 -0.7925  0.6880
21708SOL    HW266566   2.698   1.062   4.675 -1.8584 -0.5893  0.8996
21709SOL     OW66567   1.682   0.009  10.272 -0.4353 -0.4465  0.2627
21709SOL    HW166568   1.721   0.015  10.185 -3.2607 -3.3628 -1.4314
21709SOL    HW266569   1.712  -0.076  10.305 -0.7979 -0.1560  1.3554
21710SOL     OW66570   2.881   6.436   4.746 -0.8022 -0.2034 -0.4185
21710SOL    HW166571   2.950   6.372   4.759  0.6492  1.4431  0.4820
21710SOL    HW266572   2.864   6.435   4.652  0.0875 -1.0089 -0.5839
21711SOL     OW66573   5.359   5.135   4.273 -0.3318 -0.0386 -0.2364
21711SOL    HW166574   5.453   5.134   4.261 -0.4044  0.3691 -0.8623
21711SOL    HW266575   5.324   5.089   4.196 -0.6877  0.5638 -0.4386
21712SOL     OW66576   4.348   1.392   6.491 -0.2178 -0.2238  0.3927
21712SOL    HW166577   4.377   1.316   6.440 -1.2126  0.3628 -1.1115
21712SOL    HW266578   4.327   1.458   6.425 -1.1105  0.7311  1.6035
21713SOL     OW66579   0.046   6.402   0.076  0.5198 -0.2329  0.3582
21713SOL    HW166580   0.031   6.308   0.072 -1.7067  0.1055 -0.7802
21713SOL    HW266581   0.136   6.413   0.046  0.1491 -1.8833 -1.6191
21714SOL     OW66582   5.047   2.481   6.380 -0.0876 -0.1209  0.0296
21714SOL    HW166583   5.128   2.486   6.328 -0.8613 -0.6957 -1.3037
21714SOL    HW266584   4.993   2.552   6.345 -0.8268 -0.8545 -0.3501
21715SOL     OW66585   6.146   7.105   6.744  0.7123  0.3021  0.1577
21715SOL    HW166586   6.110   7.191   6.768 -0.2090 -0.2852  0.9704
21715SOL    HW266587   6.138   7.053   6.824 -0.9034 -1.2213 -0.9208
21716SOL     OW66588   1.270   1.674   2.339 -0.2631  0.1350 -0.1066
21716SOL    HW166589   1.281   1.769   2.342 -2.9278  0.4924  0.4117
21716SOL    HW266590   1.273   1.653   2.245 -0.8855  0.9328 -0.3216
21717SOL     OW66591   7.866   3.566   9.787  0.3349 -0.1019  0.5408
21717SOL    HW166592   7.815   3.617   9.850  0.7099  1.9247 -0.6940
21717SOL    HW266593   7.801   3.514   9.740 -0.6700  2.2544 -0.8419
21718SOL     OW66594   6.754   1.125   4.303 -0.1657  0.2697  0.5054
21718SOL    HW166595   6.760   1.188   4.232  0.0128  0.1924  0.4519
21718SOL    HW266596   6.730   1.176   4.380  0.1379  0.4249  0.4970
21719SOL     OW66597   5.520   3.980   4.437 -0.3085 -0.1527 -0.3460
21719SOL    HW166598   5.470   4.046   4.388 -1.0161 -0.2321  0.2552
21719SOL    HW266599   5.543   4.023   4.519 -1.8203 -0.9931  0.5912
21720SOL     OW66600   6.060   0.283   6.117 -0.2358 -0.0719  0.6190
21720SOL    HW166601   6.045   0.198   6.076 -0.4322  0.4506 -0.4325
21720SOL    HW266602   5.979   0.302   6.164 -0.4852 -0.1322  0.2214
21721SOL     OW66603   4.781   2.539   3.420 -0.2616  0.1963  0.2642
21721SOL    HW166604   4.809   2.448   3.407 -0.8510 -0.0353  0.5775
21721SOL    HW266605   4.730   2.561   3.343  0.1849  0.3876  0.0182
21722SOL     OW66606   2.196   6.498   5.789  0.3493  0.3792 -0.4876
21722SOL    HW166607   2.276   6.548   5.806 -0.1426  1.4682 -1.2414
21722SOL    HW266608   2.155   6.543   5.715 -0.4677 -0.7500 -0.7455
21723SOL     OW66609   4.216   6.857   5.535  0.7256  0.2040  0.0172
21723SOL    HW166610   4.162   6.910   5.476  0.1994  0.0640  0.3659
21723SOL    HW266611   4.275   6.920   5.577  0.4322  0.4452  0.0715
21724SOL     OW66612   4.267   3.208  10.108 -1.0747 -0.0515 -0.5421
21724SOL    HW166613   4.226   3.122  10.105 -0.9216 -0.1034 -2.9213
21724SOL    HW266614   4.269   3.237  10.017  0.4924  1.7106 -0.0120
21725SOL     OW66615   5.386   6.481   4.557 -0.0502  0.4765 -0.1876
21725SOL    HW166616   5.465   6.428   4.567 -0.9241 -1.0927 -1.2025
21725SOL    HW266617   5.324   6.424   4.512 -0.8769  2.5490 -1.8455
21726SOL     OW66618   4.046   4.342  11.138  0.1212  0.6914 -0.1053
21726SOL    HW166619   4.052   4.381  11.225  1.4404  0.8614 -0.2566
21726SOL    HW266620   4.125   4.287  11.131  0.1400  0.8480 -1.2736
21727SOL     OW66621   5.880   5.920   3.254  0.3404  0.2779 -0.5303
21727SOL    HW166622   5.902   5.899   3.163  0.7861  0.0581 -0.3739
21727SOL    HW266623   5.823   5.997   3.247  0.0584  0.0328 -1.0137
21728SOL     OW66624   4.041   7.353   6.994 -0.0555  0.4511 -0.2955
21728SOL    HW166625   4.062   7.445   7.009 -1.2577  0.9265 -1.3822
21728SOL    HW266626   4.093   7.328   6.918  1.0948 -0.1181  0.6275
21729SOL     OW66627   0.805   1.287  10.983  0.2182  0.3451 -0.1506
21729SOL    HW166628   0.803   1.236  10.902  1.1349 -2.2618  1.3191
21729SOL    HW266629   0.864   1.360  10.965  0.7570 -0.4419 -1.6955
21730SOL     OW66630   1.885   0.672   2.168 -0.2626 -0.3329 -0.0302
21730SOL    HW166631   1.858   0.638   2.254 -0.4097  0.1804  0.1333
21730SOL    HW266632   1.957   0.731   2.188  0.1694 -0.7543 -0.3399
21731SOL     OW66633   1.407   3.133   4.365 -0.1546 -0.0605 -0.1372
21731SOL    HW166634   1.493   3.115   4.327 -0.6668 -0.2025 -1.2809
21731SOL    HW266635   1.395   3.227   4.354 -0.4758 -0.1642 -0.7366
21732SOL     OW66636   6.712   5.174   7.625 -0.2096  0.5531  0.7315
21732SOL    HW166637   6.677   5.101   7.676 -0.2070  1.1479  1.6027
21732SOL    HW266638   6.654   5.180   7.550  0.7838 -1.4356 -0.2959
21733SOL     OW66639   4.197   2.109   1.189  0.2452 -0.5237 -0.5655
21733SOL    HW166640   4.247   2.054   1.128  1.4056 -0.9282  0.7127
21733SOL    HW266641   4.218   2.198   1.162  0.7984 -0.6943 -0.7113
21734SOL     OW66642   6.345   4.503   2.057 -0.3486  0.0637  0.2112
21734SOL    HW166643   6.293   4.422   2.054  1.0104 -0.8380  0.0414
21734SOL    HW266644   6.283   4.572   2.034 -1.0692 -1.1732 -1.8770
21735SOL     OW66645   4.319   1.161   9.572 -0.2322 -0.8030 -0.0507
21735SOL    HW166646   4.293   1.208   9.493 -0.4058  0.7893  0.9091
21735SOL    HW266647   4.355   1.078   9.540 -1.1842 -0.6124 -1.7270
21736SOL     OW66648   2.753   1.941   2.085 -0.1366 -0.1357  0.3049
21736SOL    HW166649   2.742   1.875   2.153  1.2765 -2.6622 -1.7058
21736SOL    HW266650   2.837   1.982   2.104 -0.7804  0.7777  1.2748
21737SOL     OW66651   2.786   1.455   7.082 -0.6737  0.5375 -0.4039
21737SOL    HW166652   2.811   1.460   7.175  1.0439 -0.2137 -0.7903
21737SOL    HW266653   2.690   1.464   7.083 -0.6387  1.3199  1.3642
21738SOL     OW66654   0.587   5.432   2.305 -0.2485  0.4976 -0.1329
21738SOL    HW166655   0.574   5.418   2.399 -0.1028  2.1105  0.1559
21738SOL    HW266656   0.680   5.413   2.291 -0.5104 -0.8487 -0.1939
21739SOL     OW66657   7.592   7.077   6.766 -0.4662 -0.1947 -0.2092
21739SOL    HW166658   7.560   7.031   6.844  1.5616  1.1800  1.5495
21739SOL    HW266659   7.549   7.162   6.769  0.4682  0.2886  0.1146
21740SOL     OW66660   4.948   5.598   1.544 -0.2206  0.1620 -0.1079
21740SOL    HW166661   4.998   5.546   1.607  0.3856 -0.7533 -1.3088
21740SOL    HW266662   5.005   5.604   1.467 -1.1247  0.8821 -0.7443
21741SOL     OW66663   1.116   4.804   5.191 -0.3896 -0.1542 -0.2955
21741SOL    HW166664   1.108   4.716   5.227  2.9830 -0.8372 -0.8936
21741SOL    HW266665   1.178   4.795   5.119 -0.4463  2.6246 -0.8105
21742SOL     OW66666   3.050   6.451   5.781 -0.6416  0.1020  0.6686
21742SOL    HW166667   2.970   6.457   5.729 -0.2601  2.0238  0.2058
21742SOL    HW266668   3.042   6.369   5.829 -3.4152  0.7577  1.4924
21743SOL     OW66669   3.862   4.577   2.707  0.1767 -0.0836  0.5066
21743SOL    HW166670   3.848   4.531   2.790  0.9648  0.0823  0.7461
21743SOL    HW266671   3.879   4.667   2.733 -1.9371  0.5127  0.0081
21744SOL     OW66672   4.473   4.275  11.368  0.1034  0.3571 -0.6196
21744SOL    HW166673   4.481   4.220  11.290 -0.5311 -1.9877  0.8665
21744SOL    HW266674   4.503   4.219  11.440 -1.5443  1.5874  1.1318
21745SOL     OW66675   7.822   0.115   1.882 -0.4645  0.1706  0.1158
21745SOL    HW166676   7.793   0.184   1.822  2.0404  0.2233 -1.1408
21745SOL    HW266677   7.778   0.036   1.850 -0.1322  0.4346 -1.0335
21746SOL     OW66678   3.007   7.816   2.163  0.0385 -0.3796  0.2689
21746SOL    HW166679   2.950   7.856   2.097 -0.4604  0.2402  1.0529
21746SOL    HW266680   3.016   7.884   2.231  0.5498 -0.9953  0.8279
21747SOL     OW66681   0.928   2.370   8.546 -0.0397 -0.0424  0.3997
21747SOL    HW166682   0.941   2.457   8.508  2.1199 -1.4132 -2.4489
21747SOL    HW266683   1.005   2.356   8.601  0.9158 -0.9887 -1.1099
21748SOL     OW66684   6.757   4.153   6.241 -0.0421 -0.3684 -0.4504
21748SOL    HW166685   6.795   4.230   6.200  0.5755 -0.3773  0.0874
21748SOL    HW266686   6.695   4.119   6.177 -0.2422  0.5169 -0.7297
21749SOL     OW66687   1.513   5.208   4.134  0.0005 -0.2056 -0.3914
21749SOL    HW166688   1.507   5.295   4.173  0.6774 -0.6339  0.7209
21749SOL    HW266689   1.426   5.170   4.146 -0.0807  0.0350 -0.2105
21750SOL     OW66690   5.254   0.979   9.429 -0.4074 -0.4222 -0.0307
21750SOL    HW166691   5.181   1.001   9.371  0.1552  0.7318 -0.3327
21750SOL    HW266692   5.267   0.885   9.417 -0.1737 -0.1843 -1.9664
21751SOL     OW66693   7.286   0.807   9.889 -0.4472  0.1665 -0.1190
21751SOL    HW166694   7.316   0.831   9.802  1.4542 -0.0392  0.4378
21751SOL    HW266695   7.335   0.727   9.911 -2.6120 -1.1607  0.2423
21752SOL     OW66696   3.183   4.723   1.731 -0.3754  0.4156  0.5014
21752SOL    HW166697   3.132   4.769   1.664 -1.6025  0.9232  1.7352
21752SOL    HW266698   3.229   4.792   1.778  2.5732 -0.1008 -1.3628
21753SOL     OW66699   4.642   1.596   9.347  0.2683 -0.1305  0.2710
21753SOL    HW166700   4.729   1.569   9.378  0.5841  2.4101  1.8564
21753SOL    HW266701   4.587   1.591   9.425 -0.4084  0.6727 -0.1505
21754SOL     OW66702   2.451   0.225   5.018  0.2992 -0.7048  0.3641
21754SOL    HW166703   2.406   0.146   5.048 -2.0576 -0.9062 -3.1421
21754SOL    HW266704   2.529   0.193   4.973  0.0441 -0.9736  0.1040
21755SOL     OW66705   1.102   0.032   8.564 -0.5976 -0.3778  0.3522
21755SOL    HW166706   1.090   0.044   8.470 -2.0485 -2.4069  0.2272
21755SOL    HW266707   1.159  -0.045   8.572 -1.8120 -1.2440  1.0974
21756SOL     OW66708   5.613   4.051   2.595 -0.0236  0.1402 -0.1726
21756SOL    HW166709   5.573   3.968   2.570  1.9691 -0.6698 -0.8711
21756SOL    HW266710   5.541   4.114   2.592 -1.4409 -1.3976 -0.3188
21757SOL     OW66711   2.984   2.719   0.963  0.0950  0.4211 -0.0247
21757SOL    HW166712   3.049   2.787   0.981  0.3929 -0.1104  0.9616
21757SOL    HW266713   3.009   2.684   0.878  1.2372  0.0812  0.4309
21758SOL     OW66714   7.747   1.013   0.649  0.1853  0.0277  0.0097
21758SOL    HW166715   7.758   1.073   0.723 -1.3282  0.5571 -0.1598
21758SOL    HW266716   7.834   0.978   0.633  1.3201  2.8489 -0.4519
21759SOL     OW66717   0.813   0.513  12.143 -0.7249 -0.1260  0.0656
21759SOL    HW166718   0.857   0.582  12.094 -0.6234 -0.3908 -0.2216
21759SOL    HW266719   0.884   0.462  12.183 -0.7900 -0.2056  0.0815
21760SOL     OW66720   6.134   5.099   4.315 -0.2149  0.7936  0.4028
21760SOL    HW166721   6.077   5.124   4.242  1.8373  0.7369 -1.3076
21760SOL    HW266722   6.126   5.004   4.319  0.5842  0.6648 -0.6019
21761SOL     OW66723   4.994   2.364   3.803  0.3335 -0.2197 -0.3451
21761SOL    HW166724   5.024   2.307   3.874  0.8355  2.0994  1.4388
21761SOL    HW266725   4.898   2.359   3.808  0.3594  0.0399  0.6350
21762SOL     OW66726   0.780   2.713   6.778  0.1195 -0.0531 -0.0526
21762SOL    HW166727   0.723   2.687   6.706  2.6990 -1.3736 -1.7421
21762SOL    HW266728   0.867   2.681   6.754  1.0472 -1.0727  3.9266
21763SOL     OW66729   6.738   0.240   6.060 -0.2775 -0.2782 -0.6367
21763SOL    HW166730   6.758   0.169   6.121 -0.1542  0.1259 -0.2010
21763SOL    HW266731   6.823   0.262   6.021 -0.2158  0.0015 -0.3555
21764SOL     OW66732   1.429   3.310   7.754 -0.2239 -0.1039 -0.4865
21764SOL    HW166733   1.482   3.388   7.773  1.0101 -0.7289 -1.2136
21764SOL    HW266734   1.488   3.237   7.767 -1.0438 -0.8616 -0.9129
21765SOL     OW66735   4.234   4.242  10.828 -0.7421  0.3948  0.4144
21765SOL    HW166736   4.176   4.258  10.754 -2.2147  0.2609  1.4927
21765SOL    HW266737   4.258   4.330  10.858 -0.1201  0.4494 -0.2154
21766SOL     OW66738   7.291   7.336   1.779 -0.0829  0.4417 -0.0100
21766SOL    HW166739   7.367   7.364   1.831 -0.0120  0.1620  0.0401
21766SOL    HW266740   7.307   7.243   1.762 -0.5114  0.3341  0.1704
21767SOL     OW66741   7.926   0.672   7.098 -0.2110  0.3704  0.3833
21767SOL    HW166742   7.976   0.643   7.022 -0.2666  0.7789  0.1854
21767SOL    HW266743   7.867   0.600   7.118  0.5012 -0.1446  0.6573
21768SOL     OW66744   7.897   7.321  11.869  0.4636 -0.0476 -0.5136
21768SOL    HW166745   7.992   7.316  11.862  0.7521  2.2373  0.6378
21768SOL    HW266746   7.872   7.389  11.806 -0.4633 -0.7852 -0.9714
21769SOL     OW66747   0.124   3.519  10.978  0.3398 -0.1772  0.0539
21769SOL    HW166748   0.132   3.529  10.883 -0.3784  0.0583  0.0131
21769SOL    HW266749   0.118   3.608  11.011 -1.3794 -0.2945  0.1314
21770SOL     OW66750   0.505   1.697   3.573 -0.5633  0.3204 -0.3797
21770SOL    HW166751   0.567   1.765   3.546  0.9804 -0.5991  0.6507
21770SOL    HW266752   0.518   1.627   3.510  0.7862 -0.5726  0.8101
21771SOL     OW66753   0.696   7.015   3.890 -0.4643 -0.1548 -0.3601
21771SOL    HW166754   0.689   6.943   3.952  0.0999 -0.9530 -1.2063
21771SOL    HW266755   0.744   6.979   3.816 -0.2915  1.0514 -0.8609
21772SOL     OW66756   2.168   7.689  10.438  0.7601 -0.1824 -0.7037
21772SOL    HW166757   2.218   7.627  10.491  0.0209 -0.8873 -0.7986
21772SOL    HW266758   2.115   7.634  10.380  0.3599  0.5469 -1.0525
21773SOL     OW66759   2.036   6.274   8.949  0.8218  0.2958  0.1232
21773SOL    HW166760   2.017   6.180   8.946  2.1584  0.0265 -0.2777
21773SOL    HW266761   2.001   6.309   8.867  1.6636 -0.1267 -0.4272
21774SOL     OW66762   0.446   4.259   2.501  0.3565 -0.8285  0.0950
21774SOL    HW166763   0.377   4.198   2.527 -0.2570 -0.9459 -1.6599
21774SOL    HW266764   0.526   4.208   2.508 -0.0277 -1.4946 -0.2367
21775SOL     OW66765   1.112   3.522   2.975  0.0749  0.2231 -0.4712
21775SOL    HW166766   1.107   3.603   2.923 -0.8381 -0.2711 -1.2032
21775SOL    HW266767   1.116   3.552   3.066  1.4109  1.1070 -0.7979
21776SOL     OW66768   7.875   0.590   8.448  0.4624  0.2555  0.1431
21776SOL    HW166769   7.827   0.638   8.380  1.6690  1.3338  0.0131
21776SOL    HW266770   7.825   0.604   8.528 -1.9821 -2.4901 -0.7338
21777SOL     OW66771   4.149   0.745   8.847  0.4305 -0.1252  0.0131
21777SOL    HW166772   4.100   0.726   8.927  1.9981 -0.5192  0.9141
21777SOL    HW266773   4.098   0.813   8.803 -0.6867 -0.2201  1.1174
21778SOL     OW66774   5.185   5.837   3.495 -0.2296  0.6949 -0.2655
21778SOL    HW166775   5.145   5.828   3.581  2.1401 -0.4549  0.8197
21778SOL    HW266776   5.212   5.928   3.489 -0.1224  0.7011  0.3457
21779SOL     OW66777   1.243   1.518   5.620  0.4207 -0.0338  0.2115
21779SOL    HW166778   1.186   1.511   5.697  0.5956 -0.6877  0.2827
21779SOL    HW266779   1.249   1.429   5.586 -0.0059  0.3243 -0.8256
21780SOL     OW66780   5.234   7.190   5.601 -0.1992  0.1079  0.1425
21780SOL    HW166781   5.215   7.221   5.513 -1.7476 -0.1859  0.3486
21780SOL    HW266782   5.305   7.246   5.632  2.0329 -1.2730 -2.1179
21781SOL     OW66783   3.682   6.038   6.862 -0.2351  0.1629  0.2884
21781SOL    HW166784   3.703   5.950   6.894 -1.3083 -0.5935 -0.9588
21781SOL    HW266785   3.723   6.097   6.925 -0.2486 -1.2290  1.6711
21782SOL     OW66786   1.170   6.636   5.225  0.6819 -0.4183  0.1943
21782SOL    HW166787   1.218   6.682   5.294 -0.5841 -1.0159  1.5365
21782SOL    HW266788   1.093   6.691   5.210 -0.4208 -1.6097  1.2290
21783SOL     OW66789   0.052   6.120   8.457 -0.2539  0.4111  0.3910
21783SOL    HW166790   0.020   6.064   8.527  1.7313 -0.9351  0.2893
21783SOL    HW266791   0.040   6.068   8.377  1.5510  0.1061  0.2848
21784SOL     OW66792   7.108   6.615   6.497 -0.4214  0.2750  0.4616
21784SOL    HW166793   7.176   6.579   6.440 -0.8244 -0.7920  0.6377
21784SOL    HW266794   7.054   6.669   6.439 -1.6367 -1.8756 -0.5185
21785SOL     OW66795   5.528   4.891  10.208 -0.5553 -0.0839 -0.1713
21785SOL    HW166796   5.446   4.916  10.251 -0.3014 -0.4294  0.5346
21785SOL    HW266797   5.523   4.932  10.121 -1.3345  0.1529 -0.0273
21786SOL     OW66798   2.077   3.769   0.808  0.6379  0.4749  0.3012
21786SOL    HW166799   2.000   3.787   0.754  0.2123  0.4200  0.8720
21786SOL    HW266800   2.081   3.674   0.813  1.2818  0.4518 -0.4680
21787SOL     OW66801   5.025   6.604   4.740 -0.0644 -0.3157 -0.2123
21787SOL    HW166802   4.941   6.605   4.784  0.3771  1.1349  0.6591
21787SOL    HW266803   5.082   6.553   4.797 -0.3146 -1.2314 -0.7634
21788SOL     OW66804   3.094   3.080   0.798 -0.0019  0.1851  0.0874
21788SOL    HW166805   3.129   3.166   0.773 -1.6140  0.4724 -1.3467
21788SOL    HW266806   3.021   3.100   0.857 -0.2040 -0.2063 -0.0261
21789SOL     OW66807   3.549   2.068   4.876  0.2576  0.4940  0.9870
21789SOL    HW166808   3.586   2.144   4.832  0.3037  0.3150  0.7128
21789SOL    HW266809   3.615   2.000   4.867 -1.1866 -0.7000 -1.9489
21790SOL     OW66810   0.441   6.737   8.699  0.0589  0.4680  0.7333
21790SOL    HW166811   0.483   6.712   8.617 -0.1205  4.1848 -0.6651
21790SOL    HW266812   0.359   6.689   8.699  0.3646 -0.1213 -0.9404
21791SOL     OW66813   5.380   0.879   6.681 -0.1622 -0.4821 -0.0362
21791SOL    HW166814   5.335   0.864   6.598 -0.8119 -1.1994  0.4298
21791SOL    HW266815   5.327   0.946   6.725  0.5976  0.4450 -0.4999
21792SOL     OW66816   6.025   5.732   8.423  0.2257 -0.3446  0.2700
21792SOL    HW166817   6.056   5.813   8.463 -1.7416  1.1154 -0.9515
21792SOL    HW266818   6.102   5.695   8.379  1.0914  1.0681  0.5417
21793SOL     OW66819   4.378   1.128   3.783 -0.0855 -0.1807 -0.7100
21793SOL    HW166820   4.327   1.149   3.705 -2.3314  0.1869  0.7643
21793SOL    HW266821   4.395   1.212   3.824 -1.0688 -0.5238  0.4437
21794SOL     OW66822   1.212   4.107   5.640  0.0692 -0.5248 -0.2514
21794SOL    HW166823   1.139   4.052   5.669 -0.2825  0.2298  0.3132
21794SOL    HW266824   1.199   4.190   5.685  0.8721 -0.1365 -0.7196
21795SOL     OW66825   4.245   7.267   5.338  0.3195 -0.3639 -0.2893
21795SOL    HW166826   4.339   7.275   5.322  0.2081  0.1332 -0.7231
21795SOL    HW266827   4.214   7.206   5.271  0.6640 -2.1844  1.1423
21796SOL     OW66828   3.209   6.855  12.147  0.1896 -0.2989  0.0389
21796SOL    HW166829   3.236   6.946  12.135  0.9036 -0.4596  0.4147
21796SOL    HW266830   3.127   6.861  12.196  0.7633  0.1138  0.9738
21797SOL     OW66831   4.737   7.535  11.208 -0.4279  0.1800  0.2823
21797SOL    HW166832   4.786   7.456  11.185 -1.9727 -1.1734  1.3472
21797SOL    HW266833   4.797   7.607  11.191  1.2303 -1.2636 -0.2311
21798SOL     OW66834   2.217   2.407   7.432  0.1935 -0.4028 -0.4145
21798SOL    HW166835   2.174   2.467   7.493 -0.5150 -1.4965  0.2095
21798SOL    HW266836   2.147   2.379   7.373  0.4406 -0.8136 -0.5184
21799SOL     OW66837   7.733   0.344   1.754 -0.2138  0.6404  0.5749
21799SOL    HW166838   7.817   0.369   1.716  0.0436 -0.1188  0.6170
21799SOL    HW266839   7.668   0.392   1.703  0.1232 -0.2404 -0.7445
21800SOL     OW66840   1.061   3.171   0.368  0.5803  0.0531 -0.1456
21800SOL    HW166841   1.054   3.177   0.272 -3.1916  0.1969 -0.0143
21800SOL    HW266842   1.091   3.258   0.395 -1.1638  1.0172 -1.1143
21801SOL     OW66843   2.703   1.650   8.820 -0.4229  0.7084  0.3357
21801SOL    HW166844   2.778   1.703   8.791  1.0061 -0.8413  0.9929
21801SOL    HW266845   2.694   1.583   8.752 -0.5014  0.2560  0.7816
21802SOL     OW66846   1.081   0.644   3.219 -0.8054 -0.4566 -0.1853
21802SOL    HW166847   1.048   0.554   3.221 -0.9192 -0.4738 -1.6204
21802SOL    HW266848   1.011   0.695   3.259 -1.1476 -0.8980 -0.2045
21803SOL     OW66849   4.485   2.635   1.044  0.5440  0.3334 -0.0987
21803SOL    HW166850   4.530   2.588   1.114 -1.2164 -0.8638  0.2855
21803SOL    HW266851   4.488   2.575   0.969 -0.3584  0.2626 -0.0832
21804SOL     OW66852   2.599   3.664   0.602  0.0440 -0.1115 -0.1026
21804SOL    HW166853   2.535   3.628   0.663 -0.3865  0.2544 -0.3273
21804SOL    HW266854   2.573   3.630   0.517  1.1084 -1.2487  0.0131
21805SOL     OW66855   5.448   2.083   8.498 -0.4663  0.8072 -0.0048
21805SOL    HW166856   5.434   2.169   8.537 -1.9785  0.3795  0.4777
21805SOL    HW266857   5.365   2.038   8.510  0.1707 -0.5857 -0.6137
21806SOL     OW66858   3.911   4.204   0.567 -0.3629  0.4104 -0.3273
21806SOL    HW166859   3.844   4.137   0.584  0.5009 -0.0433  1.6220
21806SOL    HW266860   3.882   4.247   0.486 -2.9877  0.2030  0.3880
21807SOL     OW66861   3.593   6.038   0.645  0.4005  0.6684  0.2106
21807SOL    HW166862   3.513   6.070   0.604 -0.2754  0.1049  1.0411
21807SOL    HW266863   3.575   5.946   0.664 -0.0960  1.2967  3.4195
21808SOL     OW66864   6.586   1.434   4.063  0.3577 -0.1431  0.1233
21808SOL    HW166865   6.634   1.447   4.145 -0.0592  0.9682  0.2087
21808SOL    HW266866   6.630   1.491   4.000  0.2252 -0.4322 -0.2307
21809SOL     OW66867   6.675   6.836   5.531 -0.4789  0.1136  0.0916
21809SOL    HW166868   6.716   6.907   5.483 -0.6826 -0.1513 -0.4839
21809SOL    HW266869   6.586   6.830   5.494 -0.9324  0.4638  1.0900
21810SOL     OW66870   0.568   2.787   6.927  0.1064 -0.7148  0.2961
21810SOL    HW166871   0.576   2.807   7.020 -0.8575  1.4165 -0.0279
21810SOL    HW266872   0.655   2.757   6.901  0.9192  0.5148  1.4892
21811SOL     OW66873   7.033   5.898   0.295  0.1247 -0.3548  0.1608
21811SOL    HW166874   7.054   5.850   0.375  1.5864 -0.0507 -0.0123
21811SOL    HW266875   7.086   5.978   0.301 -1.0510  0.4871 -0.3170
21812SOL     OW66876   1.506   6.769   3.355 -0.4640 -0.0957  0.1921
21812SOL    HW166877   1.584   6.716   3.370 -1.6049 -2.9156 -2.5929
21812SOL    HW266878   1.445   6.742   3.423  0.6821  1.7500  2.0693
21813SOL     OW66879   7.312   7.521   4.616  0.1473 -0.0420 -0.1336
21813SOL    HW166880   7.397   7.515   4.572 -0.6370 -1.1272 -1.5802
21813SOL    HW266881   7.250   7.544   4.547 -1.4023 -3.3744 -0.0356
21814SOL     OW66882   6.281   6.396   5.364 -0.2001 -0.0896  0.0942
21814SOL    HW166883   6.305   6.471   5.417  0.7969 -0.3369  0.0077
21814SOL    HW266884   6.326   6.408   5.281 -1.1236 -0.1024 -0.4281
21815SOL     OW66885   7.942   1.626   4.894 -0.5953 -0.3591 -0.6823
21815SOL    HW166886   7.908   1.561   4.833 -2.2734  0.7566 -0.9867
21815SOL    HW266887   7.918   1.710   4.857  0.4815  0.4290  0.3158
21816SOL     OW66888   3.199   6.489  11.529  0.5729  0.3050  0.6371
21816SOL    HW166889   3.140   6.420  11.560  0.9070 -0.2972 -0.0319
21816SOL    HW266890   3.141   6.563  11.509  0.3568  0.7462  2.7242
21817SOL     OW66891   7.019   1.791   7.481 -0.2348 -0.6001  0.5989
21817SOL    HW166892   6.952   1.855   7.504  0.2321  0.5424 -1.0164
21817SOL    HW266893   6.970   1.713   7.454 -1.1788  0.9441 -2.7879
21818SOL     OW66894   5.217   3.647  10.610  0.3026 -0.3484  0.2477
21818SOL    HW166895   5.127   3.675  10.627  0.3050 -0.9541  1.3480
21818SOL    HW266896   5.268   3.728  10.612 -0.1275 -0.0748  0.2736
21819SOL     OW66897   3.360   4.109   0.838 -0.2005 -0.3441 -0.0655
21819SOL    HW166898   3.446   4.150   0.849 -0.6429  0.2125  1.5967
21819SOL    HW266899   3.301   4.183   0.824 -0.6261 -0.6045  0.3357
21820SOL     OW66900   1.151   6.127  11.572  0.3042 -0.6031 -0.6742
21820SOL    HW166901   1.207   6.204  11.569 -0.6612  0.0824 -1.9139
21820SOL    HW266902   1.065   6.159  11.545 -0.5986 -1.7122  0.7530
21821SOL     OW66903   5.866   3.445  12.110  0.0443  0.2027  1.0463
21821SOL    HW166904   5.899   3.519  12.161  0.6534  0.9911 -0.4225
21821SOL    HW266905   5.935   3.378  12.119  0.6704  0.7419  0.4058
21822SOL     OW66906   1.239   5.896   7.781  0.5524  0.5288  0.2055
21822SOL    HW166907   1.194   5.847   7.850  1.0211 -0.2027 -0.0028
21822SOL    HW266908   1.238   5.837   7.706  2.1805  0.3483  0.3062
21823SOL     OW66909   0.677   0.417  10.498  0.2289  0.1244 -0.3100
21823SOL    HW166910   0.735   0.379  10.564  1.7547  2.4271 -0.1780
21823SOL    HW266911   0.710   0.384  10.415  0.1575 -0.5106 -0.0871
21824SOL     OW66912   0.192   7.117   4.560  0.2938 -0.3693  0.3578
21824SOL    HW166913   0.167   7.047   4.619  0.6110  0.5868  1.6795
21824SOL    HW266914   0.116   7.176   4.558  1.3739  1.2594  2.4350
21825SOL     OW66915   6.726   3.736   3.027 -0.3250 -0.0217  0.2979
21825SOL    HW166916   6.793   3.748   2.960  0.4653 -0.7158  0.9418
21825SOL    HW266917   6.756   3.789   3.101 -0.9619  0.3843  0.2708
21826SOL     OW66918   6.393   2.095   9.400  0.0192 -0.6837  0.3433
21826SOL    HW166919   6.388   2.170   9.341 -0.0559 -1.3870 -0.5807
21826SOL    HW266920   6.475   2.051   9.376  0.0963 -0.8596  0.9165
21827SOL     OW66921   1.444   2.292   9.333  0.7512  0.2030 -0.6771
21827SOL    HW166922   1.517   2.319   9.277 -1.1277 -0.3763 -3.6337
21827SOL    HW266923   1.437   2.197   9.320  0.0609  0.0903  0.3511
21828SOL     OW66924   4.215   5.935   7.730  0.5003 -0.2579  0.1779
21828SOL    HW166925   4.154   5.897   7.666  0.9113 -0.0945 -0.3188
21828SOL    HW266926   4.276   5.987   7.677 -0.0764  1.1475  0.8392
21829SOL     OW66927   3.237   7.402  11.878  0.4061 -0.3841  0.1195
21829SOL    HW166928   3.175   7.332  11.901  1.0786 -1.1757 -0.4016
21829SOL    HW266929   3.302   7.359  11.822 -0.2324  1.0595 -1.8695
21830SOL     OW66930   1.396   2.677   9.647 -0.2516  0.0925 -0.0121
21830SOL    HW166931   1.486   2.651   9.669 -0.5618  0.3688  1.7538
21830SOL    HW266932   1.375   2.625   9.569  1.1158 -0.6725  0.0867
21831SOL     OW66933   5.941   1.805  10.586  0.2222  0.2632  0.3413
21831SOL    HW166934   6.026   1.774  10.553 -0.6198 -1.4497 -0.3236
21831SOL    HW266935   5.882   1.797  10.511 -1.0015 -0.6288  1.3503
21832SOL     OW66936   6.485   5.886   9.133  0.8355 -0.1270 -0.4312
21832SOL    HW166937   6.480   5.807   9.079 -1.2072  0.0337 -0.5591
21832SOL    HW266938   6.485   5.958   9.069 -0.6041  0.0352 -0.2770
21833SOL     OW66939   4.343   2.114   9.163  0.5252 -0.3347 -0.3366
21833SOL    HW166940   4.278   2.054   9.200 -0.1418  0.4164 -0.2567
21833SOL    HW266941   4.293   2.194   9.144  1.5343  0.4733  0.2867
21834SOL     OW66942   4.672   2.394   2.176  0.0056  0.0142  0.4362
21834SOL    HW166943   4.689   2.473   2.125  0.5196 -0.1969  0.2721
21834SOL    HW266944   4.620   2.338   2.118  1.5917 -0.7283 -0.3457
21835SOL     OW66945   1.807   2.519   4.462  1.0017  0.4173 -0.1018
21835SOL    HW166946   1.781   2.436   4.423 -0.3107  0.5817  0.3782
21835SOL    HW266947   1.815   2.579   4.388 -1.0280  0.6105 -0.2303
21836SOL     OW66948   0.971   6.630  10.730 -0.7080  0.5247  0.2617
21836SOL    HW166949   0.972   6.680  10.812 -1.1098 -0.1433  0.6961
21836SOL    HW266950   0.878   6.609  10.717 -0.5164 -0.3303  0.2393
21837SOL     OW66951   3.612   0.841   1.840  0.0539 -0.0877 -0.2912
21837SOL    HW166952   3.686   0.795   1.880  0.1544 -0.5566 -1.0159
21837SOL    HW266953   3.539   0.780   1.847 -0.4028  0.5466  0.8341
21838SOL     OW66954   3.116   1.034  11.407 -0.8469  0.1452  0.0384
21838SOL    HW166955   3.048   1.098  11.427 -0.0919  0.4629  1.7527
21838SOL    HW266956   3.105   0.966  11.473  0.7093  0.3975  0.6130
21839SOL     OW66957   2.179   3.680   8.292 -0.3237 -0.2271 -0.6686
21839SOL    HW166958   2.125   3.678   8.213 -0.2643  1.7543 -0.8020
21839SOL    HW266959   2.181   3.772   8.318  0.5207 -0.6851  1.0617
21840SOL     OW66960   7.499   4.478   1.678 -0.4638  0.2005 -0.1480
21840SOL    HW166961   7.406   4.493   1.694 -0.3697 -0.2818  0.9541
21840SOL    HW266962   7.533   4.449   1.763  0.7817  0.8125 -0.4232
21841SOL     OW66963   5.327   5.101   7.994  0.1396 -0.0930 -0.2875
21841SOL    HW166964   5.342   5.140   8.081  1.3725  0.0318 -0.5308
21841SOL    HW266965   5.406   5.122   7.945  0.8870 -2.8494 -0.4381
21842SOL     OW66966   7.060   1.586   1.668 -0.1387 -0.2328 -0.7306
21842SOL    HW166967   7.115   1.655   1.705 -0.4644 -1.2417  1.8409
21842SOL    HW266968   6.991   1.633   1.620 -0.0173  1.2039  0.4477
21843SOL     OW66969   2.982   0.353  10.185 -0.3498  0.0207 -0.0075
21843SOL    HW166970   2.954   0.370  10.275  0.8084  0.8308  0.2222
21843SOL    HW266971   2.960   0.260  10.171 -0.8865 -0.0169  0.9717
21844SOL     OW66972   0.367   1.574   7.355  0.4393 -0.0382  0.1750
21844SOL    HW166973   0.280   1.594   7.321 -0.2671 -0.8636  1.4469
21844SOL    HW266974   0.415   1.656   7.346 -0.5935  0.5510 -0.1382
21845SOL     OW66975   5.434   3.490   0.625  0.1551  0.3750 -0.3455
21845SOL    HW166976   5.445   3.517   0.716 -1.4785 -0.9658  0.3210
21845SOL    HW266977   5.513   3.520   0.580 -0.2450  3.5654  0.8755
21846SOL     OW66978   4.278   6.762  10.854  0.6155 -0.4012  0.0419
21846SOL    HW166979   4.210   6.770  10.787 -0.4993 -3.3189  0.7047
21846SOL    HW266980   4.353   6.724  10.807  0.5542 -0.5017  0.0246
21847SOL     OW66981   4.930   4.830   6.128 -0.3847 -0.2163  0.4160
21847SOL    HW166982   4.922   4.806   6.221  1.2434 -0.2482  0.5686
21847SOL    HW266983   4.999   4.773   6.095 -0.4836  0.2770 -0.6558
21848SOL     OW66984   4.585   7.367   3.208 -0.7721 -0.5360 -0.3305
21848SOL    HW166985   4.667   7.371   3.160  0.1913  0.5651  1.3158
21848SOL    HW266986   4.541   7.450   3.189 -0.0833  0.2013  1.1154
21849SOL     OW66987   2.235   6.734  11.731 -0.1878 -0.7363  0.3876
21849SOL    HW166988   2.199   6.796  11.668  0.3237 -0.5518  0.2717
21849SOL    HW266989   2.326   6.761  11.743  0.2879 -1.9486 -0.2926
21850SOL     OW66990   2.417   5.153   5.418 -0.0154 -0.2353 -0.4636
21850SOL    HW166991   2.365   5.130   5.341  0.5587 -0.1369 -0.8894
21850SOL    HW266992   2.361   5.130   5.492 -0.3522 -0.8610 -0.8998
21851SOL     OW66993   7.839   7.806   1.246  0.1018  0.1606  0.3186
21851SOL    HW166994   7.828   7.740   1.315 -0.8811 -0.5132 -0.4580
21851SOL    HW266995   7.751   7.819   1.211  0.5082  0.8639 -0.4752
21852SOL     OW66996   6.263   2.313   1.311 -0.1395  0.3107 -0.3909
21852SOL    HW166997   6.172   2.343   1.317 -0.5694 -0.8585 -0.7791
21852SOL    HW266998   6.306   2.352   1.387 -1.5509 -1.0387  1.1897
21853SOL     OW66999   5.633   3.024   9.664 -0.3247  0.0346 -0.0218
21853SOL    HW167000   5.567   3.087   9.635 -0.0647  0.2041 -0.2492
21853SOL    HW267001   5.677   2.997   9.583 -1.7639 -1.9829 -0.2219
21854SOL     OW67002   7.735   4.899   8.107 -0.4102 -0.3900  0.2643
21854SOL    HW167003   7.760   4.867   8.021 -1.2683  1.0526 -0.5595
21854SOL    HW267004   7.650   4.859   8.124  0.5980 -2.2195  1.3559
21855SOL     OW67005   3.834   5.244   7.604 -0.0673 -0.0470 -0.2369
21855SOL    HW167006   3.832   5.278   7.515  0.0349  2.6901  0.7203
21855SOL    HW267007   3.927   5.241   7.627 -0.0317 -1.6144 -0.4838
21856SOL     OW67008   2.038   0.126   5.025  0.1375  0.1066 -0.2102
21856SOL    HW167009   2.098   0.051   5.036  0.7025  0.7427  1.3607
21856SOL    HW267010   2.037   0.142   4.931  2.0269 -0.2877 -0.3459
21857SOL     OW67011   3.154   3.195   4.725 -0.0638 -0.3243  0.1373
21857SOL    HW167012   3.138   3.212   4.632 -3.0107  3.1038  1.0790
21857SOL    HW267013   3.250   3.193   4.733  0.2830  0.0281 -2.8123
21858SOL     OW67014   7.845   5.136   8.258 -0.0656 -0.0551  0.0861
21858SOL    HW167015   7.791   5.206   8.295  0.0806  0.2544 -0.2763
21858SOL    HW267016   7.782   5.068   8.232 -0.0839 -0.8926  2.1338
21859SOL     OW67017   1.707   3.774   3.889 -0.1249  0.0431  0.4866
21859SOL    HW167018   1.707   3.826   3.970  0.5687  2.3542 -0.8834
21859SOL    HW267019   1.615   3.768   3.864 -0.3617 -0.8346  1.4862
21860SOL     OW67020   1.594   7.943   1.039  0.0258 -0.7208  0.0512
21860SOL    HW167021   1.645   8.004   0.987  1.8949 -0.1666  2.3258
21860SOL    HW267022   1.508   7.985   1.048 -0.2856 -0.7434 -2.2747
21861SOL     OW67023   3.334   1.538   1.706  0.3830  0.3846 -0.0415
21861SOL    HW167024   3.253   1.489   1.692  0.6620  0.1926 -1.0401
21861SOL    HW267025   3.348   1.534   1.801 -0.0728 -0.7095 -0.0068
21862SOL     OW67026   7.776   5.614   2.965  0.2338  0.2752 -0.2894
21862SOL    HW167027   7.858   5.650   2.929  1.4677 -0.1697  1.9163
21862SOL    HW267028   7.746   5.681   3.026  1.2614 -1.2928  2.0573
21863SOL     OW67029   5.988   6.742   4.151  0.0828  0.2649  0.3010
21863SOL    HW167030   6.040   6.810   4.107 -1.6689  1.1475 -0.5167
21863SOL    HW267031   5.957   6.686   4.080 -0.5513  0.0935  0.7052
21864SOL     OW67032   0.237   0.058   0.982  0.0415 -0.1179  0.3788
21864SOL    HW167033   0.302   0.069   0.913 -0.6440  1.4466 -0.0716
21864SOL    HW267034   0.214   0.148   1.008 -0.9837 -0.6556  1.4287
21865SOL     OW67035   2.953   7.105  11.125 -0.1337  0.6112 -0.3525
21865SOL    HW167036   2.884   7.161  11.089 -1.8120 -0.2683  1.2748
21865SOL    HW267037   2.910   7.020  11.137  0.8461  0.3801  1.9021
21866SOL     OW67038   4.253   5.153   1.255  0.1589 -0.3539  0.1371
21866SOL    HW167039   4.295   5.149   1.340  1.6097 -0.4605 -0.5594
21866SOL    HW267040   4.305   5.095   1.199  1.0625  1.9306 -1.5548
21867SOL     OW67041   3.480   0.412   3.056  0.1266 -0.2852  0.0740
21867SOL    HW167042   3.530   0.342   3.014 -0.7620 -1.0777  0.3251
21867SOL    HW267043   3.476   0.387   3.148 -0.7935 -0.2774  0.0458
21868SOL     OW67044   6.143   4.363   1.232 -0.3500  0.3134 -0.3738
21868SOL    HW167045   6.175   4.448   1.201  0.1384 -0.4540 -2.0722
21868SOL    HW267046   6.207   4.336   1.297 -0.5275  1.2345  0.2167
21869SOL     OW67047   7.430   3.776   8.859 -0.1102  0.3816  0.1857
21869SOL    HW167048   7.390   3.714   8.920 -2.4013  1.2789 -0.3113
21869SOL    HW267049   7.412   3.740   8.772 -1.8275  1.8338 -0.1295
21870SOL     OW67050   6.744   4.963   3.125 -0.3950 -0.4500  0.1539
21870SOL    HW167051   6.717   5.055   3.131 -0.0538 -0.4033  1.1167
21870SOL    HW267052   6.720   4.926   3.210  0.1413 -1.0723  0.0362
21871SOL     OW67053   3.667   1.703   9.462  0.2834  0.0858  0.1769
21871SOL    HW167054   3.595   1.763   9.480 -0.5930 -0.7877 -0.3522
21871SOL    HW267055   3.668   1.693   9.367  1.3496  0.3745  0.1428
21872SOL     OW67056   3.039   0.531   6.803 -0.0034  0.0479  0.1852
21872SOL    HW167057   3.015   0.622   6.823 -2.0584 -0.8510  2.4007
21872SOL    HW267058   2.961   0.481   6.827  1.3767 -2.3975 -0.1638
21873SOL     OW67059   1.845   4.824   8.975  0.1563 -0.0040  0.0627
21873SOL    HW167060   1.890   4.754   8.927  0.2997  0.2940 -0.2392
21873SOL    HW267061   1.911   4.892   8.987  0.0009  0.1062  0.3027
21874SOL     OW67062   6.414   6.620   8.965 -0.2051  0.0478 -0.2029
21874SOL    HW167063   6.458   6.698   8.930 -0.9610  0.0052 -1.3011
21874SOL    HW267064   6.321   6.640   8.957 -0.4068 -0.4656  0.7062
21875SOL     OW67065   2.560   1.131  11.003 -0.8237  0.1758 -0.3754
21875SOL    HW167066   2.579   1.222  10.981 -0.3569  0.4295  1.0083
21875SOL    HW267067   2.518   1.134  11.089  1.1964 -1.0280  0.7501
21876SOL     OW67068   3.848   2.418   7.239  0.4352  0.0298  0.4063
21876SOL    HW167069   3.814   2.507   7.230  1.3476  0.6361  2.4022
21876SOL    HW267070   3.860   2.388   7.149  0.5311  2.0896 -0.3287
21877SOL     OW67071   1.851   6.610   6.760  0.0326 -0.2274  0.4859
21877SOL    HW167072   1.867   6.664   6.838 -0.3617  0.4562  0.1074
21877SOL    HW267073   1.792   6.541   6.790  0.1709 -0.1812  0.8730
21878SOL     OW67074   3.862   6.886   1.758 -0.7213  0.4192  0.1784
21878SOL    HW167075   3.806   6.884   1.836  0.9014  0.1824  1.3710
21878SOL    HW267076   3.920   6.811   1.768  0.3896  1.1461 -0.6189
21879SOL     OW67077   6.965   1.069   9.610 -0.5698 -0.0613  0.4763
21879SOL    HW167078   7.035   1.050   9.672  1.5425  0.8628 -1.4735
21879SOL    HW267079   6.949   1.163   9.620  0.9483  0.4633 -1.3620
21880SOL     OW67080   4.217   0.917   8.499 -0.0239  0.0379 -0.0111
21880SOL    HW167081   4.258   0.833   8.521 -1.1134 -0.2683  0.9682
21880SOL    HW267082   4.286   0.982   8.511 -0.2051 -0.2481  3.3320
21881SOL     OW67083   0.960   2.004   7.988  0.2223 -0.0089 -0.3030
21881SOL    HW167084   1.030   2.003   7.923 -0.8231 -1.3040 -1.4692
21881SOL    HW267085   0.913   2.085   7.972  1.2651  0.7493  0.3269
21882SOL     OW67086   7.983   6.877   5.044 -0.4618 -0.0262  0.0728
21882SOL    HW167087   7.970   6.782   5.039 -2.3857  0.1086  1.6208
21882SOL    HW267088   7.919   6.913   4.982  0.6737  0.2903 -0.9629
21883SOL     OW67089   7.073   3.889   3.574 -0.2552 -0.1204  0.0642
21883SOL    HW167090   6.983   3.900   3.544 -0.8136  1.0071  1.9882
21883SOL    HW267091   7.107   3.978   3.583  0.9163 -0.5212 -0.2309
21884SOL     OW67092   6.902   6.198   2.765  0.0426  0.2234 -0.1536
21884SOL    HW167093   6.814   6.161   2.761 -0.4904  1.5287 -1.3972
21884SOL    HW267094   6.901   6.254   2.843 -0.0456 -0.1755  0.1367
21885SOL     OW67095   4.309   7.291   9.193 -0.0093 -0.2989 -0.3798
21885SOL    HW167096   4.377   7.236   9.157  0.5272 -0.3319  0.6462
21885SOL    HW267097   4.353   7.342   9.261 -0.6479  0.8720 -0.8170
21886SOL     OW67098   0.223   1.443  11.583 -0.2421  0.7700 -0.6796
21886SOL    HW167099   0.157   1.485  11.527 -0.7050  0.9749  0.0163
21886SOL    HW267100   0.185   1.444  11.670  0.5206  0.5332 -0.3373
21887SOL     OW67101   7.587   6.562   8.885  0.0750  0.1460  0.0504
21887SOL    HW167102   7.643   6.500   8.838 -0.0494  0.9241 -1.1628
21887SOL    HW267103   7.649   6.617   8.933  0.2334 -0.2724  0.3361
21888SOL     OW67104   2.217   6.525   6.268 -0.1782 -0.2348  0.4097
21888SOL    HW167105   2.277   6.457   6.237 -0.5813 -0.9992  1.2566
21888SOL    HW267106   2.180   6.562   6.188  0.8453 -0.2676 -0.0984
21889SOL     OW67107   2.332   1.965   5.815 -0.1113 -0.3598  0.0351
21889SOL    HW167108   2.412   1.975   5.865 -1.0433 -0.0693  1.5361
21889SOL    HW267109   2.308   2.054   5.789 -0.1029 -0.4174 -0.1743
21890SOL     OW67110   6.929   4.725   6.205 -0.5538 -0.6996 -0.4018
21890SOL    HW167111   6.948   4.758   6.292 -2.8557 -2.5952  0.9471
21890SOL    HW267112   6.942   4.800   6.147 -0.4613  1.0469  1.7587
21891SOL     OW67113   1.879   3.432   6.312 -0.6607 -0.3486  0.3420
21891SOL    HW167114   1.802   3.410   6.258 -0.8930  0.6537  0.2436
21891SOL    HW267115   1.950   3.443   6.249 -0.1653 -2.2482  0.5034
21892SOL     OW67116   6.198   2.372   0.178 -0.9751 -0.3315  0.3020
21892SOL    HW167117   6.198   2.441   0.113  0.7251 -1.0140 -0.4797
21892SOL    HW267118   6.272   2.392   0.235 -0.0241 -1.8087 -0.3330
21893SOL     OW67119   2.149   1.188   6.290 -0.2744 -0.2760  0.3817
21893SOL    HW167120   2.073   1.168   6.344 -1.3986  1.0978 -0.6079
21893SOL    HW267121   2.123   1.264   6.239  1.0269 -1.0246 -1.5202
21894SOL     OW67122   7.244   4.606   1.195 -0.1740  0.0915 -0.5343
21894SOL    HW167123   7.158   4.566   1.205  0.3084 -0.8912 -0.1863
21894SOL    HW267124   7.229   4.679   1.134 -1.3691  0.3613  0.0480
21895SOL     OW67125   7.740   6.994   9.732  0.4916 -0.4027  0.4199
21895SOL    HW167126   7.835   6.990   9.717  0.5400  1.6133 -0.0987
21895SOL    HW267127   7.702   6.945   9.659  1.0973  0.5260 -0.5512
21896SOL     OW67128   3.597   7.549   0.259 -0.2769 -0.2746  0.7884
21896SOL    HW167129   3.537   7.587   0.195 -1.1212 -0.0708  1.6735
21896SOL    HW267130   3.621   7.623   0.316 -1.6549 -0.9285  2.3067
21897SOL     OW67131   5.728   0.441   4.315 -0.2322  0.1857 -0.1972
21897SOL    HW167132   5.783   0.517   4.333 -1.2955  0.9039  0.1319
21897SOL    HW267133   5.789   0.373   4.286  0.7152  1.2189 -0.6807
21898SOL     OW67134   5.102   0.200   4.562 -0.2274 -0.0765  0.0779
21898SOL    HW167135   5.113   0.295   4.552 -0.9096  0.0878  0.7957
21898SOL    HW267136   5.027   0.179   4.506 -0.2520 -0.1382  0.1333
21899SOL     OW67137   5.598   1.969  11.865  0.4325 -0.0720 -0.3447
21899SOL    HW167138   5.581   2.054  11.906  0.3377  1.0674 -2.5770
21899SOL    HW267139   5.516   1.946  11.822  1.1041 -0.1164 -1.6774
21900SOL     OW67140   5.660   0.089   2.281  0.1417  0.4783  0.2881
21900SOL    HW167141   5.650   0.023   2.350 -0.8151 -0.0106 -0.3015
21900SOL    HW267142   5.667   0.038   2.200 -0.1005  1.0888 -0.1215
21901SOL     OW67143   4.116   4.107   8.625 -0.0890 -0.1125 -0.1290
21901SOL    HW167144   4.174   4.074   8.556  1.6391  1.0604  0.6959
21901SOL    HW267145   4.057   4.167   8.580 -0.4661 -1.0552 -0.9278
21902SOL     OW67146   2.480   4.490   5.066  0.2265  0.4229 -0.2533
21902SOL    HW167147   2.463   4.573   5.019 -1.3074  0.3429  0.1089
21902SOL    HW267148   2.412   4.487   5.134  0.5577 -0.9139  0.0330
21903SOL     OW67149   2.874   4.446   2.956 -0.2513  0.4159  0.3870
21903SOL    HW167150   2.902   4.376   3.015 -0.5648  0.5521  0.7007
21903SOL    HW267151   2.859   4.402   2.872 -2.5785 -0.3114  1.1184
21904SOL     OW67152   7.195   3.734   2.763  0.1449  0.1898  0.3679
21904SOL    HW167153   7.195   3.645   2.728  0.2895 -0.4480  1.8824
21904SOL    HW267154   7.274   3.775   2.728  0.6989 -0.6784  0.5833
21905SOL     OW67155   1.999   4.076   2.223 -0.3215  0.4640 -0.1921
21905SOL    HW167156   2.090   4.102   2.238  0.3649 -1.1892 -1.2471
21905SOL    HW267157   1.981   4.100   2.132 -0.1800 -1.1851 -0.6898
21906SOL     OW67158   6.212   6.553   6.246 -0.0180 -0.0714  0.5192
21906SOL    HW167159   6.153   6.477   6.241 -0.6198  0.4711 -2.1617
21906SOL    HW267160   6.291   6.519   6.287 -0.6024 -1.9271  0.2195
21907SOL     OW67161   0.898   6.276  11.775  0.0774  0.9163 -0.3545
21907SOL    HW167162   0.965   6.208  11.772  0.4691  1.2073  0.9455
21907SOL    HW267163   0.817   6.228  11.795  0.3270  0.8009  0.4192
21908SOL     OW67164   3.286   5.508   5.662  0.0641 -0.4185  0.1926
21908SOL    HW167165   3.349   5.471   5.723 -0.6526 -1.5759  0.2548
21908SOL    HW267166   3.245   5.580   5.710 -0.0914 -0.9605  0.8865
21909SOL     OW67167   0.763   0.214   5.169 -0.5687 -0.2394  0.4583
21909SOL    HW167168   0.749   0.208   5.263 -0.2465 -0.2964  0.5039
21909SOL    HW267169   0.854   0.188   5.156 -0.7042 -0.5637  0.0981
21910SOL     OW67170   1.653   7.281   1.838  0.3557  0.1011 -0.1610
21910SOL    HW167171   1.677   7.348   1.902  1.5784  1.3205 -1.8035
21910SOL    HW267172   1.559   7.268   1.851  0.7034 -0.3049  2.3917
21911SOL     OW67173   3.575   7.042  11.623  0.1313 -0.3811 -0.2382
21911SOL    HW167174   3.513   6.990  11.571 -0.5983  0.1927  0.0415
21911SOL    HW267175   3.600   6.985  11.695 -2.6853  0.4836  1.5655
21912SOL     OW67176   3.087   2.931   5.755  0.3343  0.0604  0.2255
21912SOL    HW167177   3.125   3.015   5.730  0.8798  0.6857  2.8257
21912SOL    HW267178   3.009   2.955   5.806  1.6971 -0.7953  2.9306
21913SOL     OW67179   7.815   1.482  10.262  0.5560 -0.4756 -0.0772
21913SOL    HW167180   7.892   1.504  10.315 -0.1051  0.1527  0.6424
21913SOL    HW267181   7.747   1.542  10.292 -0.8851 -2.5050  0.9022
21914SOL     OW67182   7.373   3.409   3.306 -0.4570 -0.3089  0.0500
21914SOL    HW167183   7.299   3.373   3.354  1.0121 -2.3946  0.9024
21914SOL    HW267184   7.426   3.333   3.282  0.9661  1.0254 -1.2990
21915SOL     OW67185   6.634   5.616   4.734  0.0222  0.4710  0.0833
21915SOL    HW167186   6.695   5.669   4.785  0.3301 -0.0513  0.2697
21915SOL    HW267187   6.584   5.679   4.684 -0.2417  0.9965  0.9828
21916SOL     OW67188   5.408   0.770   3.150 -0.5373 -0.2645 -0.2094
21916SOL    HW167189   5.436   0.855   3.116  0.4212 -0.9524 -1.1950
21916SOL    HW267190   5.378   0.789   3.239  1.4062  0.8126  0.2714
21917SOL     OW67191   7.663   3.694   9.599  0.1340 -0.1663 -0.5997
21917SOL    HW167192   7.684   3.755   9.670 -0.4251 -0.0940 -0.4906
21917SOL    HW267193   7.580   3.727   9.564  0.7921  0.2777 -1.8185
21918SOL     OW67194   2.949   6.521   7.472  0.6165  0.5573 -0.4139
21918SOL    HW167195   3.014   6.478   7.529 -2.0289  0.1916  2.5880
21918SOL    HW267196   2.895   6.449   7.440 -1.5214  1.1862  1.5547
21919SOL     OW67197   0.225   6.825  11.359  0.8474  0.2673 -0.1488
21919SOL    HW167198   0.285   6.849  11.430  2.6777 -2.3522 -0.6702
21919SOL    HW267199   0.155   6.778  11.403  0.7690  0.6575  0.1504
21920SOL     OW67200   2.356   4.931   1.667  0.6337 -0.0774 -0.2058
21920SOL    HW167201   2.304   4.933   1.586 -0.1035 -0.7099  0.2368
21920SOL    HW267202   2.298   4.967   1.734  0.8120 -0.6331  0.2588
21921SOL     OW67203   6.003   7.371   3.815 -0.7822  0.2387  0.2232
21921SOL    HW167204   6.073   7.310   3.838  0.3054  0.6509 -1.7820
21921SOL    HW267205   5.926   7.336   3.861  0.0802 -1.9104  0.1823
21922SOL     OW67206   2.466   4.166  11.062 -0.6117  0.2654 -0.3522
21922SOL    HW167207   2.463   4.262  11.060  1.5020  0.4394  1.3419
21922SOL    HW267208   2.408   4.142  11.135  0.6023  0.4580  0.7209
21923SOL     OW67209   3.875   3.299   7.336  0.2928 -0.4434 -0.0299
21923SOL    HW167210   3.839   3.279   7.249 -1.1038 -2.0482  0.8698
21923SOL    HW267211   3.898   3.392   7.331 -0.8467 -0.2085 -1.7502
21924SOL     OW67212   5.992   5.768   2.162  0.0992 -0.4264  0.7551
21924SOL    HW167213   6.011   5.690   2.215 -0.4067 -0.6744  0.5716
21924SOL    HW267214   5.910   5.802   2.198  0.3327  0.0433  0.8531
21925SOL     OW67215   1.708   1.739   4.709 -0.3534  0.3762 -0.6382
21925SOL    HW167216   1.803   1.736   4.721 -0.1906 -1.9704 -1.9516
21925SOL    HW267217   1.678   1.650   4.728 -1.8885  0.3227 -2.9199
21926SOL     OW67218   5.541   7.335   0.802 -0.2053 -0.4121  0.0593
21926SOL    HW167219   5.502   7.335   0.715  0.1441 -1.1728 -0.0987
21926SOL    HW267220   5.466   7.338   0.862 -0.4803 -1.0286 -0.2500
21927SOL     OW67221   2.183   1.523  12.291 -0.4000  0.5222  0.1606
21927SOL    HW167222   2.178   1.610  12.330 -2.0172  0.6747 -0.3317
21927SOL    HW267223   2.171   1.463  12.366 -2.8970  0.8095  0.0848
21928SOL     OW67224   4.341   4.328   9.853  0.4983 -0.2687  0.2225
21928SOL    HW167225   4.405   4.325   9.782  0.0935  2.1718 -0.3331
21928SOL    HW267226   4.282   4.255   9.835  1.3670 -0.7226 -0.9517
21929SOL     OW67227   2.722   5.718   4.093  0.2384  0.1072  0.1454
21929SOL    HW167228   2.719   5.667   4.012  0.4087  0.9476 -0.3949
21929SOL    HW267229   2.742   5.807   4.066  0.6321  0.3419  1.1424
21930SOL     OW67230   1.587   3.712   1.239  0.1573 -0.0578  0.1165
21930SOL    HW167231   1.502   3.697   1.279  0.1553 -0.1731  0.0696
21930SOL    HW267232   1.568   3.731   1.147  0.2458 -1.0816 -0.1255
21931SOL     OW67233   0.956   1.079  11.558 -0.1818 -0.6478  0.0887
21931SOL    HW167234   0.908   1.157  11.531 -0.3897 -1.1446 -1.0377
21931SOL    HW267235   1.022   1.111  11.619 -0.7070  0.3032  0.1799
21932SOL     OW67236   5.038   7.560   3.646 -0.1194  0.0113  0.3218
21932SOL    HW167237   5.005   7.529   3.730 -0.5358  1.8893  0.9016
21932SOL    HW267238   4.960   7.576   3.593 -0.0334  1.4146  0.5705
21933SOL     OW67239   3.438   5.772   1.452  0.2927  0.2277  0.4080
21933SOL    HW167240   3.399   5.782   1.538  0.6309 -1.4591  0.7870
21933SOL    HW267241   3.382   5.708   1.407  1.3378 -0.5366  0.1633
21934SOL     OW67242   2.065   7.629   5.911 -0.3626  0.0912  0.1016
21934SOL    HW167243   1.979   7.587   5.903  0.0176 -0.8306  0.6557
21934SOL    HW267244   2.126   7.556   5.921  0.2898  0.7919  1.4982
21935SOL     OW67245   7.220   3.015   5.538 -0.0510 -0.0057 -0.0818
21935SOL    HW167246   7.238   3.051   5.451 -0.5096  0.2549 -0.0723
21935SOL    HW267247   7.299   3.035   5.588 -0.9827  2.7739  0.4726
21936SOL     OW67248   5.038   4.273   9.022 -0.4132 -0.1014 -0.4873
21936SOL    HW167249   4.954   4.317   9.018 -0.9063 -1.1377 -2.8561
21936SOL    HW267250   5.079   4.289   8.937  0.5583 -1.9150 -0.4116
21937SOL     OW67251   5.728   5.494   4.715 -0.0656  0.3604  0.1528
21937SOL    HW167252   5.750   5.423   4.776  0.7368 -1.6081 -2.2591
21937SOL    HW267253   5.647   5.466   4.673  0.2113  0.8924 -0.7788
21938SOL     OW67254   3.595   0.627  10.706  1.0404  0.0895  0.4343
21938SOL    HW167255   3.643   0.604  10.627 -0.6229 -1.5582 -0.1751
21938SOL    HW267256   3.662   0.630  10.775  2.2404 -0.4269 -0.6697
21939SOL     OW67257   2.177   0.588   0.473 -0.1334 -0.1705 -0.3767
21939SOL    HW167258   2.140   0.636   0.398 -0.9938  0.0287  0.1713
21939SOL    HW267259   2.166   0.496   0.450  0.0873 -0.1142 -0.7251
21940SOL     OW67260   2.342   0.086   2.763  0.3365  0.4896 -0.4370
21940SOL    HW167261   2.404   0.149   2.799  1.9269 -0.8683 -0.6865
21940SOL    HW267262   2.284   0.138   2.708  0.7945  1.9065  0.3692
21941SOL     OW67263   1.105   0.698   0.338 -0.3716 -0.3153  0.2125
21941SOL    HW167264   1.129   0.694   0.431 -0.1608  0.3521  0.1903
21941SOL    HW267265   1.189   0.691   0.292 -0.2820  1.1356  0.1160
21942SOL     OW67266   2.653   2.259  12.101 -0.1171  0.5843  0.6453
21942SOL    HW167267   2.620   2.307  12.026  1.4193 -0.6357 -0.8900
21942SOL    HW267268   2.574   2.225  12.144 -1.0728 -2.2421 -2.8658
21943SOL     OW67269   0.300   0.686   3.509 -0.4372  0.1458 -0.5553
21943SOL    HW167270   0.390   0.713   3.489 -0.6102  0.1286 -1.4314
21943SOL    HW267271   0.299   0.672   3.603  0.8366 -1.1523 -0.6985
21944SOL     OW67272   6.341   4.306  10.701 -0.1054 -0.3437 -0.1185
21944SOL    HW167273   6.306   4.387  10.737 -0.2821 -0.3126 -0.3558
21944SOL    HW267274   6.421   4.290  10.751  0.4906  0.5273 -0.7468
21945SOL     OW67275   1.990   2.506   5.833  0.3761  0.1971 -0.1427
21945SOL    HW167276   2.064   2.540   5.882  0.8527 -1.5762  0.4364
21945SOL    HW267277   1.914   2.550   5.871  1.1305  2.7346 -1.3520
21946SOL     OW67278   4.225   2.136   7.763  0.0025 -0.1555  0.1834
21946SOL    HW167279   4.231   2.224   7.724 -1.9371 -0.9396 -2.0951
21946SOL    HW267280   4.298   2.088   7.722 -0.5720 -0.3145 -0.6806
21947SOL     OW67281   1.353   4.675   2.710  0.2451 -0.5573 -0.0342
21947SOL    HW167282   1.351   4.623   2.630  1.7926 -1.4483  0.4587
21947SOL    HW267283   1.285   4.741   2.698 -1.2735 -2.2068 -1.0283
21948SOL     OW67284   5.798   6.713  11.236 -0.1312  0.5205 -0.3733
21948SOL    HW167285   5.797   6.769  11.313  0.7105  1.6602 -1.1561
21948SOL    HW267286   5.709   6.681  11.229 -0.2194  0.3775  1.0736
21949SOL     OW67287   5.906   6.850   3.104 -0.6425 -0.3722 -0.0101
21949SOL    HW167288   5.894   6.945   3.094 -0.3783 -0.1925  1.1330
21949SOL    HW267289   5.834   6.811   3.055  0.4630  0.3314 -2.3431
21950SOL     OW67290   5.369   7.812  11.665 -0.2261 -0.0687  0.5924
21950SOL    HW167291   5.360   7.901  11.632  0.7720  0.0553  0.6235
21950SOL    HW267292   5.418   7.821  11.747  1.0148 -0.7304 -0.0396
21951SOL     OW67293   0.978   0.408   3.319 -0.7704  0.0897  0.1738
21951SOL    HW167294   0.993   0.477   3.382 -0.0281  0.8460 -0.7974
21951SOL    HW267295   0.886   0.418   3.294 -1.2359 -0.5815  1.5220
21952SOL     OW67296   5.067   0.079   6.916  0.0705  0.0338 -0.4468
21952SOL    HW167297   4.990   0.027   6.941  1.7623 -1.7041  1.5156
21952SOL    HW267298   5.074   0.146   6.984  2.0643 -1.8569  1.3552
21953SOL     OW67299   3.756   0.648   1.021 -0.3672  0.4309  0.3928
21953SOL    HW167300   3.811   0.600   0.959 -1.0717  0.1302 -0.0187
21953SOL    HW267301   3.784   0.618   1.107  1.9350  2.2237  0.3819
21954SOL     OW67302   0.407   6.596   2.228  0.0783 -0.3080  0.0680
21954SOL    HW167303   0.340   6.576   2.294 -1.8058 -0.6838 -1.8294
21954SOL    HW267304   0.450   6.675   2.261 -2.2760  0.8062  0.7261
21955SOL     OW67305   4.887   4.216   2.621  0.6739  0.5276 -0.0575
21955SOL    HW167306   4.890   4.268   2.702 -0.1244  1.5628 -0.6542
21955SOL    HW267307   4.809   4.162   2.631 -0.2000  1.6266 -0.6632
21956SOL     OW67308   3.054   4.787   6.772 -0.0132  0.3218  0.4114
21956SOL    HW167309   3.081   4.724   6.705 -0.2876  2.2630 -1.6518
21956SOL    HW267310   2.974   4.750   6.808  0.2356 -0.8824 -0.2134
21957SOL     OW67311   3.301   4.624  10.655 -0.2070  0.4899 -0.0105
21957SOL    HW167312   3.271   4.665  10.737 -1.0573 -1.4636  0.7229
21957SOL    HW267313   3.242   4.658  10.588 -0.5139  0.9159  0.4668
21958SOL     OW67314   0.404   6.014   3.621 -0.2109 -0.0548 -0.2469
21958SOL    HW167315   0.457   5.938   3.597  0.8497  0.9417 -1.1829
21958SOL    HW267316   0.468   6.080   3.648 -1.1855  0.0328  2.0961
21959SOL     OW67317   2.799   7.338   5.364 -0.0055  0.2162 -0.1162
21959SOL    HW167318   2.875   7.392   5.385 -0.6981  0.7209  1.1954
21959SOL    HW267319   2.833   7.272   5.304  1.4208  0.5514  0.2808
21960SOL     OW67320   4.622   5.171   5.116 -0.8955 -0.8087  0.5860
21960SOL    HW167321   4.576   5.226   5.180  1.2274 -0.2068  1.6861
21960SOL    HW267322   4.608   5.081   5.147 -1.8785 -0.6970  0.4977
21961SOL     OW67323   6.063   0.191   9.704  0.2678  0.2539 -0.5164
21961SOL    HW167324   6.042   0.146   9.623  1.3860 -1.2950  0.0131
21961SOL    HW267325   6.003   0.156   9.769  0.2987  0.4585 -0.3729
21962SOL     OW67326   7.557   1.237   7.460 -0.7191  0.2030  0.3562
21962SOL    HW167327   7.627   1.172   7.446 -0.4626  0.6521 -0.4977
21962SOL    HW267328   7.550   1.283   7.377 -0.6119  1.5650  1.0692
21963SOL     OW67329   0.166   0.808   2.078 -0.4999 -0.1845 -0.3658
21963SOL    HW167330   0.106   0.786   2.007 -1.4892  0.9124  0.1081
21963SOL    HW267331   0.142   0.749   2.150 -0.6527 -0.1042 -0.3521
21964SOL     OW67332   2.794   7.333  11.478 -0.2514 -0.4403 -0.0481
21964SOL    HW167333   2.848   7.384  11.539 -2.8128  0.6606  1.4765
21964SOL    HW267334   2.793   7.245  11.515 -1.6803  0.1841  1.5467
21965SOL     OW67335   5.113   3.934   1.483  0.4255 -0.3591 -0.1759
21965SOL    HW167336   5.186   3.994   1.468 -1.2130  1.5947 -0.9163
21965SOL    HW267337   5.057   3.947   1.406 -0.3918 -2.2778  0.0575
21966SOL     OW67338   6.504   4.090   3.674  0.0236  0.4560 -0.1828
21966SOL    HW167339   6.512   4.131   3.760 -1.0576 -0.0753  0.1821
21966SOL    HW267340   6.437   4.142   3.629  0.4528  0.6195 -0.6489
21967SOL     OW67341   4.183   2.592   3.587 -0.1006  0.1196  0.0194
21967SOL    HW167342   4.168   2.614   3.496 -1.6980  1.0583  0.4838
21967SOL    HW267343   4.221   2.504   3.584  1.6738  0.8609 -1.6057
21968SOL     OW67344   1.022   2.027   9.753  0.4958 -0.3445 -0.1378
21968SOL    HW167345   1.025   2.103   9.695  1.3226  0.5006  0.9814
21968SOL    HW267346   0.967   1.964   9.706 -0.5585  1.0846 -0.8924
21969SOL     OW67347   6.761   6.456   7.422 -0.1014  0.4142  0.2299
21969SOL    HW167348   6.790   6.479   7.510 -0.3988  0.1173  0.4047
21969SOL    HW267349   6.693   6.391   7.435 -1.0046  1.2603 -0.1801
21970SOL     OW67350   7.615   3.129  11.090 -0.0104 -0.2864 -0.2359
21970SOL    HW167351   7.608   3.041  11.054 -0.7439 -0.3740  0.1034
21970SOL    HW267352   7.699   3.162  11.057 -0.3260 -0.6327 -1.4116
21971SOL     OW67353   2.276   1.898   7.829  0.1548 -0.2242 -0.0706
21971SOL    HW167354   2.191   1.917   7.869 -0.3940 -0.5962 -1.0460
21971SOL    HW267355   2.284   1.960   7.757  0.9671  0.1704  0.3370
21972SOL     OW67356   6.531   3.171   0.872 -0.4814  0.5802 -0.1134
21972SOL    HW167357   6.548   3.081   0.900 -1.6118  0.6377  0.8989
21972SOL    HW267358   6.574   3.225   0.939 -1.7609  0.7416  0.6173
21973SOL     OW67359   3.803   5.638   6.046 -0.2337 -0.1649 -0.1492
21973SOL    HW167360   3.709   5.641   6.063 -0.5576 -0.7144 -1.6550
21973SOL    HW267361   3.823   5.719   5.999  0.3866  0.7075  1.5226
21974SOL     OW67362   3.488   6.650   6.389  0.4976  0.3930  0.0754
21974SOL    HW167363   3.442   6.591   6.448  1.2510 -1.4344 -1.0730
21974SOL    HW267364   3.440   6.643   6.306  1.3758  0.3556 -0.4429
21975SOL     OW67365   6.954   2.731   5.030 -0.0169 -0.0370  0.3438
21975SOL    HW167366   6.875   2.779   5.055 -1.2757 -0.1122 -2.9379
21975SOL    HW267367   6.930   2.639   5.042  0.3528 -0.0114  1.3213
21976SOL     OW67368   7.086   0.529   3.338 -1.0030  0.2087 -0.5207
21976SOL    HW167369   7.000   0.559   3.310 -1.5738  0.1827  1.0612
21976SOL    HW267370   7.079   0.525   3.434  1.0974  1.2525 -0.2819
21977SOL     OW67371   1.871   1.940   4.302 -0.6333 -0.4517 -0.2975
21977SOL    HW167372   1.879   1.935   4.207  0.5514  0.4401 -0.2667
21977SOL    HW267373   1.930   1.871   4.334  0.9747  0.9062 -0.1993
21978SOL     OW67374   3.320   1.931   4.794 -0.3218 -0.2112 -0.4766
21978SOL    HW167375   3.373   2.008   4.814  1.2556 -1.4747  0.4774
21978SOL    HW267376   3.353   1.863   4.852 -0.1441 -2.2272 -2.7483
21979SOL     OW67377   1.190   7.864   2.787 -0.1604 -0.1408 -0.3573
21979SOL    HW167378   1.201   7.830   2.876 -0.7009  0.0834 -0.1946
21979SOL    HW267379   1.209   7.957   2.795  0.6961 -0.2885 -0.6700
21980SOL     OW67380   6.424   2.012   9.030 -0.3624 -0.7559  0.0613
21980SOL    HW167381   6.390   1.970   8.951 -1.3630 -1.3882  0.8152
21980SOL    HW267382   6.418   2.106   9.012 -0.5554 -0.8957 -0.6156
21981SOL     OW67383   7.651   4.162   4.133 -0.2996  0.2418  0.3148
21981SOL    HW167384   7.618   4.198   4.050  0.1411  1.5339  0.6787
21981SOL    HW267385   7.746   4.174   4.127 -0.1467 -0.8820  0.4557
21982SOL     OW67386   4.093   6.810   8.898 -0.2277 -0.2496 -0.1156
21982SOL    HW167387   4.113   6.903   8.884 -0.5156 -0.3758 -1.4549
21982SOL    HW267388   4.156   6.782   8.965  0.2991  0.7487 -0.1746
21983SOL     OW67389   6.722   0.788   2.951 -0.3320  0.6762  0.3859
21983SOL    HW167390   6.720   0.882   2.970  1.0869  0.6697  0.6688
21983SOL    HW267391   6.674   0.748   3.023 -2.2076  1.2521 -0.4666
21984SOL     OW67392   4.036   5.640   6.267 -0.4557 -0.1208  0.3671
21984SOL    HW167393   4.101   5.588   6.314 -1.3461  1.2977  3.4639
21984SOL    HW267394   3.964   5.579   6.251  0.6650 -1.1312 -1.0251
21985SOL     OW67395   7.793   6.872   6.451  0.2115 -0.7567 -0.7074
21985SOL    HW167396   7.849   6.852   6.376 -0.6669 -0.5118 -1.4449
21985SOL    HW267397   7.850   6.919   6.512  0.8693 -0.7331 -1.3300
21986SOL     OW67398   2.877   4.222   1.150  0.0637 -0.4873 -0.6576
21986SOL    HW167399   2.877   4.250   1.241  3.0956 -1.1981 -0.3377
21986SOL    HW267400   2.882   4.126   1.154  0.3472 -0.5200 -1.5543
21987SOL     OW67401   4.933   5.485   4.003  0.4418 -0.0829  0.3386
21987SOL    HW167402   4.865   5.545   4.033 -0.5627 -0.9328 -0.1490
21987SOL    HW267403   4.951   5.512   3.913 -0.9048 -1.2152 -0.3181
21988SOL     OW67404   6.586   6.744   6.055 -0.0659 -0.1934  0.0622
21988SOL    HW167405   6.577   6.650   6.073 -0.9214  0.0313  0.8921
21988SOL    HW267406   6.516   6.763   5.991 -1.4521  0.2995  1.6410
21989SOL     OW67407   7.133   7.482   3.762 -0.5609 -0.1628  0.2359
21989SOL    HW167408   7.079   7.503   3.838 -1.9933  1.1049 -1.0583
21989SOL    HW267409   7.070   7.457   3.695  0.6110 -0.4882 -0.7706
21990SOL     OW67410   4.175   6.564   3.578  0.2043  0.2030  0.0087
21990SOL    HW167411   4.267   6.565   3.553 -0.0851  0.4889 -1.1184
21990SOL    HW267412   4.168   6.630   3.647  0.6934  0.7985 -0.4964
21991SOL     OW67413   1.833   6.111   4.244 -0.2182  0.2540 -0.3482
21991SOL    HW167414   1.897   6.047   4.212  0.0596  0.6567 -0.6088
21991SOL    HW267415   1.748   6.067   4.235  0.1413 -1.0839  1.9021
21992SOL     OW67416   1.987   4.231   8.396 -0.6371 -0.1971 -0.1632
21992SOL    HW167417   2.038   4.311   8.384 -2.0344  0.5565 -1.3516
21992SOL    HW267418   1.944   4.217   8.312 -2.4710 -0.7142  0.8132
21993SOL     OW67419   1.045   0.280   9.287  0.5052  0.1952 -0.1780
21993SOL    HW167420   1.133   0.255   9.260  0.3176  1.3424 -2.0582
21993SOL    HW267421   0.990   0.207   9.259  0.7894 -0.3021  0.5486
21994SOL     OW67422   3.379   5.584  10.496 -0.1947 -0.0703 -0.2546
21994SOL    HW167423   3.389   5.671  10.458  0.9033 -0.0128  0.1337
21994SOL    HW267424   3.291   5.584  10.534 -0.0560  1.0245  0.1072
21995SOL     OW67425   0.076   6.444   3.950 -0.2454 -0.1799  0.0701
21995SOL    HW167426   0.057   6.363   3.997  0.1858 -0.0082  0.5489
21995SOL    HW267427   0.150   6.422   3.894 -1.7357 -0.8411 -1.7791
21996SOL     OW67428   7.250   7.031  10.661  1.2235  0.1909 -0.6332
21996SOL    HW167429   7.254   6.985  10.577 -2.0650 -0.2769 -0.7014
21996SOL    HW267430   7.157   7.053  10.671  1.3486 -0.2449  3.1195
21997SOL     OW67431   7.292   7.085   3.509  0.6674  0.1728 -0.4307
21997SOL    HW167432   7.336   7.143   3.446  0.7938  1.4586  0.7778
21997SOL    HW267433   7.322   7.116   3.594 -1.2206 -0.0554  0.3652
21998SOL     OW67434   7.771   5.424   1.736  0.4598  0.0319  0.3574
21998SOL    HW167435   7.746   5.460   1.652  0.0831 -0.4866  0.2436
21998SOL    HW267436   7.768   5.498   1.796  0.1270  0.2801  0.0360
21999SOL     OW67437   5.025   4.553   1.602 -0.5448 -0.3069 -0.1362
21999SOL    HW167438   4.961   4.487   1.628 -0.9873 -0.2532 -1.0457
21999SOL    HW267439   4.976   4.635   1.600 -0.0264  0.0394  0.8661
22000SOL     OW67440   4.170   1.894   7.533 -0.6517  0.1214 -0.5956
22000SOL    HW167441   4.120   1.815   7.553  0.4568 -0.6371 -0.7399
22000SOL    HW267442   4.259   1.874   7.561 -0.7542  2.1439  1.4502
22001SOL     OW67443   6.687   0.433   2.071  0.2660 -0.5238  0.5288
22001SOL    HW167444   6.606   0.476   2.045 -0.5993 -1.2613  1.9069
22001SOL    HW267445   6.753   0.502   2.067 -0.3039 -0.0233 -1.0741
22002SOL     OW67446   5.886   2.663   6.735 -0.6361 -0.2596 -0.3034
22002SOL    HW167447   5.803   2.676   6.781 -0.8176  0.5130 -0.8203
22002SOL    HW267448   5.953   2.693   6.796 -0.8083 -0.0024 -0.2422
22003SOL     OW67449   5.380   3.762  10.073  0.3127 -0.5042  0.4501
22003SOL    HW167450   5.312   3.734  10.134  1.0702  0.7787  1.9635
22003SOL    HW267451   5.455   3.707  10.094  0.3424 -0.5739  0.1609
22004SOL     OW67452   4.441   5.400  10.349  0.4830  0.5156  0.0159
22004SOL    HW167453   4.436   5.390  10.254  0.4873 -1.1518  0.1539
22004SOL    HW267454   4.535   5.402  10.368  0.5516 -1.5293  0.1384
22005SOL     OW67455   2.992   2.814   2.119 -0.1112  0.3110 -0.2370
22005SOL    HW167456   3.082   2.847   2.118  0.3591 -0.9219 -0.1794
22005SOL    HW267457   2.995   2.733   2.069 -1.1358  0.0913  0.0279
22006SOL     OW67458   0.717   1.056   3.924 -0.4126  0.0252 -0.3876
22006SOL    HW167459   0.810   1.062   3.902 -0.4408 -1.2094 -0.9725
22006SOL    HW267460   0.683   0.990   3.864 -2.0786  1.7585 -1.4302
22007SOL     OW67461   2.232   0.905  11.064  0.3581  0.2616  0.3888
22007SOL    HW167462   2.267   0.929  11.149  3.2817 -2.1747  0.0494
22007SOL    HW267463   2.185   0.823  11.079 -0.6488  0.7222 -0.1060
22008SOL     OW67464   6.060   1.825   7.819  0.7954  0.7497  0.1027
22008SOL    HW167465   6.126   1.786   7.762 -1.2205  0.3521 -2.1643
22008SOL    HW267466   5.977   1.810   7.773 -0.7851  2.0624  2.3091
22009SOL     OW67467   7.641   7.354  12.316 -0.2057 -0.0608  0.1015
22009SOL    HW167468   7.632   7.287  12.248  1.7263 -0.1625 -0.1166
22009SOL    HW267469   7.662   7.434  12.268 -0.3976  0.2244  0.4917
22010SOL     OW67470   2.373   3.825   9.526  0.3344 -0.2960 -0.0014
22010SOL    HW167471   2.457   3.831   9.481  0.4870  0.0883  0.3352
22010SOL    HW267472   2.337   3.740   9.498  0.5917 -0.2271 -0.5537
22011SOL     OW67473   5.041   0.493  12.407  0.8792  0.3108 -0.0174
22011SOL    HW167474   5.057   0.586  12.392 -0.2443  0.6187  0.6432
22011SOL    HW267475   4.946   0.484  12.405  0.9539 -1.3574 -3.1455
22012SOL     OW67476   1.117   1.853  10.195  0.1119  0.6821 -0.3642
22012SOL    HW167477   1.086   1.775  10.149  1.7385  0.2649 -0.8136
22012SOL    HW267478   1.087   1.840  10.285  1.2986 -1.0627 -0.1644
22013SOL     OW67479   4.033   7.931   7.372 -0.0221 -0.3676 -0.3757
22013SOL    HW167480   4.042   7.975   7.457 -2.5933  1.5022 -0.9359
22013SOL    HW267481   4.122   7.928   7.337  1.2271 -1.7384  2.5505
22014SOL     OW67482   3.214   1.856  12.237  0.6139 -0.1873  0.4445
22014SOL    HW167483   3.269   1.930  12.213  0.5566 -0.3712 -0.2567
22014SOL    HW267484   3.125   1.885  12.217  0.7961 -1.4644 -2.5840
22015SOL     OW67485   4.751   2.616  10.725 -1.2004 -0.0442 -0.5330
22015SOL    HW167486   4.837   2.573  10.722 -1.6829 -1.0608 -0.3391
22015SOL    HW267487   4.739   2.640  10.817 -1.0014  0.3595 -0.6119
22016SOL     OW67488   1.546   5.483   8.758  0.1985  0.2717  0.4744
22016SOL    HW167489   1.608   5.547   8.726  0.6989  0.1473  1.1765
22016SOL    HW267490   1.599   5.407   8.781 -0.3029 -0.1301  0.3241
22017SOL     OW67491   4.045   2.869   7.797 -0.5630 -0.1485  0.8493
22017SOL    HW167492   3.959   2.845   7.762  0.2990  0.3004 -1.8375
22017SOL    HW267493   4.030   2.885   7.890 -3.7309  1.6288  0.1667
22018SOL     OW67494   1.548   4.756   8.503  0.5547  0.1903  0.1579
22018SOL    HW167495   1.601   4.678   8.488  1.0394  0.3366  1.0394
22018SOL    HW267496   1.610   4.823   8.531 -0.0031  0.5410  0.5980
22019SOL     OW67497   0.353   4.172   8.107  0.6589 -0.8615  0.7892
22019SOL    HW167498   0.396   4.241   8.056  1.9958 -0.1677  2.7460
22019SOL    HW267499   0.425   4.115   8.135 -0.0893 -1.4427  1.5706
22020SOL     OW67500   7.532   1.441   2.661  0.0673  0.4025  0.7265
22020SOL    HW167501   7.599   1.509   2.654 -0.8220  1.3320  0.9041
22020SOL    HW267502   7.449   1.489   2.659 -0.6317 -0.7767 -0.3346
22021SOL     OW67503   7.089   7.439   7.362  0.5735 -0.0391 -0.2785
22021SOL    HW167504   7.065   7.357   7.318  1.1953  0.4352 -1.5448
22021SOL    HW267505   7.034   7.505   7.319 -0.1299  0.1872  0.9274
22022SOL     OW67506   5.813   2.862   2.580  0.1509  0.3204 -0.3687
22022SOL    HW167507   5.836   2.954   2.597 -2.1614  0.8118  0.4680
22022SOL    HW267508   5.892   2.813   2.602  0.3630  1.8142  2.7254
22023SOL     OW67509   6.991   3.835  10.480  0.0408  0.0949  0.0777
22023SOL    HW167510   6.946   3.883  10.548 -0.2093 -0.3683  0.2451
22023SOL    HW267511   7.023   3.902  10.420  3.4727  0.9025  2.4943
22024SOL     OW67512   2.434   2.141   1.424 -0.4564  0.8833  0.7808
22024SOL    HW167513   2.421   2.074   1.492  1.2129  1.2482  1.5087
22024SOL    HW267514   2.410   2.223   1.467 -0.7602  0.9576  0.4703
22025SOL     OW67515   7.844   4.812   9.429 -0.8366 -0.3290  0.2452
22025SOL    HW167516   7.846   4.902   9.398  0.8950 -0.4073  0.0441
22025SOL    HW267517   7.928   4.775   9.402 -0.3322 -1.1798  2.7195
22026SOL     OW67518   4.993   7.212  10.593 -0.1561  0.1496 -0.6997
22026SOL    HW167519   5.064   7.274  10.614 -0.4946  0.7051 -1.1447
22026SOL    HW267520   4.986   7.156  10.670  1.3856 -0.5103 -1.0118
22027SOL     OW67521   0.268   7.457   8.569  0.3451 -0.5930 -0.5364
22027SOL    HW167522   0.355   7.432   8.600  0.1993 -0.4141  0.0178
22027SOL    HW267523   0.229   7.375   8.538 -0.1357 -1.0894  1.2740
22028SOL     OW67524   5.995   5.628   2.762  0.4295  0.4223  0.2048
22028SOL    HW167525   5.925   5.596   2.819  0.8111  0.5017  0.7223
22028SOL    HW267526   6.045   5.549   2.741 -1.2127 -0.0817 -2.1788
22029SOL     OW67527   6.772   5.881  11.673 -0.3323  0.0322  0.5731
22029SOL    HW167528   6.781   5.876  11.769 -0.9071 -1.4202  0.5840
22029SOL    HW267529   6.703   5.817  11.653 -0.1713  0.2772 -0.8184
22030SOL     OW67530   0.258   3.835   1.190  0.3888 -0.5341  0.0167
22030SOL    HW167531   0.285   3.760   1.137  0.1870 -0.5530 -0.0599
22030SOL    HW267532   0.165   3.846   1.172  0.4519 -0.1603 -0.0985
22031SOL     OW67533   1.029   5.066   6.743  0.1634  0.0064  0.3650
22031SOL    HW167534   1.061   5.085   6.832 -0.7301  0.0499  0.6836
22031SOL    HW267535   1.085   4.995   6.712  0.0499 -0.4731  1.2301
22032SOL     OW67536   2.495   7.492   0.195 -0.0811  0.2775 -0.1041
22032SOL    HW167537   2.532   7.442   0.268  0.7991  0.1464 -0.6315
22032SOL    HW267538   2.540   7.576   0.197 -0.7397  0.6384  0.0712
22033SOL     OW67539   7.982   0.025   7.502 -0.1864 -0.1258  0.3506
22033SOL    HW167540   7.989   0.118   7.522 -4.0569 -0.0204  2.2345
22033SOL    HW267541   8.064  -0.013   7.533 -0.3530  2.1122  4.0925
22034SOL     OW67542   3.394   1.558   8.064 -0.2398  0.3767  0.0965
22034SOL    HW167543   3.338   1.491   8.026  2.1707 -0.9643 -1.3377
22034SOL    HW267544   3.436   1.515   8.138  0.8492  0.4490 -0.4543
22035SOL     OW67545   6.549   0.530   1.139 -0.0911  0.3440  0.0802
22035SOL    HW167546   6.532   0.435   1.143  1.7667 -0.2554 -3.0377
22035SOL    HW267547   6.500   0.560   1.062 -0.0827  1.8150  0.6215
22036SOL     OW67548   7.491   3.119   0.291 -0.1302  0.1845 -0.3373
22036SOL    HW167549   7.542   3.164   0.224 -2.6425  0.4481 -2.2285
22036SOL    HW267550   7.465   3.188   0.351 -2.2024  1.0405 -2.0716
22037SOL     OW67551   0.204   3.148   4.359  0.0623 -0.8397 -0.2097
22037SOL    HW167552   0.171   3.156   4.448  0.9888  0.0643  0.0760
22037SOL    HW267553   0.126   3.133   4.306 -0.8894  1.4974  0.4069
22038SOL     OW67554   4.255   7.199   2.432 -0.1653  0.0949 -0.1785
22038SOL    HW167555   4.168   7.231   2.458 -0.0304  1.2425 -1.0512
22038SOL    HW267556   4.279   7.138   2.501 -3.2676 -3.2955 -1.7176
22039SOL     OW67557   4.323   1.636   1.412 -0.5323 -0.3510  0.0237
22039SOL    HW167558   4.259   1.593   1.354 -2.5111  2.7785 -0.3962
22039SOL    HW267559   4.274   1.655   1.492  0.5668  0.1638  0.5971
22040SOL     OW67560   2.692   5.000   1.827 -0.4876  0.0885  0.6963
22040SOL    HW167561   2.645   5.055   1.890  0.0135  0.7876  0.4649
22040SOL    HW267562   2.770   5.050   1.805 -0.0734 -0.6759  0.4028
22041SOL     OW67563   4.249   0.573   7.316  0.2669  0.2645 -0.3512
22041SOL    HW167564   4.209   0.531   7.391 -1.0288  0.6470 -0.7998
22041SOL    HW267565   4.235   0.512   7.243  1.9852 -0.3583 -0.2238
22042SOL     OW67566   2.280   1.118   2.477  0.0455 -0.1295 -0.7203
22042SOL    HW167567   2.257   1.081   2.562  1.2041  0.1204 -0.2793
22042SOL    HW267568   2.233   1.202   2.473 -0.5835 -0.4690 -0.6564
22043SOL     OW67569   7.373   1.105   5.601  0.6874 -0.0867 -0.3524
22043SOL    HW167570   7.434   1.167   5.642  0.3115  0.0963 -0.0671
22043SOL    HW267571   7.295   1.107   5.657 -0.2540  0.9832 -1.6416
22044SOL     OW67572   4.011   6.615   1.257  0.5015  0.2072 -0.1071
22044SOL    HW167573   4.054   6.644   1.338 -1.4635  1.4541  0.5483
22044SOL    HW267574   3.955   6.542   1.285 -1.7329  1.9242  0.1463
22045SOL     OW67575   7.828   3.312   7.463  0.2520 -0.1690  0.0117
22045SOL    HW167576   7.826   3.218   7.447 -1.3684 -0.2139  0.3367
22045SOL    HW267577   7.745   3.331   7.508 -0.0005  1.5874 -1.0997
22046SOL     OW67578   7.691   7.146   7.473 -0.4694  0.1855  0.1895
22046SOL    HW167579   7.741   7.217   7.513 -0.9476  1.4589 -1.3987
22046SOL    HW267580   7.673   7.086   7.545  3.1569 -0.2581  0.9086
22047SOL     OW67581   3.671   6.145  11.797  0.4658 -0.1744  0.0763
22047SOL    HW167582   3.616   6.094  11.737  0.0945  0.0163  0.2525
22047SOL    HW267583   3.692   6.084  11.868  0.5258 -0.2647 -0.0195
22048SOL     OW67584   4.344   5.862   1.312  0.0172 -0.6477 -0.9431
22048SOL    HW167585   4.372   5.797   1.377  1.3171 -1.7110 -2.4838
22048SOL    HW267586   4.255   5.837   1.289 -0.9911  0.5568  1.3441
22049SOL     OW67587   1.943   3.039   7.001  0.0013 -0.4056  0.4518
22049SOL    HW167588   1.955   3.014   7.093  3.5517  1.3143  0.6122
22049SOL    HW267589   1.994   2.975   6.952 -0.4881 -0.3130 -0.1925
22050SOL     OW67590   4.856   6.167   3.866  0.2276 -0.0530 -0.3794
22050SOL    HW167591   4.889   6.077   3.879  0.9296  0.2247 -0.1695
22050SOL    HW267592   4.849   6.202   3.955 -1.7103 -0.4537 -0.3263
22051SOL     OW67593   5.761   4.244  12.113 -0.0812  0.1687 -0.0412
22051SOL    HW167594   5.695   4.284  12.171 -0.8591 -0.2124 -0.6380
22051SOL    HW267595   5.721   4.161  12.085  1.2272 -0.7355  0.6587
22052SOL     OW67596   6.188   2.369   2.759 -0.1009  0.1448 -0.4095
22052SOL    HW167597   6.168   2.435   2.826  2.4659 -0.2087  0.8308
22052SOL    HW267598   6.275   2.393   2.727  0.7939 -2.4252 -0.1232
22053SOL     OW67599   3.353   5.261   4.506  0.0490  0.3504  0.3024
22053SOL    HW167600   3.296   5.203   4.556  1.0959 -0.2516  0.8425
22053SOL    HW267601   3.410   5.301   4.572  2.1729 -1.2663 -0.4525
22054SOL     OW67602   0.945   7.296  11.844  0.1184  0.4615  0.2119
22054SOL    HW167603   0.874   7.303  11.781  0.4402  0.6975 -0.1233
22054SOL    HW267604   0.952   7.383  11.883 -1.0773 -0.0513  1.6668
22055SOL     OW67605   1.706   4.138   1.710 -0.3637  0.2537 -0.0071
22055SOL    HW167606   1.643   4.068   1.692 -0.2210 -0.2046  1.2199
22055SOL    HW267607   1.653   4.209   1.747 -0.4000  0.5424 -0.5923
22056SOL     OW67608   5.260   0.117   9.014 -0.7602  0.5062  0.2689
22056SOL    HW167609   5.297   0.136   9.100 -0.7271  0.5165  0.2523
22056SOL    HW267610   5.276   0.024   9.000  0.8452  0.8576 -0.4913
22057SOL     OW67611   1.701   3.389   8.608 -0.1847  0.4981 -0.0796
22057SOL    HW167612   1.669   3.335   8.536 -0.8344  1.0853 -0.2379
22057SOL    HW267613   1.746   3.462   8.566 -0.7214  0.9391  0.0913
22058SOL     OW67614   3.279   6.463   8.165 -0.4421  0.1505  0.5677
22058SOL    HW167615   3.247   6.551   8.185  0.3770  0.7393 -0.6412
22058SOL    HW267616   3.262   6.413   8.245 -1.4890  1.2336  1.0581
22059SOL     OW67617   7.844   1.452   9.947  0.3703  0.2679  0.1654
22059SOL    HW167618   7.803   1.538   9.951  0.5419  0.5908 -2.9911
22059SOL    HW267619   7.775   1.391   9.973 -0.8133  1.1203 -0.8912
22060SOL     OW67620   0.600   1.718   1.987 -0.0186  0.3945  0.1538
22060SOL    HW167621   0.643   1.633   2.000 -0.6928 -0.7156 -3.5191
22060SOL    HW267622   0.541   1.727   2.061  0.9142 -1.7981  1.2669
22061SOL     OW67623   5.281   6.278   1.105 -0.3751  0.5147 -0.4921
22061SOL    HW167624   5.231   6.197   1.118  0.0145  0.4810  1.0968
22061SOL    HW267625   5.257   6.333   1.179  1.9521  0.4645  0.4081
22062SOL     OW67626   6.370   6.160  12.312 -0.4865 -0.0804 -0.0490
22062SOL    HW167627   6.295   6.119  12.354  0.1012 -1.3340 -0.1496
22062SOL    HW267628   6.395   6.097  12.244  0.3813  0.5213 -0.2966
22063SOL     OW67629   5.392   3.022   0.140  0.4231  0.2448  0.0101
22063SOL    HW167630   5.466   3.015   0.079 -0.0392  1.4930 -0.7296
22063SOL    HW267631   5.334   2.951   0.115  0.6284  0.2402 -0.4730
22064SOL     OW67632   7.681   3.778   2.412 -0.0619  0.5163 -0.0091
22064SOL    HW167633   7.726   3.695   2.399  0.5832  1.1130 -1.8472
22064SOL    HW267634   7.594   3.764   2.375 -0.0418  0.5913 -0.0835
22065SOL     OW67635   4.052   6.626   9.153  0.1037 -0.1502 -0.7411
22065SOL    HW167636   3.969   6.580   9.165  0.8689 -1.1585  1.0609
22065SOL    HW267637   4.069   6.668   9.237  1.2687  0.3262 -1.1865
22066SOL     OW67638   4.271   0.335   8.477 -0.5250 -0.4837 -0.1827
22066SOL    HW167639   4.213   0.392   8.527 -0.7969 -0.2132 -0.7940
22066SOL    HW267640   4.237   0.339   8.387  0.3165 -0.4849 -0.5107
22067SOL     OW67641   0.213   5.874   3.457  0.9071  0.0162  0.2462
22067SOL    HW167642   0.183   5.903   3.371  1.6579  0.5219  0.1409
22067SOL    HW267643   0.287   5.932   3.477  2.1190 -1.4632  0.2659
22068SOL     OW67644   7.617   5.557   8.212  0.2432  0.4883  0.1650
22068SOL    HW167645   7.603   5.634   8.267  1.4186 -0.6201  2.1323
22068SOL    HW267646   7.562   5.489   8.250  2.5718 -0.8669  1.3381
22069SOL     OW67647   4.890   5.060   8.478 -0.0299 -0.0014  0.1806
22069SOL    HW167648   4.933   4.990   8.429  0.7346  0.9762 -0.5913
22069SOL    HW267649   4.798   5.034   8.479  0.1236 -0.6609 -0.7264
22070SOL     OW67650   3.162   2.522   6.124 -0.2335 -0.3130  0.2996
22070SOL    HW167651   3.077   2.486   6.147 -1.6835  2.7618  0.3698
22070SOL    HW267652   3.155   2.541   6.030 -0.9436  2.7653  0.8596
22071SOL     OW67653   1.864   1.711   8.444 -0.0425  0.2975  0.4047
22071SOL    HW167654   1.882   1.763   8.523  1.4889  0.5175 -0.0534
22071SOL    HW267655   1.826   1.630   8.478  0.2411  0.5408  1.3552
22072SOL     OW67656   5.735   5.551   3.996 -0.1180 -0.5314 -0.0237
22072SOL    HW167657   5.645   5.558   4.026  0.1937 -0.3928  0.9242
22072SOL    HW267658   5.733   5.486   3.926 -0.8399 -1.0274  0.4511
22073SOL     OW67659   2.423   3.359   5.909 -0.9819  0.4757  0.1980
22073SOL    HW167660   2.393   3.442   5.947 -1.8473  1.6984 -2.8430
22073SOL    HW267661   2.459   3.383   5.824  2.4577 -1.8601  0.7761
22074SOL     OW67662   2.798   3.512   1.343  0.6126  0.1727 -0.0147
22074SOL    HW167663   2.850   3.581   1.383  0.9841  1.4391 -2.5182
22074SOL    HW267664   2.715   3.554   1.320 -0.1930 -0.9279  0.7215
22075SOL     OW67665   3.979   7.853   2.525  0.1003  0.3962  0.1173
22075SOL    HW167666   3.939   7.940   2.519  1.4072  1.2048  2.0815
22075SOL    HW267667   4.068   7.865   2.493  0.5634  0.0177  1.2095
22076SOL     OW67668   0.325   5.650   8.679  0.0734 -0.4040 -0.2028
22076SOL    HW167669   0.310   5.699   8.597 -1.5825  3.6436  2.2099
22076SOL    HW267670   0.400   5.694   8.719  0.8833 -2.3512  0.5306
22077SOL     OW67671   4.241   4.912   6.376  0.3798 -0.1826  0.4601
22077SOL    HW167672   4.312   4.848   6.374  0.4486 -0.1436  1.5476
22077SOL    HW267673   4.161   4.858   6.377  0.3779 -0.2258 -0.4818
22078SOL     OW67674   4.905   4.193  12.272 -0.0519  0.6712  0.0333
22078SOL    HW167675   4.904   4.273  12.221 -0.2798  0.2482 -0.6441
22078SOL    HW267676   4.951   4.216  12.353  4.2983  0.3472 -2.0574
22079SOL     OW67677   0.582   4.315   0.177  0.2780  0.0877  0.3311
22079SOL    HW167678   0.546   4.252   0.115 -2.4644  0.9211  0.9517
22079SOL    HW267679   0.635   4.375   0.124  0.0135 -0.6635 -0.7960
22080SOL     OW67680   1.382   3.254   6.183  0.4759 -0.3760 -0.3413
22080SOL    HW167681   1.327   3.278   6.108  1.1642 -0.0702 -0.7595
22080SOL    HW267682   1.355   3.165   6.205 -0.8968  0.1434  0.1188
22081SOL     OW67683   5.541   4.338   8.372  0.3930 -0.4918  0.2842
22081SOL    HW167684   5.460   4.330   8.321 -1.4507  0.0053  2.9230
22081SOL    HW267685   5.610   4.343   8.306 -1.8845  1.1232 -2.2060
22082SOL     OW67686   1.790   5.236   7.798 -0.1385  0.0140  0.7575
22082SOL    HW167687   1.772   5.142   7.802 -2.7276  0.4727  1.4127
22082SOL    HW267688   1.819   5.259   7.886  0.4748 -0.1608  0.6030
22083SOL     OW67689   4.388   4.992   6.068 -0.9026  0.0350 -0.0031
22083SOL    HW167690   4.388   4.939   6.147  0.3071  0.2859  0.1802
22083SOL    HW267691   4.375   5.082   6.099  0.8753  0.3019  0.0655
22084SOL     OW67692   1.099   5.054   7.996 -0.1746  0.0968 -0.1945
22084SOL    HW167693   1.057   5.132   7.960  1.7485  2.0686  1.5345
22084SOL    HW267694   1.128   5.006   7.919 -1.7955  0.8367 -1.3244
22085SOL     OW67695   4.244   0.926  10.631 -0.1001  0.3559 -0.1619
22085SOL    HW167696   4.197   0.851  10.666  2.3893 -0.7483  0.9816
22085SOL    HW267697   4.273   0.898  10.544  1.3474 -0.2767  0.5045
22086SOL     OW67698   0.183   1.818   0.844  0.0056  0.5736  0.2018
22086SOL    HW167699   0.215   1.727   0.843 -1.0402  0.2035 -0.5212
22086SOL    HW267700   0.257   1.868   0.879  1.4787 -0.2157 -1.6078
22087SOL     OW67701   4.686   7.941   0.130  0.7973 -0.0835  0.0287
22087SOL    HW167702   4.763   7.930   0.186 -0.3120 -0.6539  1.5245
22087SOL    HW267703   4.616   7.963   0.191 -0.6432 -1.4403 -1.0516
22088SOL     OW67704   5.703   2.160   7.205  0.0628 -0.7602  0.0308
22088SOL    HW167705   5.793   2.175   7.234  0.2618  1.4538 -1.4562
22088SOL    HW267706   5.711   2.099   7.132  0.2828 -0.9811  0.2381
22089SOL     OW67707   7.980   4.003  12.024 -0.1782  0.0016  0.1379
22089SOL    HW167708   8.063   3.974  12.061 -0.1545  1.1921  1.0943
22089SOL    HW267709   8.003   4.077  11.967 -0.5531  0.2277  0.2728
22090SOL     OW67710   5.570   4.838   4.125 -0.1983 -0.1743 -0.2326
22090SOL    HW167711   5.634   4.861   4.057 -0.8391  0.4149 -0.6503
22090SOL    HW267712   5.589   4.898   4.197 -0.2820  0.0025 -0.3574
22091SOL     OW67713   7.718   2.186   3.662 -0.5812  0.6893 -0.3142
22091SOL    HW167714   7.736   2.150   3.575  0.8909 -1.9608  0.9460
22091SOL    HW267715   7.785   2.253   3.675  1.4282 -1.2690 -0.0101
22092SOL     OW67716   2.618   2.732   2.027 -0.4202 -0.2307 -0.4823
22092SOL    HW167717   2.614   2.663   1.961  0.0481 -1.3200  0.5809
22092SOL    HW267718   2.528   2.765   2.034 -0.6115 -0.6065 -1.1238
22093SOL     OW67719   6.974   4.751   2.588 -0.1030 -0.1427 -0.0065
22093SOL    HW167720   6.962   4.711   2.675 -0.3468 -0.7969 -0.3320
22093SOL    HW267721   7.063   4.728   2.562 -0.2021 -0.3752 -0.1428
22094SOL     OW67722   1.601   0.937   2.812  0.3613 -0.1412 -0.1343
22094SOL    HW167723   1.572   1.021   2.775  0.5795 -0.8014 -1.8562
22094SOL    HW267724   1.524   0.881   2.805 -0.3409  0.3262  2.5801
22095SOL     OW67725   4.062   0.876   1.970 -0.5154  0.1285  0.2701
22095SOL    HW167726   4.094   0.893   1.881 -0.6425 -1.0366 -0.0217
22095SOL    HW267727   4.138   0.840   2.016 -0.8695 -0.8042  0.1446
22096SOL     OW67728   1.145   3.628   6.712 -0.7863  0.3107  0.2263
22096SOL    HW167729   1.159   3.709   6.761 -1.2694  0.8791 -0.5500
22096SOL    HW267730   1.139   3.655   6.620 -0.4198 -0.6714 -0.1089
22097SOL     OW67731   6.505   3.021   9.035  0.0667 -0.4728 -0.0335
22097SOL    HW167732   6.522   3.064   9.118 -0.2579 -0.5821  0.0896
22097SOL    HW267733   6.421   2.978   9.046  0.5480 -1.4455 -0.0381
22098SOL     OW67734   0.438   4.180   5.129 -0.0077 -0.6932 -0.1739
22098SOL    HW167735   0.450   4.088   5.153 -1.6568 -0.6184  1.0743
22098SOL    HW267736   0.527   4.216   5.131  0.5323 -1.9784  0.5176
22099SOL     OW67737   1.871   1.457   3.249 -0.3973 -0.1393  0.0314
22099SOL    HW167738   1.896   1.366   3.230 -0.6328  0.0401 -1.2734
22099SOL    HW267739   1.933   1.509   3.198  1.3092  0.5586  2.6391
22100SOL     OW67740   1.246   7.781   8.938  0.2284  0.0074 -0.0753
22100SOL    HW167741   1.201   7.822   8.864 -1.0347  0.7874  1.0619
22100SOL    HW267742   1.288   7.703   8.902  0.2552  0.7594 -1.7324
22101SOL     OW67743   3.698   2.391   4.134 -0.3795 -0.3559  0.8093
22101SOL    HW167744   3.621   2.387   4.077 -1.9210 -0.6004  2.7891
22101SOL    HW267745   3.731   2.480   4.124 -0.8902 -0.2656 -0.1346
22102SOL     OW67746   3.336   3.946   4.034  0.2061  0.0822  0.1143
22102SOL    HW167747   3.364   3.858   4.059 -0.2732  0.5308  2.4065
22102SOL    HW267748   3.318   3.939   3.940  1.0680 -2.0111  0.0479
22103SOL     OW67749   4.388   0.581   6.052  0.0088  0.5818  0.1084
22103SOL    HW167750   4.393   0.498   6.099  3.4546  0.5246 -0.1094
22103SOL    HW267751   4.341   0.560   5.971  0.5272 -1.0903  0.1957
22104SOL     OW67752   1.633   4.518  12.235 -1.0167  0.3612 -0.4016
22104SOL    HW167753   1.725   4.538  12.252 -0.8902 -0.9205  0.6671
22104SOL    HW267754   1.613   4.563  12.153  1.6899 -2.4625 -2.8751
22105SOL     OW67755   6.570   7.406   0.464 -0.0400  0.0976  0.2105
22105SOL    HW167756   6.590   7.492   0.426 -0.2966  0.1992  0.2995
22105SOL    HW267757   6.577   7.345   0.390 -1.2485  0.3927 -0.1726
22106SOL     OW67758   5.607   7.880   0.816 -0.0435  0.1273  0.2343
22106SOL    HW167759   5.574   7.950   0.873  0.3057 -1.0095  1.8991
22106SOL    HW267760   5.539   7.813   0.818 -0.0593  0.0961 -0.7803
22107SOL     OW67761   6.217   0.066  11.371  0.1304  0.1169 -0.1018
22107SOL    HW167762   6.271   0.095  11.444  0.0138 -0.3096  0.1596
22107SOL    HW267763   6.179   0.146  11.336 -0.1082  0.2980  0.5452
22108SOL     OW67764   2.202   0.228   1.600  0.2174 -0.3756  0.3690
22108SOL    HW167765   2.255   0.221   1.521  1.3675 -0.9362  1.1642
22108SOL    HW267766   2.145   0.151   1.597  1.9121 -1.7603  1.2107
22109SOL     OW67767   0.895   3.565   1.276  0.2893  0.5409  0.1144
22109SOL    HW167768   0.888   3.475   1.244 -2.4771  1.0690 -1.1041
22109SOL    HW267769   0.909   3.556   1.370 -0.1742 -1.1806  0.0503
22110SOL     OW67770   5.734   1.952   8.150  0.3314  0.0007  0.9069
22110SOL    HW167771   5.829   1.945   8.155  0.4388 -1.3762 -1.2864
22110SOL    HW267772   5.718   2.026   8.092  0.1228 -0.3906  0.4548
22111SOL     OW67773   2.519   7.077   9.585 -0.8242 -0.1845 -0.0547
22111SOL    HW167774   2.573   7.001   9.565 -2.4941 -1.5133  0.2663
22111SOL    HW267775   2.527   7.132   9.507  2.9856  1.0035  0.9599
22112SOL     OW67776   7.658   1.302   3.863 -0.2293  0.1542  0.0537
22112SOL    HW167777   7.694   1.313   3.775  0.1377 -0.5992  0.0998
22112SOL    HW267778   7.711   1.232   3.902  0.0112  0.8777  1.0871
22113SOL     OW67779   2.387   6.810   9.184 -0.1232 -0.2341  0.6938
22113SOL    HW167780   2.370   6.830   9.276 -2.9282  2.2644 -0.2172
22113SOL    HW267781   2.431   6.889   9.151  0.5094 -0.9515 -0.2211
22114SOL     OW67782   3.005   5.481  12.343  0.0511 -0.0955 -0.1579
22114SOL    HW167783   2.997   5.576  12.355 -0.0935 -0.1211 -0.0451
22114SOL    HW267784   3.096   5.462  12.362  0.0537  0.0057 -0.0652
22115SOL     OW67785   5.858   6.400   5.021  0.3129  0.1320  0.3170
22115SOL    HW167786   5.839   6.310   5.050  0.3022  0.0651  0.1062
22115SOL    HW267787   5.947   6.416   5.051  0.4988 -0.1320 -0.0755
22116SOL     OW67788   4.523   4.223   9.681  0.0345  0.3881  0.0696
22116SOL    HW167789   4.596   4.189   9.733 -0.5891 -0.3549  0.4695
22116SOL    HW267790   4.566   4.273   9.611  1.0627 -2.1790 -1.2821
22117SOL     OW67791   2.441   7.860   0.462  0.0060  0.6768 -0.0572
22117SOL    HW167792   2.412   7.917   0.533  0.9644  1.1496 -0.0280
22117SOL    HW267793   2.484   7.919   0.399 -0.8374  0.2750 -1.0453
22118SOL     OW67794   2.591   1.656   3.346 -0.1200  0.0622  0.1079
22118SOL    HW167795   2.597   1.676   3.253 -0.0970 -1.3930 -0.2351
22118SOL    HW267796   2.497   1.647   3.363 -0.1187  0.2219  0.1990
22119SOL     OW67797   4.955   0.995   9.994  0.1968  0.2775  0.4351
22119SOL    HW167798   4.987   1.070  10.044  0.8155 -0.1303  0.6652
22119SOL    HW267799   4.973   1.017   9.903 -0.7705  0.9460  0.3899
22120SOL     OW67800   4.514   6.839   2.471 -0.1164 -0.3824 -0.0195
22120SOL    HW167801   4.423   6.848   2.500  0.2339 -0.2836  1.0873
22120SOL    HW267802   4.536   6.747   2.487  0.2571 -0.1952  0.5726
22121SOL     OW67803   1.823   3.987   3.007 -0.4392 -0.0853 -0.3144
22121SOL    HW167804   1.766   4.062   3.021  0.9209  0.9128  0.1650
22121SOL    HW267805   1.899   4.023   2.961  0.2072 -1.1768 -0.1376
22122SOL     OW67806   5.799   4.756   3.258 -0.6439  0.8654 -0.1674
22122SOL    HW167807   5.770   4.804   3.180  0.3130 -0.0896 -1.1669
22122SOL    HW267808   5.877   4.803   3.287 -0.6814  0.9036 -0.1309
22123SOL     OW67809   4.754   2.768   4.974 -0.0935 -1.2799 -0.4710
22123SOL    HW167810   4.746   2.727   5.060 -1.5763  1.2665  0.7271
22123SOL    HW267811   4.790   2.855   4.992  1.0169 -1.1963 -2.6462
22124SOL     OW67812   4.541   1.225   9.065 -0.1045  0.1909 -0.0137
22124SOL    HW167813   4.459   1.276   9.067 -0.9609 -1.0867 -0.9254
22124SOL    HW267814   4.544   1.181   9.150 -1.4562 -1.3562 -0.7226
22125SOL     OW67815   5.943   3.844   4.954  0.0832  0.5459  0.1390
22125SOL    HW167816   5.944   3.761   4.907 -4.6938  0.7057 -0.7999
22125SOL    HW267817   5.921   3.821   5.044 -2.4462  0.6380 -0.3595
22126SOL     OW67818   7.341   0.365   2.060  0.0400 -0.0713 -0.2804
22126SOL    HW167819   7.316   0.445   2.107  0.2347  0.3145 -0.8202
22126SOL    HW267820   7.434   0.377   2.041 -0.1401  0.0096 -1.1911
22127SOL     OW67821   3.636   0.732   4.461 -0.1277  0.1061  0.0056
22127SOL    HW167822   3.681   0.797   4.514  1.2578 -0.5318 -0.3450
22127SOL    HW267823   3.630   0.770   4.374  2.8413 -1.0846 -0.8368
22128SOL     OW67824   1.047   0.263   8.039  0.3046 -0.4889 -0.3134
22128SOL    HW167825   1.009   0.179   8.017 -1.7496  1.0243 -3.2126
22128SOL    HW267826   1.038   0.315   7.959  1.0317  2.6333  1.4687
22129SOL     OW67827   7.286   2.649  11.688 -1.1054  0.0121 -0.3147
22129SOL    HW167828   7.207   2.669  11.740 -1.2456  0.4313 -0.6800
22129SOL    HW267829   7.284   2.713  11.617  0.7265  1.4861  0.8797
22130SOL     OW67830   4.341   0.369   7.776 -0.5821  0.1944  0.5264
22130SOL    HW167831   4.352   0.288   7.826  0.5668  1.1801  1.9340
22130SOL    HW267832   4.279   0.421   7.827 -0.5565  0.5930  0.1585
22131SOL     OW67833   5.346   1.462   8.666 -0.1206 -0.2001  0.0661
22131SOL    HW167834   5.363   1.383   8.718 -0.4266  0.6913  1.5938
22131SOL    HW267835   5.374   1.534   8.723 -1.0788  0.8561 -0.7578
22132SOL     OW67836   7.677   3.203   1.919 -0.3293  0.3811 -0.2281
22132SOL    HW167837   7.650   3.214   1.828 -2.4736 -0.6256  0.1940
22132SOL    HW267838   7.704   3.111   1.925  1.5665  0.9015 -0.2066
22133SOL     OW67839   2.868   3.295   6.491 -0.0413 -0.3321  0.2178
22133SOL    HW167840   2.823   3.229   6.438 -0.2963 -0.9646  1.1865
22133SOL    HW267841   2.831   3.378   6.463 -0.6774 -0.7140 -0.1035
22134SOL     OW67842   2.949   0.553   8.307  0.5491  0.1374 -0.0652
22134SOL    HW167843   2.945   0.591   8.395  1.3962 -1.1073  0.5365
22134SOL    HW267844   2.894   0.474   8.313  0.8774 -0.1270 -0.5575
22135SOL     OW67845   6.887   2.461   5.079 -0.5060  0.7371  0.8446
22135SOL    HW167846   6.896   2.366   5.091 -0.6478  0.7227  0.8408
22135SOL    HW267847   6.831   2.488   5.153 -0.4699  0.8159  0.8418
22136SOL     OW67848   1.753   6.830   4.600 -0.4574 -0.1491  0.0777
22136SOL    HW167849   1.724   6.919   4.579 -0.7853 -0.3405 -0.2975
22136SOL    HW267850   1.707   6.807   4.680 -3.6703 -1.5044 -1.9394
22137SOL     OW67851   6.671   1.187   2.792  0.2040  0.7698 -0.0072
22137SOL    HW167852   6.583   1.164   2.762  0.6082 -0.9868  0.0348
22137SOL    HW267853   6.728   1.163   2.719  0.7150  1.3298  0.1971
22138SOL     OW67854   0.277   1.838   6.608  0.0834 -0.5354 -0.3314
22138SOL    HW167855   0.361   1.870   6.643  0.5377 -0.7741 -1.1778
22138SOL    HW267856   0.302   1.773   6.543 -0.7974 -1.4530  0.2237
22139SOL     OW67857   3.640   0.522   6.845 -0.5774 -0.7888  0.0446
22139SOL    HW167858   3.698   0.556   6.777 -1.7918  0.8442 -0.2284
22139SOL    HW267859   3.552   0.531   6.809 -1.3516  1.0685  2.1508
22140SOL     OW67860   3.825   3.918   7.979 -0.1147 -0.8251 -0.3756
22140SOL    HW167861   3.834   4.008   8.010 -0.0500 -1.4170  1.4290
22140SOL    HW267862   3.731   3.903   7.975 -0.1515 -0.4110 -1.5978
22141SOL     OW67863   5.488   2.338   3.860 -0.7550 -0.3412  0.0304
22141SOL    HW167864   5.415   2.279   3.876 -0.8569 -1.0448 -2.6005
22141SOL    HW267865   5.448   2.418   3.826 -0.3738 -0.2189 -0.1397
22142SOL     OW67866   5.264   6.694   7.222  0.2457 -0.0840 -0.3436
22142SOL    HW167867   5.286   6.701   7.129 -0.7875  0.7775 -0.5469
22142SOL    HW267868   5.295   6.777   7.260  0.0478 -0.1412 -0.0541
22143SOL     OW67869   4.635   4.982   5.721  0.4782  0.4969  0.2459
22143SOL    HW167870   4.576   4.993   5.646  0.0386 -0.8799  0.3633
22143SOL    HW267871   4.712   4.938   5.686  0.2147 -0.2738  0.6213
22144SOL     OW67872   1.140   2.880   0.112  0.0646  0.0722 -0.3397
22144SOL    HW167873   1.047   2.858   0.103 -0.2064  1.0568 -0.0531
22144SOL    HW267874   1.147   2.970   0.082  1.0565 -0.2034 -0.9764
22145SOL     OW67875   0.257   4.518  10.646 -0.6390  0.2048  0.1284
22145SOL    HW167876   0.203   4.516  10.724 -1.1373 -0.6224 -0.2250
22145SOL    HW267877   0.200   4.552  10.577 -0.5733 -0.2294 -0.1433
22146SOL     OW67878   6.288   0.114   0.265  0.4218  0.2376 -0.5126
22146SOL    HW167879   6.315   0.205   0.251  0.6913  0.5711  1.7710
22146SOL    HW267880   6.199   0.110   0.231  0.3134  1.4377 -0.4213
22147SOL     OW67881   0.838   7.147  10.781 -0.0721 -0.5957  0.3899
22147SOL    HW167882   0.766   7.085  10.789 -1.4311  0.8769  0.2087
22147SOL    HW267883   0.847   7.184  10.869  0.5196 -0.8331  0.4297
22148SOL     OW67884   1.636   1.171   0.162 -0.0929 -0.0983  0.1349
22148SOL    HW167885   1.568   1.105   0.169 -0.4676  0.1465 -1.0043
22148SOL    HW267886   1.699   1.135   0.099  0.0213  0.3542 -0.0162
22149SOL     OW67887   4.615   4.822   7.367 -0.4394 -0.0209 -0.6061
22149SOL    HW167888   4.565   4.749   7.330 -0.0101  0.0828 -1.4302
22149SOL    HW267889   4.590   4.897   7.313  1.0263 -0.0886 -1.4152
22150SOL     OW67890   6.832   7.638  10.489 -0.2010  0.2522 -0.0226
22150SOL    HW167891   6.746   7.622  10.449  0.6649  0.3602 -2.0512
22150SOL    HW267892   6.894   7.630  10.417  1.4540  0.8500  1.2627
22151SOL     OW67893   0.467   0.084   4.616  0.7393 -0.1461  0.5388
22151SOL    HW167894   0.390   0.104   4.563  1.2412  0.9427  0.1817
22151SOL    HW267895   0.540   0.089   4.555  0.9310 -4.0166  0.1811
22152SOL     OW67896   5.315   2.481   8.105  0.3834  0.6288 -0.2853
22152SOL    HW167897   5.322   2.534   8.185 -0.4009  1.6393 -0.8582
22152SOL    HW267898   5.289   2.394   8.135  0.4355  0.9070  0.5859
22153SOL     OW67899   3.226   3.078  11.381  0.4555  0.1209 -0.4938
22153SOL    HW167900   3.307   3.097  11.333  0.7739 -0.1658 -0.0782
22153SOL    HW267901   3.215   3.153  11.440 -0.4344  0.9281 -1.6454
22154SOL     OW67902   4.706   2.729   7.409  0.5434  0.3911  0.1328
22154SOL    HW167903   4.635   2.774   7.454  1.5604  0.5073  1.6911
22154SOL    HW267904   4.732   2.788   7.339 -1.2172  0.1206 -0.7848
22155SOL     OW67905   6.150   5.873  10.445 -0.6231 -0.1157 -0.4120
22155SOL    HW167906   6.225   5.932  10.445 -1.1518  0.5650  0.0371
22155SOL    HW267907   6.082   5.920  10.399 -1.2562 -0.0973  0.5171
22156SOL     OW67908   6.327   1.597   0.582 -0.3993  0.4088 -0.2188
22156SOL    HW167909   6.283   1.512   0.586  0.1623  0.1431  1.0238
22156SOL    HW267910   6.291   1.640   0.504 -2.7757  0.1613  0.6492
22157SOL     OW67911   0.171   0.269   5.707 -0.7456  0.0431 -0.6069
22157SOL    HW167912   0.211   0.340   5.657  1.4854 -1.0150 -0.4360
22157SOL    HW267913   0.156   0.306   5.794  0.7775  0.2223 -0.4006
22158SOL     OW67914   2.109   0.682  12.004  0.1696  0.1533 -0.0519
22158SOL    HW167915   2.041   0.617  12.020  0.4350  0.2152  1.4832
22158SOL    HW267916   2.182   0.653  12.059  1.7247 -0.3759 -2.2607
22159SOL     OW67917   5.579   1.174  12.427  0.4738 -0.1221  0.0683
22159SOL    HW167918   5.506   1.128  12.387  1.3608 -2.1346  0.6477
22159SOL    HW267919   5.618   1.224  12.355 -2.7694  2.9990  0.1724
22160SOL     OW67920   4.418   6.924   1.933  0.4919 -0.1743  0.3605
22160SOL    HW167921   4.481   6.980   1.977  0.5018 -0.8563  1.2393
22160SOL    HW267922   4.450   6.835   1.947 -0.5612 -0.5246  0.6881
22161SOL     OW67923   5.765   6.993   3.952  0.0998 -0.1767  0.3605
22161SOL    HW167924   5.762   6.983   4.047  0.4147 -0.6585  0.3254
22161SOL    HW267925   5.788   7.084   3.937  0.3405 -0.1725  0.7513
22162SOL     OW67926   6.291   1.650   9.549  0.4266 -0.5267 -0.5226
22162SOL    HW167927   6.241   1.731   9.536 -0.0028 -0.7334 -0.1688
22162SOL    HW267928   6.353   1.671   9.618  0.9208 -0.2342 -1.0424
22163SOL     OW67929   1.160   3.065   4.534 -0.5722 -0.1167  0.0327
22163SOL    HW167930   1.105   3.012   4.591 -0.2049 -0.5679 -0.0317
22163SOL    HW267931   1.248   3.058   4.571 -0.2067 -0.9231 -0.9326
22164SOL     OW67932   4.751   5.207   5.836 -0.2342  0.5379  0.6993
22164SOL    HW167933   4.692   5.134   5.819 -0.3642  0.9667 -0.8637
22164SOL    HW267934   4.833   5.166   5.864 -1.1403 -0.0716  2.5780
22165SOL     OW67935   5.932   5.986  10.648  0.2038 -0.0586 -0.1523
22165SOL    HW167936   5.957   5.975  10.557  3.0304 -0.6741  0.5820
22165SOL    HW267937   6.000   5.940  10.697 -1.5790 -0.3251  2.2660
22166SOL     OW67938   1.503   6.682   9.607 -0.0746  0.0880 -0.5743
22166SOL    HW167939   1.486   6.625   9.682 -1.5626  0.2621 -0.7400
22166SOL    HW267940   1.441   6.754   9.617 -1.4034 -0.6446 -2.7390
22167SOL     OW67941   2.518   5.689   8.122 -0.7181 -0.2379 -0.7619
22167SOL    HW167942   2.480   5.643   8.197 -1.1275  0.5515 -0.4719
22167SOL    HW267943   2.515   5.781   8.147  1.5726 -0.1439 -0.6471
22168SOL     OW67944   0.448   4.154   0.004  0.1279  0.0352 -0.2777
22168SOL    HW167945   0.358   4.181  -0.014 -0.2346 -0.1849  1.1059
22168SOL    HW267946   0.489   4.147  -0.083 -0.3588  2.8312 -0.8144
22169SOL     OW67947   1.040   1.024   0.868 -0.2471  0.4609  0.1913
22169SOL    HW167948   1.080   1.069   0.793  1.4445  2.4964  2.1358
22169SOL    HW267949   0.946   1.040   0.859 -0.1617 -0.0235 -1.8749
22170SOL     OW67950   7.892   5.687   6.385  0.4552  0.2105  0.4740
22170SOL    HW167951   7.978   5.663   6.349 -1.4021 -2.5285 -2.7818
22170SOL    HW267952   7.862   5.758   6.328  0.3200  0.8001  1.2728
22171SOL     OW67953   5.361   2.289   6.455  0.2603  0.3690 -0.4921
22171SOL    HW167954   5.319   2.373   6.471  1.2674  0.9018 -0.5916
22171SOL    HW267955   5.378   2.253   6.542 -0.2411  0.2323 -0.4506
22172SOL     OW67956   3.539   5.658   5.277  0.3294  0.7668 -0.3019
22172SOL    HW167957   3.534   5.659   5.181  0.4498 -0.6745 -0.3568
22172SOL    HW267958   3.449   5.670   5.305  0.3949  1.9717 -0.5660
22173SOL     OW67959   5.840   6.195   0.713 -0.2715  0.2269  0.0208
22173SOL    HW167960   5.825   6.119   0.657  1.7822  1.0174 -1.7728
22173SOL    HW267961   5.765   6.253   0.697 -1.0413 -0.7167  0.1773
22174SOL     OW67962   0.673   7.834  10.028  0.1133 -0.1220 -0.2056
22174SOL    HW167963   0.591   7.807  10.068  0.4470  0.5293  0.9710
22174SOL    HW267964   0.649   7.907   9.971  0.0299  1.0039  1.2038
22175SOL     OW67965   7.800   3.020   3.777  0.0615 -0.2213 -0.4074
22175SOL    HW167966   7.834   2.973   3.701 -2.3256 -0.8305 -1.1621
22175SOL    HW267967   7.729   2.966   3.810 -1.0653  1.5753  0.2886
22176SOL     OW67968   1.778   7.926   1.255  0.2046  0.4450 -0.8863
22176SOL    HW167969   1.749   7.996   1.313  0.9084 -0.1228  0.1912
22176SOL    HW267970   1.732   7.942   1.173 -0.8923  1.2233 -0.1467
22177SOL     OW67971   1.469   1.111   8.277  0.2063  0.3227 -0.4920
22177SOL    HW167972   1.427   1.094   8.361 -0.5133 -0.0564 -0.9233
22177SOL    HW267973   1.502   1.025   8.250  0.8230  0.5236 -0.3983
22178SOL     OW67974   3.979   5.500   8.257 -0.7844  0.3072  0.6983
22178SOL    HW167975   3.962   5.444   8.333 -0.5043  0.8935  1.1911
22178SOL    HW267976   4.073   5.516   8.260 -0.4271 -1.2090 -0.8430
22179SOL     OW67977   3.723   2.813   0.855 -0.4361  0.2210  0.0710
22179SOL    HW167978   3.628   2.816   0.842 -0.1919  1.4172 -1.7330
22179SOL    HW267979   3.753   2.740   0.802 -0.4225 -0.7834  1.4164
22180SOL     OW67980   3.879   0.600  10.190 -0.3011  0.3626  0.6730
22180SOL    HW167981   3.833   0.683  10.196  0.5882  0.8878  0.4661
22180SOL    HW267982   3.961   0.621  10.145 -0.9140 -0.9860 -1.1930
22181SOL     OW67983   6.458   4.015   1.200  0.4494 -0.0565 -0.0137
22181SOL    HW167984   6.465   3.974   1.286  0.1172  0.8587  0.4573
22181SOL    HW267985   6.494   3.950   1.140 -2.4902 -2.2248  0.3497
22182SOL     OW67986   3.772   6.092   3.359 -0.5877  0.0354 -1.0043
22182SOL    HW167987   3.796   6.168   3.306  3.7191 -1.1282 -1.1173
22182SOL    HW267988   3.781   6.017   3.300 -1.1773 -0.8735  0.0112
22183SOL     OW67989   0.620   7.262   1.670 -0.6564 -0.2801  0.2793
22183SOL    HW167990   0.586   7.309   1.594  0.4536 -0.4659 -0.3512
22183SOL    HW267991   0.543   7.249   1.726 -1.6316 -0.6873 -1.0851
22184SOL     OW67992   7.221   3.307   6.410  0.0788  0.0598 -0.2388
22184SOL    HW167993   7.149   3.315   6.472 -1.3058 -0.2786 -1.7240
22184SOL    HW267994   7.282   3.245   6.450 -1.3534 -1.0661  0.2459
22185SOL     OW67995   7.578   2.916   8.921 -0.2183 -0.4346  0.2972
22185SOL    HW167996   7.551   2.871   8.841  2.1983 -0.9869 -0.2735
22185SOL    HW267997   7.666   2.884   8.939  0.8368  2.5439  1.0306
22186SOL     OW67998   4.045   2.301   9.621  0.2570 -0.2645 -0.0542
22186SOL    HW167999   4.030   2.338   9.534  0.7185  0.7346  0.2683
22186SOL    HW268000   4.129   2.256   9.615  2.0409  2.6630  0.6702
22187SOL     OW68001   4.620   2.707   1.386  0.8408 -0.2249  0.2035
22187SOL    HW168002   4.612   2.629   1.330 -0.9481  2.0252 -3.0005
22187SOL    HW268003   4.713   2.713   1.407  1.2181 -2.4577 -0.5846
22188SOL     OW68004   2.714   1.443   9.806 -0.3070  0.1354 -0.3906
22188SOL    HW168005   2.675   1.528   9.786 -0.1793 -0.2010 -2.3033
22188SOL    HW268006   2.797   1.443   9.758 -0.3087 -1.0545 -0.4128
22189SOL     OW68007   7.113   1.145   9.369 -0.2953  0.2487  0.1816
22189SOL    HW168008   7.040   1.191   9.328  0.3994  1.7515  0.5820
22189SOL    HW268009   7.073   1.101   9.445 -0.6572  1.7757  0.9082
22190SOL     OW68010   5.326   7.250   1.662  0.1003  0.3603 -0.3259
22190SOL    HW168011   5.413   7.291   1.661 -0.5560  2.0922  2.6955
22190SOL    HW268012   5.270   7.313   1.617  0.0155  0.3522 -0.2315
22191SOL     OW68013   7.578   2.907   3.891 -0.3576  0.1392  0.3816
22191SOL    HW168014   7.571   2.944   3.979  2.1144  0.7237  0.4031
22191SOL    HW268015   7.507   2.948   3.842 -1.1549  0.5746  1.8463
22192SOL     OW68016   5.812   0.560   4.730 -0.0143  0.3878 -0.1591
22192SOL    HW168017   5.816   0.655   4.736 -1.4008  0.8054 -3.6095
22192SOL    HW268018   5.895   0.535   4.689 -0.0678  0.2240 -0.1703
22193SOL     OW68019   0.406   3.734   0.080 -0.0247 -0.4030 -0.0522
22193SOL    HW168020   0.315   3.710   0.092  0.2658 -0.7457  1.9219
22193SOL    HW268021   0.415   3.818   0.125  0.7038 -0.5522  0.0959
22194SOL     OW68022   3.025   2.238   4.685  0.5067 -0.0515  0.4228
22194SOL    HW168023   2.944   2.285   4.706  0.3763 -0.2118  0.2850
22194SOL    HW268024   3.000   2.146   4.689  0.8825 -0.1296  1.2038
22195SOL     OW68025   7.370   0.646   0.682 -0.2697  0.2135  0.1973
22195SOL    HW168026   7.384   0.634   0.588  1.8704 -2.0250  0.6887
22195SOL    HW268027   7.416   0.728   0.702 -1.1505  0.9635 -0.7513
22196SOL     OW68028   7.311   0.383   1.114  0.0804  0.0907 -0.4251
22196SOL    HW168029   7.355   0.305   1.147  0.0544 -0.4975 -1.7064
22196SOL    HW268030   7.380   0.433   1.072 -0.2309 -0.2474 -1.3786
22197SOL     OW68031   2.223   1.244   3.076 -0.4149  0.0095  0.3415
22197SOL    HW168032   2.222   1.191   3.156 -0.3731 -0.1242  0.2525
22197SOL    HW268033   2.246   1.332   3.106 -0.1685 -0.0909  0.4457
22198SOL     OW68034   3.725   7.743   6.655 -0.3975 -0.2269 -0.1229
22198SOL    HW168035   3.674   7.764   6.733 -2.3182 -0.7421 -1.1906
22198SOL    HW268036   3.760   7.656   6.672 -0.3489 -0.1127  0.3810
22199SOL     OW68037   3.871   5.508   0.549  0.3940 -0.2582 -0.0709
22199SOL    HW168038   3.924   5.588   0.549  0.1169 -0.0757  0.1407
22199SOL    HW268039   3.917   5.450   0.488  1.2254 -0.3572  0.6160
22200SOL     OW68040   3.157   5.036  11.386 -0.4277 -0.4889  0.3309
22200SOL    HW168041   3.087   5.074  11.440 -0.9955 -0.0022 -0.7094
22200SOL    HW268042   3.228   5.100  11.390 -0.1767 -0.8014  1.0762
22201SOL     OW68043   7.033   4.980   1.930 -0.0177 -0.0877 -0.4474
22201SOL    HW168044   7.107   4.925   1.956  0.7275  0.7431 -0.7742
22201SOL    HW268045   7.028   4.970   1.835 -1.1297 -1.1151 -0.3121
22202SOL     OW68046   6.330   5.648   4.946  0.3794 -0.2912 -0.6577
22202SOL    HW168047   6.269   5.637   5.019  1.2455 -0.9600 -0.0133
22202SOL    HW268048   6.280   5.624   4.869  0.1827 -2.1065 -0.0027
22203SOL     OW68049   1.958   1.341   9.485  0.2458  0.0565  0.0603
22203SOL    HW168050   2.007   1.260   9.472 -1.3724 -0.7787 -1.2153
22203SOL    HW268051   1.998   1.403   9.424  0.5268 -0.2542 -0.0744
22204SOL     OW68052   0.183   0.730   1.622 -0.0989  0.0786 -0.1348
22204SOL    HW168053   0.118   0.744   1.691 -0.3304  3.2653 -0.8524
22204SOL    HW268054   0.232   0.653   1.651 -1.9104 -0.3219  2.1892
22205SOL     OW68055   0.087   1.424  10.767 -0.5544 -0.1988  0.2371
22205SOL    HW168056   0.178   1.396  10.773 -0.2510  0.9425  1.4004
22205SOL    HW268057   0.065   1.455  10.855 -1.3951  1.4841 -0.5074
22206SOL     OW68058   0.779   4.067   7.824  0.1176 -0.1551  0.4617
22206SOL    HW168059   0.788   3.972   7.826 -0.0769 -0.2212 -0.7627
22206SOL    HW268060   0.861   4.100   7.859  0.2416 -0.7706  0.7655
22207SOL     OW68061   5.275   2.867   1.379 -0.1554 -0.1168  0.1489
22207SOL    HW168062   5.307   2.824   1.300  2.7580 -1.3261  1.8354
22207SOL    HW268063   5.235   2.949   1.348 -3.7472 -2.6844 -2.9703
22208SOL     OW68064   6.361   7.900  10.436 -0.1781  0.5684  0.1845
22208SOL    HW168065   6.279   7.853  10.449 -1.2346  1.4796 -2.5522
22208SOL    HW268066   6.339   7.992  10.452 -0.1092  0.9878 -1.8528
22209SOL     OW68067   0.955   6.505   9.678  0.0384 -0.1373 -0.1566
22209SOL    HW168068   1.037   6.457   9.668  0.0417 -0.3102  0.6948
22209SOL    HW268069   0.910   6.492   9.594  0.8499 -0.0879 -0.6072
22210SOL     OW68070   3.028   5.896   2.120  0.4092 -0.1284  0.3700
22210SOL    HW168071   3.093   5.925   2.184 -0.0100  0.3992  0.5620
22210SOL    HW268072   2.967   5.969   2.112 -0.5943 -0.8785  0.7652
22211SOL     OW68073   4.002   2.174   5.323 -0.0829  0.2933  0.4293
22211SOL    HW168074   4.077   2.198   5.268 -0.9845 -0.9569 -1.4800
22211SOL    HW268075   3.926   2.196   5.269 -1.0376 -0.2128  1.5437
22212SOL     OW68076   6.567   0.732   3.384  0.2986 -0.0289 -0.0161
22212SOL    HW168077   6.650   0.741   3.432 -0.3149  1.5605  0.8214
22212SOL    HW268078   6.554   0.817   3.342 -1.1234 -0.1028  0.2313
22213SOL     OW68079   3.153   5.010   6.248 -0.2249 -0.0561  0.1791
22213SOL    HW168080   3.138   4.955   6.325 -1.4638 -0.7292 -0.5098
22213SOL    HW268081   3.222   4.964   6.200 -2.3336 -2.0358 -1.2188
22214SOL     OW68082   5.143   0.715   9.181  0.0049  0.4504  0.1106
22214SOL    HW168083   5.212   0.761   9.230  1.0104  1.9354 -2.5174
22214SOL    HW268084   5.077   0.783   9.165 -1.1829 -0.4788  0.9112
22215SOL     OW68085   2.395   0.312   8.648  0.0681 -0.3478 -0.2056
22215SOL    HW168086   2.324   0.371   8.674 -0.7810 -1.4812  0.1435
22215SOL    HW268087   2.461   0.370   8.611 -0.0673  1.0076  1.4992
22216SOL     OW68088   6.116   6.234   0.204 -0.2045  0.0610  0.2203
22216SOL    HW168089   6.038   6.187   0.175 -0.7382  0.9803  0.1195
22216SOL    HW268090   6.103   6.323   0.172  1.5845 -0.0970 -1.1364
22217SOL     OW68091   7.436   5.307   7.145 -0.2075 -0.2231 -0.6302
22217SOL    HW168092   7.431   5.364   7.223 -1.2158 -0.4840 -0.4845
22217SOL    HW268093   7.503   5.348   7.090  1.5090 -0.7642  0.9422
22218SOL     OW68094   7.862   1.560   1.592  0.1860 -0.1659  0.5177
22218SOL    HW168095   7.818   1.640   1.562  0.1183 -0.7222 -0.9186
22218SOL    HW268096   7.954   1.586   1.601  0.7794 -0.5643 -2.8685
22219SOL     OW68097   4.925   6.265   5.563 -0.3263  0.0641 -0.0488
22219SOL    HW168098   4.854   6.221   5.610 -0.4579  1.2737  0.9075
22219SOL    HW268099   5.005   6.232   5.605 -0.4309  0.8633  0.7933
22220SOL     OW68100   4.852   7.287   3.443  0.1866  0.7803  0.5837
22220SOL    HW168101   4.783   7.287   3.376  1.0423  0.9039 -0.3055
22220SOL    HW268102   4.866   7.380   3.462  0.7893  0.7999  0.0520
22221SOL     OW68103   2.762   2.393   0.505 -0.1953 -0.4166 -0.0273
22221SOL    HW168104   2.705   2.466   0.479  0.4615  0.1336  0.0401
22221SOL    HW268105   2.806   2.368   0.424 -0.0680 -0.4252  0.0455
22222SOL     OW68106   5.042   1.982  11.982  0.4441  0.1034  0.5279
22222SOL    HW168107   4.948   1.988  11.999  0.1478 -0.8172 -0.6356
22222SOL    HW268108   5.056   1.892  11.954  1.4471  0.5794 -0.6102
22223SOL     OW68109   7.771   1.944   2.899  0.1075 -0.3022  0.2643
22223SOL    HW168110   7.783   1.868   2.842  2.3887  0.4984 -0.4041
22223SOL    HW268111   7.781   1.909   2.988 -0.8933 -1.1069  0.0802
22224SOL     OW68112   4.164   4.573   0.379 -0.1682 -0.8259 -0.1856
22224SOL    HW168113   4.116   4.653   0.399  1.1538 -0.6195  2.8872
22224SOL    HW268114   4.256   4.598   0.384  0.2800 -2.4555  0.7568
22225SOL     OW68115   7.147   6.087   0.660  0.1807 -0.5622  0.4038
22225SOL    HW168116   7.099   6.076   0.578  0.3018 -0.3574  0.3035
22225SOL    HW268117   7.087   6.055   0.728  0.4089 -1.5337  0.1627
22226SOL     OW68118   2.326   1.725   3.481  0.6243  0.5386  0.0659
22226SOL    HW168119   2.255   1.776   3.441  0.4862  2.3036  2.3322
22226SOL    HW268120   2.281   1.654   3.527  0.6854 -0.6773 -1.6725
22227SOL     OW68121   2.358   2.233   8.351  0.4327 -0.6124 -0.1864
22227SOL    HW168122   2.355   2.222   8.256  0.4446  0.5709 -0.3346
22227SOL    HW268123   2.370   2.327   8.364  1.5232 -0.8896  0.9664
22228SOL     OW68124   3.627   3.538   0.962 -0.5656 -0.1162  0.1890
22228SOL    HW168125   3.681   3.468   0.926 -1.8079 -1.1022  0.1655
22228SOL    HW268126   3.537   3.506   0.954 -1.0398  0.6363  1.9781
22229SOL     OW68127   3.990   4.603  10.091 -0.2140  0.0285  0.1832
22229SOL    HW168128   4.052   4.601  10.164  0.3651  0.8696 -0.2786
22229SOL    HW268129   4.044   4.588  10.013 -0.8284 -0.8767 -0.0852
22230SOL     OW68130   1.214   6.611   2.621  0.0547 -0.2881 -0.5150
22230SOL    HW168131   1.279   6.555   2.662 -1.8957 -0.9813  1.7965
22230SOL    HW268132   1.214   6.691   2.673 -1.3989 -0.5670 -0.0512
22231SOL     OW68133   2.097   2.536   9.897  0.2060  0.0147 -0.6189
22231SOL    HW168134   2.056   2.514   9.813 -1.3677  0.8463 -0.1074
22231SOL    HW268135   2.036   2.597   9.938  0.5055 -1.0476  1.5269
22232SOL     OW68136   7.907   0.748  10.564 -0.4345  0.5730 -0.1140
22232SOL    HW168137   7.895   0.790  10.650  0.4136  1.8432 -0.5933
22232SOL    HW268138   7.883   0.816  10.501  0.0682  0.0212 -0.9082
22233SOL     OW68139   7.410   7.170   6.440 -0.1723 -0.7173 -0.3264
22233SOL    HW168140   7.501   7.141   6.436 -0.5188 -1.7915 -0.6410
22233SOL    HW268141   7.378   7.160   6.351 -0.7761 -0.9437 -0.0893
22234SOL     OW68142   6.133   5.207   7.264 -0.3700  0.0618  0.2386
22234SOL    HW168143   6.201   5.251   7.214 -0.5403  0.5390  0.4236
22234SOL    HW268144   6.146   5.237   7.354  0.3235 -1.2658  0.6113
22235SOL     OW68145   5.171   1.697   1.418  0.4715  0.2062 -0.1242
22235SOL    HW168146   5.085   1.730   1.442  0.6357  1.2957 -0.9299
22235SOL    HW268147   5.225   1.776   1.407  1.1668 -0.3699 -1.0674
22236SOL     OW68148   0.465   6.713   9.152 -0.1860  0.7004  0.1716
22236SOL    HW168149   0.538   6.763   9.115 -0.4664  0.5054 -0.6718
22236SOL    HW268150   0.388   6.744   9.103  0.1571 -3.9270 -4.1234
22237SOL     OW68151   1.445   1.509   8.312 -0.2050 -0.2292 -0.3990
22237SOL    HW168152   1.524   1.466   8.280  0.1290 -0.9968  1.3268
22237SOL    HW268153   1.373   1.458   8.276  0.1210 -0.4089 -0.7936
22238SOL     OW68154   2.649   7.745   6.324 -0.1151  0.4051  0.5591
22238SOL    HW168155   2.661   7.819   6.265  3.1944  0.0483  0.6018
22238SOL    HW268156   2.606   7.679   6.270 -1.3589  1.6343 -0.0337
22239SOL     OW68157   3.486   6.097   2.772  0.0929  0.0714 -0.3190
22239SOL    HW168158   3.509   6.136   2.687  2.8888  0.7981  0.6587
22239SOL    HW268159   3.464   6.172   2.827  1.6859 -0.0323  0.5047
22240SOL     OW68160   7.441   1.830   1.702  0.4582  0.2270 -0.1040
22240SOL    HW168161   7.508   1.762   1.703 -0.9522 -1.2229 -0.5038
22240SOL    HW268162   7.469   1.893   1.769  1.7329 -0.8101  0.3654
22241SOL     OW68163   7.972   3.621   6.813 -0.4530 -0.2913  0.4135
22241SOL    HW168164   7.878   3.613   6.832 -0.2846  0.9597  2.0319
22241SOL    HW268165   8.013   3.628   6.899  0.9229  1.1777 -0.3041
22242SOL     OW68166   1.025   3.727   8.899  0.0003 -0.4860  0.2710
22242SOL    HW168167   0.939   3.687   8.914 -0.2650 -0.3561 -0.8430
22242SOL    HW268168   1.062   3.678   8.826  0.1910  0.4897 -0.3042
22243SOL     OW68169   7.532   7.237   8.884 -0.4307  0.3403 -0.0884
22243SOL    HW168170   7.523   7.328   8.912  1.6704  0.6307 -0.1479
22243SOL    HW268171   7.522   7.239   8.789  1.1931  0.8275 -0.2881
22244SOL     OW68172   3.824   7.414   7.825 -0.2361  0.2943 -0.1736
22244SOL    HW168173   3.838   7.381   7.913  0.9780  0.0094 -0.4460
22244SOL    HW268174   3.867   7.350   7.768  1.0310  1.6213 -0.7945
22245SOL     OW68175   1.756   0.490  11.098  0.4695 -0.0823 -0.2680
22245SOL    HW168176   1.716   0.416  11.145  0.9415 -1.1442 -1.4747
22245SOL    HW268177   1.681   0.537  11.061  0.1985 -0.4534 -0.2014
22246SOL     OW68178   0.589   7.723  10.546 -0.2863  0.2327  0.2791
22246SOL    HW168179   0.613   7.704  10.637  1.0320  0.8713  0.0939
22246SOL    HW268180   0.509   7.672  10.531 -0.9069  0.6315  1.9860
22247SOL     OW68181   1.246   0.498   9.716  0.3434  0.2916 -0.3999
22247SOL    HW168182   1.246   0.455   9.802 -0.8296  0.0765 -0.4933
22247SOL    HW268183   1.338   0.515   9.698  0.6167  0.2672  0.8668
22248SOL     OW68184   6.559   1.872   9.336  0.5351 -0.1129  0.1337
22248SOL    HW168185   6.586   1.874   9.428  0.3020  1.5514  0.1971
22248SOL    HW268186   6.603   1.795   9.300  0.5714 -0.8345  1.6482
22249SOL     OW68187   4.930   1.540   0.399  0.1487  0.0411  0.2764
22249SOL    HW168188   4.867   1.605   0.430  1.0158  1.2178 -0.3621
22249SOL    HW268189   4.985   1.521   0.474 -1.3148 -1.5156  1.0503
22250SOL     OW68190   6.423   1.378   4.443  0.1680 -0.1760 -0.4392
22250SOL    HW168191   6.462   1.291   4.458 -0.4152 -0.2313  0.8470
22250SOL    HW268192   6.359   1.363   4.373 -0.4033 -0.9438  0.2235
22251SOL     OW68193   5.176   5.222   5.761  0.0622 -0.1738  0.2228
22251SOL    HW168194   5.114   5.241   5.690 -0.6214  2.6232  1.4263
22251SOL    HW268195   5.261   5.221   5.719 -0.5666 -2.0138 -1.1348
22252SOL     OW68196   0.441   7.620   1.961  0.5073  0.4854 -0.2028
22252SOL    HW168197   0.393   7.647   2.039 -0.4388  1.0442 -0.9644
22252SOL    HW268198   0.502   7.552   1.992 -1.7678 -1.3275  0.5381
22253SOL     OW68199   0.972   0.224   4.793  0.0530  0.3588 -0.1707
22253SOL    HW168200   0.885   0.183   4.790  0.9033 -1.4929 -2.2809
22253SOL    HW268201   0.976   0.278   4.714  1.5101 -1.1998 -1.2159
22254SOL     OW68202   5.393   5.389  11.253 -0.0143  0.2736 -0.3327
22254SOL    HW168203   5.401   5.481  11.225 -1.5143  0.6304  0.3275
22254SOL    HW268204   5.467   5.376  11.312  1.1040  0.5760 -1.6095
22255SOL     OW68205   1.199   7.172   1.300  0.0282  0.0735  0.2383
22255SOL    HW168206   1.124   7.229   1.282 -0.7171 -0.3917  1.6417
22255SOL    HW268207   1.175   7.088   1.260  0.6411  0.4305 -0.8989
22256SOL     OW68208   0.391   6.857   3.390  0.1152 -0.1593  0.5758
22256SOL    HW168209   0.425   6.946   3.386 -0.3456  0.0825  1.6758
22256SOL    HW268210   0.320   6.855   3.326  0.2972  0.1897  0.3624
22257SOL     OW68211   1.578   2.649   2.453  0.7017  0.5213 -0.5705
22257SOL    HW168212   1.489   2.626   2.427  0.4918 -0.7124  1.0666
22257SOL    HW268213   1.634   2.593   2.399  0.2800 -1.9004  1.3234
22258SOL     OW68214   6.544   7.037   2.205  0.6659  0.3637 -0.5044
22258SOL    HW168215   6.608   7.036   2.276  0.8400  0.6891 -0.6528
22258SOL    HW268216   6.568   6.962   2.150 -0.2465 -0.6593  0.4501
22259SOL     OW68217   5.281   1.293   8.261 -0.4557 -0.1334  0.0955
22259SOL    HW168218   5.339   1.227   8.223 -0.8088 -0.5437  0.2612
22259SOL    HW268219   5.316   1.377   8.231  0.0490 -0.3938 -0.0415
22260SOL     OW68220   5.153   6.156   1.585  0.2861  0.5138  0.1806
22260SOL    HW168221   5.179   6.164   1.677  0.7031  0.5089  0.0682
22260SOL    HW268222   5.062   6.183   1.582  0.1332  0.0631  0.6787
22261SOL     OW68223   1.437   3.177   0.153  0.1142  0.2975 -0.1592
22261SOL    HW168224   1.531   3.168   0.169  0.5410 -0.3973 -2.6615
22261SOL    HW268225   1.420   3.119   0.079 -2.3156  0.4171  0.2278
22262SOL     OW68226   7.782   6.967   0.362 -0.0707  0.3147  0.4632
22262SOL    HW168227   7.696   6.939   0.392  0.1983 -0.1115  0.8430
22262SOL    HW268228   7.828   6.996   0.441 -0.0256  0.9770  0.2004
22263SOL     OW68229   7.898   2.020   6.706  0.0587 -0.1786 -0.2185
22263SOL    HW168230   7.873   1.967   6.630 -0.7597  1.2099 -0.9479
22263SOL    HW268231   7.976   2.068   6.677  0.5550 -0.6404  0.3045
22264SOL     OW68232   1.411   5.879   1.599 -0.2205  0.0291  0.0450
22264SOL    HW168233   1.389   5.806   1.541  0.7219 -1.3851  1.3662
22264SOL    HW268234   1.361   5.862   1.679 -0.8056  1.4433  0.0095
22265SOL     OW68235   6.813   5.300   1.713 -0.0882  0.5750  0.6403
22265SOL    HW168236   6.769   5.244   1.776  1.2022  0.4415  1.4613
22265SOL    HW268237   6.895   5.326   1.756  1.6840 -0.9247 -1.5833
22266SOL     OW68238   7.449   2.091  10.499 -0.0802  0.1531 -0.5424
22266SOL    HW168239   7.359   2.100  10.467 -0.6761  1.0513  1.2449
22266SOL    HW268240   7.442   2.026  10.569  1.0451 -1.2044 -1.6263
22267SOL     OW68241   5.463   1.144  10.448  0.3111  0.2167 -0.0952
22267SOL    HW168242   5.517   1.222  10.460  0.8958 -0.2337  0.2635
22267SOL    HW268243   5.468   1.098  10.532  0.0843 -0.2799 -0.3478
22268SOL     OW68244   1.123   1.510   5.188 -0.5008  0.2196  0.6479
22268SOL    HW168245   1.090   1.479   5.104 -1.8496  1.7587  0.5597
22268SOL    HW268246   1.190   1.575   5.165 -0.5669  0.3251  0.7478
22269SOL     OW68247   4.108   1.117   2.682  1.1234  0.2419  0.0275
22269SOL    HW168248   4.089   1.033   2.640 -0.5560  0.0179  1.1202
22269SOL    HW268249   4.176   1.098   2.746  0.6529 -0.3408  0.3673
22270SOL     OW68250   6.790   2.144   1.818  0.2743  0.4041 -0.4038
22270SOL    HW168251   6.757   2.119   1.732 -1.4550  0.6130  0.1691
22270SOL    HW268252   6.832   2.229   1.804 -0.0226  0.4520 -1.0277
22271SOL     OW68253   3.611   1.811   3.866  0.4126 -0.2212  0.4516
22271SOL    HW168254   3.645   1.842   3.950  1.2317  1.0928 -0.3282
22271SOL    HW268255   3.679   1.834   3.803  0.2726 -2.1130 -0.4404
22272SOL     OW68256   5.562   6.916   3.623 -0.0625 -0.1428 -0.3589
22272SOL    HW168257   5.476   6.889   3.656 -0.2346 -0.8746 -1.3605
22272SOL    HW268258   5.617   6.837   3.631  0.5366  0.3249  0.3003
22273SOL     OW68259   2.336   1.897   1.583  0.0456 -0.1171 -0.2871
22273SOL    HW168260   2.282   1.826   1.619 -0.3061  1.1062  1.7612
22273SOL    HW268261   2.385   1.931   1.659  1.9409  0.3495 -1.6513
22274SOL     OW68262   7.849   5.800   4.143 -0.1283  0.3596 -0.0735
22274SOL    HW168263   7.774   5.856   4.161 -1.5477 -1.2305 -0.7490
22274SOL    HW268264   7.852   5.739   4.217 -1.1742 -1.2408 -1.2712
22275SOL     OW68265   5.832   3.382   9.688 -0.3517 -0.1951 -0.3059
22275SOL    HW168266   5.762   3.446   9.681 -1.0003 -0.8902 -0.2483
22275SOL    HW268267   5.912   3.431   9.667 -0.7053  0.8737  0.7501
22276SOL     OW68268   6.173   4.583  10.747 -0.0389 -0.0340  0.6989
22276SOL    HW168269   6.112   4.581  10.820  0.7751 -0.7047  1.3709
22276SOL    HW268270   6.158   4.668  10.706 -2.5211 -0.7530 -0.1208
22277SOL     OW68271   3.969   1.082   7.821  0.2051  0.5405 -0.3306
22277SOL    HW168272   4.002   1.044   7.740  1.0194  1.9704 -0.6979
22277SOL    HW268273   3.959   1.007   7.880  2.0806 -0.2277 -0.9037
22278SOL     OW68274   6.350   0.369   3.114  0.0776 -0.0171  0.2910
22278SOL    HW168275   6.259   0.367   3.084  0.0855  0.2636  0.2454
22278SOL    HW268276   6.401   0.391   3.036  0.2822 -1.0844  0.1054
22279SOL     OW68277   4.605   0.455   2.265 -0.2449 -0.3934 -0.0381
22279SOL    HW168278   4.562   0.518   2.206  0.9779 -0.0837 -0.6419
22279SOL    HW268279   4.692   0.493   2.280 -0.3015 -0.8159  1.4336
22280SOL     OW68280   7.884   3.013   6.372 -0.2254  0.3193  0.5357
22280SOL    HW168281   7.890   2.923   6.405 -3.0170  0.0799  0.5753
22280SOL    HW268282   7.897   3.004   6.277  0.8639  0.1044  0.6839
22281SOL     OW68283   6.298   5.347  11.603 -0.5618  0.0008  0.3893
22281SOL    HW168284   6.263   5.435  11.620 -1.5921 -0.4303  0.5589
22281SOL    HW268285   6.280   5.298  11.683 -0.9756 -0.6646 -0.0987
22282SOL     OW68286   3.029   6.890   1.881 -0.0754  0.2247 -0.1688
22282SOL    HW168287   2.959   6.838   1.920 -1.3638  1.2338 -1.0588
22282SOL    HW268288   3.011   6.889   1.787  0.0526  1.9705 -0.2537
22283SOL     OW68289   2.370   7.927   2.150  0.1159  0.0112  0.0028
22283SOL    HW168290   2.444   7.972   2.191  0.2159 -1.0364  1.0216
22283SOL    HW268291   2.365   7.843   2.195 -1.4763 -0.0841 -0.2950
22284SOL     OW68292   7.868   1.022  10.552 -0.5789  0.2467  0.0337
22284SOL    HW168293   7.774   1.020  10.534 -0.3567  2.0566 -1.7767
22284SOL    HW268294   7.887   1.115  10.565  0.8835 -0.1452  0.9053
22285SOL     OW68295   3.545   0.494  11.452  0.3567  0.1206 -0.7310
22285SOL    HW168296   3.613   0.560  11.462  0.5120 -0.2294  0.8364
22285SOL    HW268297   3.497   0.496  11.535  0.1147 -1.4393 -0.7944
22286SOL     OW68298   3.174   6.916   5.729 -0.2496  0.1791  0.5795
22286SOL    HW168299   3.147   6.881   5.644 -0.4909 -0.8342  1.0510
22286SOL    HW268300   3.269   6.927   5.721 -0.1770 -0.5352  0.3939
22287SOL     OW68301   2.843   5.604   0.172  0.1097 -0.4232 -0.1552
22287SOL    HW168302   2.918   5.544   0.165 -0.5072 -1.0629 -1.3702
22287SOL    HW268303   2.770   5.548   0.197 -0.5100 -0.2163 -1.4650
22288SOL     OW68304   2.582   3.721   8.111  1.0157 -0.1374 -0.3685
22288SOL    HW168305   2.563   3.640   8.158 -1.2220  0.2198 -0.5596
22288SOL    HW268306   2.611   3.692   8.025 -2.1726 -0.8290 -1.3304
22289SOL     OW68307   4.559   6.962   6.461 -0.2250 -0.0483  0.9192
22289SOL    HW168308   4.574   6.936   6.370  3.6317  3.6991  0.1645
22289SOL    HW268309   4.489   7.026   6.456  1.8127  2.2577 -0.0582
22290SOL     OW68310   2.596   4.514   7.502 -0.2503 -0.3245 -0.5578
22290SOL    HW168311   2.580   4.453   7.574 -0.2573  0.5948  0.2585
22290SOL    HW268312   2.691   4.524   7.500 -0.1258 -1.5373 -1.7280
22291SOL     OW68313   1.516   6.321   3.856  0.1587 -0.1030  0.3266
22291SOL    HW168314   1.506   6.358   3.943 -1.3585  0.6548 -0.1380
22291SOL    HW268315   1.531   6.227   3.871 -2.8826 -0.5234  1.3778
22292SOL     OW68316   4.803   5.349   6.426 -0.0643  0.4168 -0.1686
22292SOL    HW168317   4.789   5.267   6.474  1.5184  0.8800  1.1661
22292SOL    HW268318   4.895   5.349   6.403 -0.4355  0.9985 -1.8004
22293SOL     OW68319   1.977   2.174   9.558  0.0899 -0.5162 -0.0427
22293SOL    HW168320   1.893   2.149   9.597  1.5252 -2.4098  2.0380
22293SOL    HW268321   1.956   2.250   9.504 -3.1178 -1.4830 -0.3617
22294SOL     OW68322   0.999   0.164  11.275 -0.1070  0.5534  0.0576
22294SOL    HW168323   1.088   0.131  11.287  0.1800  0.7343 -1.4288
22294SOL    HW268324   0.949   0.088  11.246 -0.5144  0.3997  1.1023
22295SOL     OW68325   6.559   3.083   1.816 -0.0298 -0.0134 -0.0710
22295SOL    HW168326   6.519   3.141   1.881 -0.3405  0.4902 -0.6893
22295SOL    HW268327   6.506   3.097   1.737  3.3473  3.4214 -2.1077
22296SOL     OW68328   0.943   1.620   0.373  0.5573 -0.1016 -0.5911
22296SOL    HW168329   0.859   1.634   0.328  0.6762 -1.7888 -1.4094
22296SOL    HW268330   0.918   1.586   0.459  0.3717  1.8316  0.1765
22297SOL     OW68331   2.570   4.649   5.632 -0.0606  0.2389  0.1522
22297SOL    HW168332   2.504   4.585   5.657  0.1264  0.7781  2.2209
22297SOL    HW268333   2.528   4.701   5.562 -1.0899 -0.6076  0.1193
22298SOL     OW68334   6.317   5.918   4.615  0.6156 -0.1333  0.3511
22298SOL    HW168335   6.268   5.970   4.678 -1.0051 -1.6455  0.3726
22298SOL    HW268336   6.259   5.847   4.591  1.1123  0.4138 -2.9401
22299SOL     OW68337   4.480   5.767   6.657  0.4709 -0.4550  0.1603
22299SOL    HW168338   4.451   5.827   6.726 -0.7832  0.1238 -0.8341
22299SOL    HW268339   4.567   5.739   6.685  0.9765  1.5790  0.8398
22300SOL     OW68340   6.855   5.705   8.594 -0.4982 -0.9043  0.1330
22300SOL    HW168341   6.782   5.643   8.585 -0.7836 -0.6822  0.8033
22300SOL    HW268342   6.925   5.667   8.542 -1.7259 -0.0773 -2.2549
22301SOL     OW68343   1.479   4.401   2.164  0.2605  0.1422  0.4435
22301SOL    HW168344   1.435   4.349   2.231  1.6735 -0.2238  1.1250
22301SOL    HW268345   1.418   4.473   2.146 -0.8212 -0.6117  0.9738
22302SOL     OW68346   5.704   5.175   7.116 -0.0445  0.1520  0.4616
22302SOL    HW168347   5.761   5.199   7.189 -0.3812  1.0547  0.4359
22302SOL    HW268348   5.764   5.145   7.048  0.2850 -0.4881  1.0157
22303SOL     OW68349   1.672   6.979   7.217  0.1688  0.1746  0.0882
22303SOL    HW168350   1.725   6.917   7.167  0.6620  1.4378 -1.0489
22303SOL    HW268351   1.726   6.999   7.294  1.1518  1.0345 -0.7852
22304SOL     OW68352   5.477   6.257   9.432  0.1541 -0.4659  0.4833
22304SOL    HW168353   5.545   6.323   9.441 -0.7557  0.5182  0.3089
22304SOL    HW268354   5.424   6.266   9.511  0.2010 -1.2038  0.6076
22305SOL     OW68355   2.806   6.667  11.012 -0.0862 -0.3831 -0.0521
22305SOL    HW168356   2.892   6.667  10.969  0.3607 -2.8460  0.6926
22305SOL    HW268357   2.818   6.723  11.089  0.6895 -0.2691 -0.2431
22306SOL     OW68358   0.742   4.466  11.247  0.5178  0.3473  0.1644
22306SOL    HW168359   0.697   4.550  11.256 -0.5435 -0.4068  3.6620
22306SOL    HW268360   0.823   4.477  11.297  2.0333  0.2050 -2.1151
22307SOL     OW68361   6.541   2.096   3.399 -0.0967  0.2278  0.3255
22307SOL    HW168362   6.499   2.158   3.459  0.5006 -0.7959  1.8517
22307SOL    HW268363   6.483   2.020   3.399 -0.4837  0.4920 -1.0214
22308SOL     OW68364   7.645   7.873   9.925  0.1835  0.0601  0.3190
22308SOL    HW168365   7.625   7.810   9.856  1.0577  0.1855 -0.0744
22308SOL    HW268366   7.658   7.956   9.878  1.3007  0.0389  0.5656
22309SOL     OW68367   3.902   3.704   2.036  0.1627  0.3519 -0.4528
22309SOL    HW168368   3.909   3.777   1.975  0.0631  0.7822  0.0423
22309SOL    HW268369   3.849   3.738   2.108  0.6930  0.0097  0.1069
22310SOL     OW68370   6.140   0.020   3.016  0.2139 -0.6045  0.6798
22310SOL    HW168371   6.135   0.116   3.012 -0.8300 -0.6346  1.1809
22310SOL    HW268372   6.117  -0.002   3.106 -0.8152 -1.3931  0.2445
22311SOL     OW68373   0.445   1.460   1.786  0.0394  0.2980  0.3824
22311SOL    HW168374   0.465   1.536   1.732 -2.5855  0.1571 -0.9475
22311SOL    HW268375   0.381   1.411   1.735 -0.2973 -1.4363  2.3540
22312SOL     OW68376   0.831   2.206   6.990  0.0619  0.2824  0.0980
22312SOL    HW168377   0.814   2.257   6.911  0.8219  0.1870 -0.1294
22312SOL    HW268378   0.784   2.124   6.976  0.2196  0.2541 -0.2701
22313SOL     OW68379   2.900   6.982   7.146 -0.1914  0.1272 -0.8661
22313SOL    HW168380   2.912   6.920   7.073  0.3073 -0.4957 -0.2660
22313SOL    HW268381   2.830   6.942   7.199  0.2463 -0.0074 -0.3882
22314SOL     OW68382   5.931   7.451   8.138  0.4086  0.0451 -0.1149
22314SOL    HW168383   5.995   7.432   8.206 -1.3877 -3.2006  0.8608
22314SOL    HW268384   5.974   7.425   8.057  0.5195 -1.7677  0.4854
22315SOL     OW68385   6.269   6.451   1.671  0.0745 -0.5468 -0.5721
22315SOL    HW168386   6.304   6.503   1.599 -0.3188 -1.1310 -1.1924
22315SOL    HW268387   6.175   6.470   1.672  0.0431 -0.7054 -0.3489
22316SOL     OW68388   4.438   4.586   5.454 -0.1298  0.4871  0.4584
22316SOL    HW168389   4.486   4.508   5.426 -0.2276 -0.4116  2.6180
22316SOL    HW268390   4.503   4.656   5.453  0.6196 -0.1827  0.8970
22317SOL     OW68391   3.812   1.550   0.113 -0.2584 -0.1742 -0.8360
22317SOL    HW168392   3.809   1.460   0.144  2.6531 -0.1176 -0.1269
22317SOL    HW268393   3.845   1.544   0.024  1.4074  0.2101 -0.2816
22318SOL     OW68394   2.965   0.626   9.726 -0.0805  0.1904 -0.1084
22318SOL    HW168395   3.052   0.656   9.700 -0.0497  1.0719  0.9459
22318SOL    HW268396   2.981   0.542   9.770  0.1906  0.1448 -0.2932
22319SOL     OW68397   3.203   3.288   2.953  0.3420  0.3744 -0.7609
22319SOL    HW168398   3.236   3.269   2.865 -0.6687 -1.0084 -0.8915
22319SOL    HW268399   3.263   3.241   3.012  0.3908  0.3976 -0.7923
22320SOL     OW68400   7.423   2.502   3.844 -0.8041 -0.5487  0.0050
22320SOL    HW168401   7.342   2.540   3.811 -0.7900 -0.1414  0.4219
22320SOL    HW268402   7.423   2.412   3.811  0.7988  0.6677 -4.0152
22321SOL     OW68403   3.969   4.134   6.376  0.2316  0.0637  0.2601
22321SOL    HW168404   4.026   4.095   6.309  0.5787 -0.4087  0.8274
22321SOL    HW268405   3.955   4.224   6.346  0.1035 -0.2388 -0.6306
22322SOL     OW68406   7.543   2.965  12.298 -0.0504 -0.1007 -0.2995
22322SOL    HW168407   7.491   2.910  12.357  2.3966 -2.1380  0.1443
22322SOL    HW268408   7.634   2.950  12.326  0.9041  2.2005 -1.8907
22323SOL     OW68409   7.733   2.330   2.620 -0.3625  0.2934 -0.0636
22323SOL    HW168410   7.642   2.326   2.589 -0.7118 -0.0200  0.9747
22323SOL    HW268411   7.776   2.390   2.559 -1.2854  0.5202 -0.5128
22324SOL     OW68412   3.992   5.744   8.562  0.0873 -0.4706 -0.0718
22324SOL    HW168413   3.916   5.784   8.518 -0.0893 -1.1655 -0.4060
22324SOL    HW268414   4.064   5.758   8.500  0.1125 -0.3027 -0.0046
22325SOL     OW68415   4.359   0.053   1.788 -0.8856 -0.2657 -0.2474
22325SOL    HW168416   4.280   0.052   1.734  0.6249  2.0785 -2.7979
22325SOL    HW268417   4.344  -0.013   1.855 -4.3251 -0.9944 -1.5540
22326SOL     OW68418   7.593   2.662   8.088  0.4268  0.0216 -0.0918
22326SOL    HW168419   7.511   2.631   8.050  1.5409 -1.3237 -1.5250
22326SOL    HW268420   7.599   2.616   8.172 -2.3211  3.4289  2.2382
22327SOL     OW68421   2.348   4.021   1.213 -0.2168 -0.2661  0.4070
22327SOL    HW168422   2.429   3.990   1.253 -0.5262 -1.0764  0.4228
22327SOL    HW268423   2.316   3.946   1.163 -0.4300  0.3677 -0.4282
22328SOL     OW68424   6.698   1.353   1.922 -0.7360  0.2984 -0.3190
22328SOL    HW168425   6.634   1.298   1.968 -1.2486  1.1393 -0.0231
22328SOL    HW268426   6.703   1.433   1.974  1.1783 -0.0545  0.1399
22329SOL     OW68427   6.423   7.131  10.160  0.2412 -0.4206  0.0457
22329SOL    HW168428   6.349   7.148  10.218  1.4748 -0.1691  1.5923
22329SOL    HW268429   6.500   7.144  10.214  1.5200  1.5618 -2.0786
22330SOL     OW68430   0.645   1.505   8.633  0.0109 -0.1266 -0.3325
22330SOL    HW168431   0.606   1.534   8.716 -0.1680 -0.2535 -0.3733
22330SOL    HW268432   0.706   1.575   8.610  0.3047 -0.2473  0.0756
22331SOL     OW68433   1.832   7.237  12.047  0.2947 -0.1477 -0.4361
22331SOL    HW168434   1.875   7.159  12.013  0.7640  0.3242 -0.9386
22331SOL    HW268435   1.745   7.207  12.075  0.8660 -1.0758  0.4117
22332SOL     OW68436   6.712   3.363   1.884  0.6238 -0.0146  0.5546
22332SOL    HW168437   6.789   3.363   1.826  0.4959 -0.7007  0.3745
22332SOL    HW268438   6.723   3.441   1.938  1.3068  0.0451  0.3439
22333SOL     OW68439   3.677   5.658   8.941  0.1610 -0.3664  0.3806
22333SOL    HW168440   3.676   5.718   9.015  0.2121 -0.7096  0.6674
22333SOL    HW268441   3.765   5.666   8.904 -0.2077  0.5903 -0.3045
22334SOL     OW68442   0.323   1.977   8.996 -0.1823 -0.1419  0.7676
22334SOL    HW168443   0.242   1.987   9.046  0.0012  2.4314  0.6903
22334SOL    HW268444   0.386   2.033   9.042  1.0670 -0.7480 -0.1660
22335SOL     OW68445   4.449   2.684   5.257 -0.7889  0.4907 -0.1920
22335SOL    HW168446   4.468   2.590   5.255 -0.8620  0.4765 -0.2430
22335SOL    HW268447   4.410   2.698   5.343  2.2808  1.0825  1.2408
22336SOL     OW68448   3.208   6.915   5.233  0.1636 -0.3984 -0.8171
22336SOL    HW168449   3.177   6.859   5.305  1.5523 -0.9266 -0.5988
22336SOL    HW268450   3.156   6.887   5.157  0.0361 -1.1995 -0.4521
22337SOL     OW68451   3.446   5.197   3.249 -0.0941 -0.0583  0.4123
22337SOL    HW168452   3.474   5.168   3.336  0.2458 -0.1141  0.2830
22337SOL    HW268453   3.468   5.290   3.247  3.9457 -0.8365 -1.1739
22338SOL     OW68454   6.411   7.755   0.942 -0.2907  0.3746  0.5248
22338SOL    HW168455   6.334   7.765   0.885  0.2236 -1.6203 -0.6000
22338SOL    HW268456   6.477   7.813   0.903 -0.2791 -0.1816 -0.3002
22339SOL     OW68457   1.897   0.714   8.286 -0.0755 -0.3456  0.4901
22339SOL    HW168458   1.932   0.629   8.315  0.6274 -0.3989 -0.4642
22339SOL    HW268459   1.830   0.691   8.222  0.1325 -0.1800  0.2127
22340SOL     OW68460   3.461   2.513   1.881  0.0972 -0.2343  0.7165
22340SOL    HW168461   3.540   2.512   1.827 -1.2713 -3.3559 -1.5721
22340SOL    HW268462   3.492   2.491   1.969  1.9050 -0.1642  0.1318
22341SOL     OW68463   7.377   0.086   6.597 -0.0756 -0.0089 -0.2360
22341SOL    HW168464   7.415   0.161   6.552  0.4379 -0.2080 -0.1455
22341SOL    HW268465   7.443   0.061   6.662 -0.6258  0.0164  0.3428
22342SOL     OW68466   4.170   3.466   4.826  0.0564 -0.9450 -0.0526
22342SOL    HW168467   4.102   3.423   4.878 -1.2113  2.4878  1.4650
22342SOL    HW268468   4.244   3.477   4.886  0.5662 -1.4801 -0.5792
22343SOL     OW68469   5.276   7.004   6.988 -0.2409 -0.1425  0.7199
22343SOL    HW168470   5.329   7.076   6.953 -1.9018 -0.0147 -1.8073
22343SOL    HW268471   5.325   6.925   6.966  0.3367  0.0875  1.1499
22344SOL     OW68472   2.684   3.636   4.908  0.1557  0.4548 -0.5536
22344SOL    HW168473   2.764   3.671   4.871  0.2271  1.7262  0.7177
22344SOL    HW268474   2.627   3.712   4.921 -0.0400  0.0340  1.4327
22345SOL     OW68475   2.692   6.693   9.220 -0.0651  0.1512 -0.6790
22345SOL    HW168476   2.658   6.618   9.269  0.8342 -0.5179 -1.0337
22345SOL    HW268477   2.668   6.674   9.129  2.2996 -1.0219 -1.1427
22346SOL     OW68478   1.418   5.086   0.142 -0.4929 -0.3855 -0.0422
22346SOL    HW168479   1.385   5.032   0.070 -0.2042 -1.5408  0.6516
22346SOL    HW268480   1.479   5.147   0.101  1.0324 -2.1849 -0.5940
22347SOL     OW68481   6.997   4.562   8.396  0.3372  0.2593  0.2347
22347SOL    HW168482   7.000   4.502   8.471  0.9365 -1.8160 -1.3685
22347SOL    HW268483   6.916   4.612   8.409 -1.0898 -2.0322  0.8376
22348SOL     OW68484   0.049   1.438   8.279 -0.2278 -0.1030 -0.5110
22348SOL    HW168485  -0.030   1.439   8.225  1.1979  1.1921 -2.7303
22348SOL    HW268486   0.093   1.356   8.256  0.2943  0.3683 -1.2448
22349SOL     OW68487   4.849   0.184   4.839  0.4655 -0.3108 -0.2411
22349SOL    HW168488   4.929   0.135   4.858  0.4822  0.1452  0.9940
22349SOL    HW268489   4.817   0.147   4.758  0.8939 -1.8476  0.2531
22350SOL     OW68490   6.394   2.442   5.472 -0.2527 -0.1246 -0.1075
22350SOL    HW168491   6.370   2.388   5.547 -1.7122  0.9130  0.2140
22350SOL    HW268492   6.390   2.383   5.397  1.6899 -1.2898  0.6403
22351SOL     OW68493   7.655   4.447   4.371 -0.1295 -0.4419  0.1786
22351SOL    HW168494   7.702   4.442   4.288  1.3756  2.2094  0.7523
22351SOL    HW268495   7.659   4.540   4.395  0.5154 -1.2724  3.7782
22352SOL     OW68496   3.228   0.483  10.182  0.0202  0.1373 -0.1797
22352SOL    HW168497   3.144   0.438  10.191 -0.1853 -0.0261 -2.2630
22352SOL    HW268498   3.220   0.533  10.100  1.5240  1.0942  0.2081
22353SOL     OW68499   3.463   5.844   5.852  0.0996  0.3306  0.2200
22353SOL    HW168500   3.550   5.818   5.883 -0.8740 -2.3398  1.0178
22353SOL    HW268501   3.468   5.835   5.757  1.1739  2.0303  0.0664
22354SOL     OW68502   7.600   3.534  10.648  0.9263 -0.1566 -0.2770
22354SOL    HW168503   7.559   3.571  10.726 -0.0091 -0.2858 -0.6980
22354SOL    HW268504   7.659   3.603  10.617 -0.4440  0.8451 -0.7842
22355SOL     OW68505   1.870   0.794   4.020 -0.2894  0.2329 -0.1727
22355SOL    HW168506   1.877   0.845   3.939  1.8752 -0.8961 -0.7768
22355SOL    HW268507   1.911   0.849   4.087  2.3463 -0.6979 -0.8891
22356SOL     OW68508   4.371   1.805   0.409 -0.0080 -0.3488  0.2576
22356SOL    HW168509   4.342   1.714   0.403 -2.0889  0.3626 -1.4940
22356SOL    HW268510   4.326   1.850   0.338  1.9712  1.8300  0.2413
22357SOL     OW68511   7.042   3.179   7.070  0.1553  0.3634 -0.5683
22357SOL    HW168512   7.138   3.182   7.080  0.1804 -0.3536 -0.5670
22357SOL    HW268513   7.016   3.271   7.071  0.7822  0.5460  0.0295
22358SOL     OW68514   0.191   7.596   4.796 -0.0353  0.1762 -0.5487
22358SOL    HW168515   0.275   7.557   4.768  0.7484  1.4988 -0.1303
22358SOL    HW268516   0.208   7.690   4.798 -1.6447  0.4932 -0.7551
22359SOL     OW68517   5.194   0.737  10.965 -0.3786  0.7816 -0.2754
22359SOL    HW168518   5.191   0.728  10.870  0.6441  0.7116 -0.3043
22359SOL    HW268519   5.253   0.811  10.981 -0.4480  0.7179  0.3151
22360SOL     OW68520   6.629   7.377   7.176  0.0669  0.1232 -0.0420
22360SOL    HW168521   6.689   7.323   7.227  0.9298  1.1575  0.0835
22360SOL    HW268522   6.589   7.435   7.241  1.1582  1.4375 -0.4778
22361SOL     OW68523   4.619   4.269   5.456  0.0853 -0.1810  0.3095
22361SOL    HW168524   4.564   4.251   5.380  0.8301 -1.5536  0.0685
22361SOL    HW268525   4.562   4.252   5.531  0.1745 -1.7013  0.0660
22362SOL     OW68526   7.726   3.498  11.028  0.4909 -0.2543  0.3952
22362SOL    HW168527   7.773   3.533  11.104  1.1173  0.8629 -0.4743
22362SOL    HW268528   7.783   3.517  10.954 -0.3803 -0.7903 -0.4305
22363SOL     OW68529   6.916   3.231   9.896  0.3551 -0.3415 -0.1440
22363SOL    HW168530   6.971   3.191   9.829 -2.0140 -0.2698 -2.3008
22363SOL    HW268531   6.849   3.165   9.915 -0.4119  0.5518  0.3532
22364SOL     OW68532   3.429   6.537   0.864 -0.0204  0.4360 -0.3542
22364SOL    HW168533   3.384   6.495   0.790 -0.9571  0.6768  0.0665
22364SOL    HW268534   3.364   6.597   0.901  1.0301  1.6794 -0.4514
22365SOL     OW68535   2.780   0.814   8.892  0.2622 -0.5032 -0.2122
22365SOL    HW168536   2.860   0.763   8.886 -1.0289 -2.6017 -0.8978
22365SOL    HW268537   2.726   0.783   8.819 -0.5580  2.0450 -0.8111
22366SOL     OW68538   7.606   1.145  10.572  0.2446 -0.3741 -0.4299
22366SOL    HW168539   7.598   1.183  10.660  0.5037 -0.3814 -0.4043
22366SOL    HW268540   7.669   1.200  10.527 -1.0641  0.6047 -1.1469
22367SOL     OW68541   4.324   5.807   5.295 -0.1800  0.1652 -0.2345
22367SOL    HW168542   4.311   5.712   5.292  0.0455  0.1444 -1.1901
22367SOL    HW268543   4.339   5.827   5.387  0.7459 -0.8694 -0.1344
22368SOL     OW68544   3.364   0.105   6.636 -0.0027 -0.5459  0.2423
22368SOL    HW168545   3.298   0.037   6.623 -0.0480 -0.2598 -1.2381
22368SOL    HW268546   3.344   0.171   6.569  3.7047 -1.9735 -2.6115
22369SOL     OW68547   5.370   6.086   3.868  0.2510  0.3076 -0.2068
22369SOL    HW168548   5.358   5.992   3.878  0.1257  0.0436 -2.3797
22369SOL    HW268549   5.464   6.100   3.881  0.5989 -0.4264 -1.6790
22370SOL     OW68550   3.172   2.688   2.956  0.9588 -0.3044 -0.1502
22370SOL    HW168551   3.127   2.736   2.887 -0.0316  0.8667  1.2536
22370SOL    HW268552   3.148   2.733   3.037  1.8876 -1.7686  1.0040
22371SOL     OW68553   3.082   7.160   7.656 -0.6053 -0.8435  0.4863
22371SOL    HW168554   3.063   7.164   7.750  1.5955 -0.3359  0.9683
22371SOL    HW268555   3.035   7.234   7.619  1.0196  0.8990  1.7326
22372SOL     OW68556   2.182   3.407   2.998  0.8128 -0.1317  0.1057
22372SOL    HW168557   2.223   3.332   2.955  0.7088  0.1184 -0.4366
22372SOL    HW268558   2.178   3.475   2.931 -0.8541 -0.2799  0.0064
22373SOL     OW68559   7.959   0.720   1.807  0.3503  0.2803 -1.3798
22373SOL    HW168560   7.940   0.663   1.881  0.3437 -0.7738 -2.1671
22373SOL    HW268561   7.881   0.714   1.752  0.8986 -0.0581 -2.1413
22374SOL     OW68562   1.875   5.092   4.304 -0.1828  0.2290  0.3973
22374SOL    HW168563   1.807   5.027   4.320 -0.1585 -0.0046 -0.3923
22374SOL    HW268564   1.844   5.170   4.349 -1.6027  0.4997 -0.9531
22375SOL     OW68565   2.358   5.676  11.275  0.1710 -0.8707  0.5133
22375SOL    HW168566   2.322   5.764  11.265  0.6424 -0.8013 -0.9354
22375SOL    HW268567   2.331   5.647  11.362  2.3004  1.7676  2.2190
22376SOL     OW68568   4.662   3.400   5.528 -0.1260 -0.5774  0.0626
22376SOL    HW168569   4.665   3.493   5.547  1.9513 -0.3232 -1.2410
22376SOL    HW268570   4.589   3.367   5.581 -0.9533  1.7670  0.4798
22377SOL     OW68571   6.084   7.581   3.240 -0.7406  0.5770  0.0882
22377SOL    HW168572   6.070   7.632   3.160 -0.3735 -1.3137 -1.2651
22377SOL    HW268573   6.166   7.614   3.276  1.4930 -1.3166 -2.7663
22378SOL     OW68574   0.151   5.549  10.771 -0.0961 -0.0176  0.3632
22378SOL    HW168575   0.207   5.472  10.781 -0.1108 -0.0568  0.1575
22378SOL    HW268576   0.205   5.611  10.721  0.5332  0.7475  1.9179
22379SOL     OW68577   7.600   5.548  11.098 -0.1518 -0.0142  0.5025
22379SOL    HW168578   7.665   5.547  11.027 -1.7681  0.2332 -1.0352
22379SOL    HW268579   7.556   5.464  11.092 -1.9582  0.9588 -0.4074
22380SOL     OW68580   6.804   0.832   2.607  0.0496  0.2059 -0.0590
22380SOL    HW168581   6.827   0.893   2.538 -0.7478  0.3539 -0.2072
22380SOL    HW268582   6.740   0.773   2.566  1.6471 -1.4769 -0.2727
22381SOL     OW68583   4.204   6.687   6.571  0.3441  0.1483 -0.0789
22381SOL    HW168584   4.200   6.743   6.649  2.6343 -0.1037  0.2785
22381SOL    HW268585   4.240   6.743   6.503  1.3324 -0.4920 -0.0926
22382SOL     OW68586   4.431   1.819   6.483 -0.0167 -0.1750  0.5155
22382SOL    HW168587   4.363   1.772   6.532  1.4665 -1.0033  1.8721
22382SOL    HW268588   4.383   1.888   6.438 -2.0011 -1.7108  0.0800
22383SOL     OW68589   0.659   4.190   1.005 -0.2202 -0.9784  0.1678
22383SOL    HW168590   0.670   4.258   0.940 -0.5935 -0.2490  0.8542
22383SOL    HW268591   0.715   4.216   1.078  0.6508 -2.0852 -0.0664
22384SOL     OW68592   3.116   6.763   9.556 -0.1696  0.5821 -0.0347
22384SOL    HW168593   3.123   6.673   9.588 -2.1875  0.0514 -0.9019
22384SOL    HW268594   3.090   6.814   9.633 -0.9445  0.0559  0.0619
22385SOL     OW68595   0.819   7.464   1.949  0.3803 -0.6195  0.2894
22385SOL    HW168596   0.909   7.486   1.973  0.1302  0.7647  0.0503
22385SOL    HW268597   0.765   7.524   2.000 -0.3977 -1.2058  0.1775
22386SOL     OW68598   1.208   1.886   8.409 -0.2086 -0.5562 -0.4280
22386SOL    HW168599   1.288   1.834   8.417  0.6413 -0.1686 -4.2648
22386SOL    HW268600   1.142   1.824   8.378 -0.4902 -0.2619 -0.4258
22387SOL     OW68601   0.463   6.347   2.096 -0.1961 -0.3732  0.4082
22387SOL    HW168602   0.510   6.287   2.155 -0.8105 -1.0720  0.1992
22387SOL    HW268603   0.424   6.413   2.154  0.0830 -0.4484  0.6834
22388SOL     OW68604   0.440   3.738   4.360 -0.2135  0.2138 -0.0912
22388SOL    HW168605   0.418   3.696   4.443  0.3090 -0.1697 -0.1386
22388SOL    HW268606   0.363   3.790   4.338 -0.9894 -0.9028 -0.1438
22389SOL     OW68607   1.514   0.705  11.365  0.1124 -0.5911 -0.3950
22389SOL    HW168608   1.487   0.751  11.286  1.8863  1.8272  0.3289
22389SOL    HW268609   1.574   0.637  11.334 -0.2432 -0.5579 -1.1973
22390SOL     OW68610   2.024   5.920   4.154  0.1377  0.0424 -0.3414
22390SOL    HW168611   2.086   5.922   4.226 -0.2319  0.1123 -0.0194
22390SOL    HW268612   2.055   5.850   4.097  1.3590  1.0681 -0.9651
22391SOL     OW68613   2.234   4.410   0.040 -0.0480  0.0778 -0.2598
22391SOL    HW168614   2.229   4.422   0.135  0.7469  0.4726 -0.2656
22391SOL    HW268615   2.325   4.384   0.023 -0.2670 -0.3160 -0.8830
22392SOL     OW68616   5.657   1.662   9.819 -0.7395 -0.1179 -0.2873
22392SOL    HW168617   5.742   1.618   9.830 -0.9943 -0.5079  0.1349
22392SOL    HW268618   5.623   1.671   9.908 -0.5372  1.2468 -0.3308
22393SOL     OW68619   7.448   5.420   5.608  0.1946  0.0366 -0.1437
22393SOL    HW168620   7.372   5.463   5.648 -0.7131 -0.4382 -1.2941
22393SOL    HW268621   7.479   5.359   5.674  0.8463  1.6448  1.1219
22394SOL     OW68622   6.344   4.902  11.841  0.3869  0.5142  0.3853
22394SOL    HW168623   6.382   4.816  11.854 -2.0271 -0.9788 -1.5458
22394SOL    HW268624   6.344   4.915  11.746  0.6384  2.6388  0.6201
22395SOL     OW68625   4.548   7.972   8.437  0.5820 -0.1695  0.0828
22395SOL    HW168626   4.553   7.905   8.506 -0.2584 -1.9882 -1.5154
22395SOL    HW268627   4.619   7.949   8.377 -2.1858 -2.3505 -2.6585
22396SOL     OW68628   5.390   0.458   7.215 -0.6036  0.2416 -0.4675
22396SOL    HW168629   5.390   0.365   7.240  0.6688  0.8048  2.0388
22396SOL    HW268630   5.342   0.501   7.286  2.3990  1.8955  0.7571
22397SOL     OW68631   7.953   0.407   0.209  0.3266 -0.1027  0.3253
22397SOL    HW168632   7.889   0.337   0.199 -2.2432  2.2875 -1.3257
22397SOL    HW268633   8.031   0.377   0.162 -1.5537 -0.9285 -2.4619
22398SOL     OW68634   3.649   2.620   5.589 -0.0939 -0.2687  1.2708
22398SOL    HW168635   3.736   2.659   5.590  1.1774 -2.8389  0.0629
22398SOL    HW268636   3.595   2.684   5.541  1.9970 -0.1469 -1.1616
22399SOL     OW68637   4.267   1.328   0.874  0.0057 -0.5472 -0.5104
22399SOL    HW168638   4.203   1.272   0.830  0.5104 -1.0637 -0.6108
22399SOL    HW268639   4.349   1.309   0.829  0.5610 -1.1795  0.7242
22400SOL     OW68640   4.342   3.163   1.600 -0.6535  0.0991  0.3687
22400SOL    HW168641   4.415   3.226   1.599 -1.3655  0.9496  0.1421
22400SOL    HW268642   4.343   3.125   1.513 -1.3462  1.1674 -0.1285
22401SOL     OW68643   5.960   1.604   7.605 -0.5389  0.0841  0.6192
22401SOL    HW168644   5.984   1.541   7.671  1.4140  0.1230  0.0054
22401SOL    HW268645   6.043   1.634   7.568 -1.5251  0.1799 -1.7273
22402SOL     OW68646   4.521   2.494   8.716  0.2530  0.0427 -0.5294
22402SOL    HW168647   4.518   2.493   8.620 -0.6166  0.0524 -0.5101
22402SOL    HW268648   4.462   2.566   8.741  0.4682  0.0366  0.0137
22403SOL     OW68649   3.817   3.284  10.983  0.1109 -0.3712  0.2260
22403SOL    HW168650   3.826   3.336  10.904  0.8367  0.4706  0.8438
22403SOL    HW268651   3.907   3.265  11.010 -0.1156 -0.2384  1.1147
22404SOL     OW68652   2.082   7.700  11.968  0.4249  0.1638  0.4618
22404SOL    HW168653   2.020   7.769  11.992  0.1013 -0.2762  0.8983
22404SOL    HW268654   2.120   7.672  12.051  0.9697  0.1967  0.2307
22405SOL     OW68655   3.760   3.488   8.156  0.0963  0.6314 -0.2576
22405SOL    HW168656   3.692   3.445   8.104 -1.3423  1.0775  1.1821
22405SOL    HW268657   3.804   3.547   8.094  0.4031 -0.9673 -1.6431
22406SOL     OW68658   4.604   4.214   6.159  0.5841 -0.0652 -0.7333
22406SOL    HW168659   4.699   4.203   6.154  0.5558 -0.6850 -0.1054
22406SOL    HW268660   4.570   4.164   6.085  0.7515  0.2638 -1.0352
22407SOL     OW68661   2.614   7.035   3.866  0.6203 -0.2632 -0.1272
22407SOL    HW168662   2.562   6.960   3.838 -0.0066 -0.2883  1.0474
22407SOL    HW268663   2.699   7.022   3.824  1.3688 -2.9642  1.9469
22408SOL     OW68664   0.510   1.634   8.844 -0.0971  0.6122 -0.0314
22408SOL    HW168665   0.477   1.547   8.864 -0.4122  0.8458  0.5198
22408SOL    HW268666   0.433   1.682   8.812 -0.0734  0.8636  0.2775
22409SOL     OW68667   1.705   4.618   2.135  0.2187 -0.2361  0.1323
22409SOL    HW168668   1.680   4.623   2.043  0.9600  0.1627 -0.0517
22409SOL    HW268669   1.670   4.534   2.165  0.2643 -0.5182 -0.5966
22410SOL     OW68670   0.667   7.615   2.132 -0.3140 -0.0572 -0.7353
22410SOL    HW168671   0.691   7.608   2.225  2.7758 -1.4350 -1.5257
22410SOL    HW268672   0.616   7.696   2.127  1.7467  1.5370  1.7561
22411SOL     OW68673   4.057   3.441   5.501 -0.2776 -0.3987 -0.0482
22411SOL    HW168674   4.151   3.446   5.483 -0.3718 -1.0859 -0.8117
22411SOL    HW268675   4.025   3.373   5.441 -0.9760 -1.3776  1.3783
22412SOL     OW68676   5.247   6.506   5.594  0.1279 -0.2645 -0.2900
22412SOL    HW168677   5.228   6.525   5.686  0.7310 -1.6306  0.1263
22412SOL    HW268678   5.341   6.521   5.585 -0.2049  1.5734 -1.1373
22413SOL     OW68679   2.748   6.463  10.476 -0.0835  0.8152  0.3832
22413SOL    HW168680   2.824   6.492  10.526 -0.2159  0.9862  0.4878
22413SOL    HW268681   2.725   6.378  10.514 -1.5778  1.9351  2.1959
22414SOL     OW68682   6.974   5.574  11.855 -0.0988  0.3686 -0.1285
22414SOL    HW168683   7.032   5.498  11.860  0.3618  0.7186 -0.0065
22414SOL    HW268684   6.909   5.551  11.789 -0.4623 -0.4627  0.5134
22415SOL     OW68685   6.667   5.353   5.157 -0.2891 -0.3651  0.1527
22415SOL    HW168686   6.644   5.368   5.066  1.9605  1.6183 -0.1976
22415SOL    HW268687   6.615   5.418   5.205  1.0073  0.9351 -0.1369
22416SOL     OW68688   4.428   6.326   0.165 -0.1104  0.3965  0.3096
22416SOL    HW168689   4.419   6.283   0.081  1.1449 -0.2558  0.4731
22416SOL    HW268690   4.343   6.365   0.182 -0.6919 -0.3533 -0.7692
22417SOL     OW68691   7.582   0.609   6.694  0.3262 -0.0794  0.4735
22417SOL    HW168692   7.619   0.521   6.686  0.8789  0.2347 -0.6444
22417SOL    HW268693   7.602   0.651   6.610 -0.7838  0.7905  0.6217
22418SOL     OW68694   4.584   7.872   6.023 -0.3630  0.2266  0.1553
22418SOL    HW168695   4.548   7.873   6.111  1.2556 -0.0130  0.8559
22418SOL    HW268696   4.623   7.785   6.013  1.9821  1.1781  0.3250
22419SOL     OW68697   7.619   1.573  10.975  0.1847  0.2613  0.2919
22419SOL    HW168698   7.561   1.529  10.913 -2.6098  1.9058  1.5699
22419SOL    HW268699   7.704   1.530  10.962 -0.6140 -0.5573 -3.4671
22420SOL     OW68700   5.117   0.893  11.221 -0.2979 -0.4204  0.4915
22420SOL    HW168701   5.065   0.973  11.223 -0.3883 -0.4900  0.8973
22420SOL    HW268702   5.188   0.912  11.159  0.4525  0.4598  1.5867
22421SOL     OW68703   0.161   4.628   2.871 -0.2072  0.1265 -0.4373
22421SOL    HW168704   0.073   4.598   2.847 -0.5765 -0.5034  1.4962
22421SOL    HW268705   0.146   4.700   2.933  0.6068 -0.5442  0.5702
22422SOL     OW68706   2.251   1.269   7.650  0.7242 -0.4068  0.0295
22422SOL    HW168707   2.332   1.301   7.608  0.5352 -1.5743 -1.2834
22422SOL    HW268708   2.181   1.299   7.592  0.0106  1.9397  1.9510
22423SOL     OW68709   0.573   0.704   3.522  0.2058 -0.0661 -0.3594
22423SOL    HW168710   0.633   0.713   3.448  0.9059 -0.9137  0.0898
22423SOL    HW268711   0.610   0.633   3.575  1.6444  2.6232  2.5877
22424SOL     OW68712   3.420   1.216   1.334 -0.8319 -0.1817 -0.1620
22424SOL    HW168713   3.329   1.245   1.327 -1.7864 -2.1956  2.3935
22424SOL    HW268714   3.417   1.141   1.393  2.2966 -1.4463 -1.3918
22425SOL     OW68715   5.442   1.837  10.888  0.0597  0.2086  0.0545
22425SOL    HW168716   5.440   1.746  10.916 -0.7668 -0.0493 -0.8066
22425SOL    HW268717   5.502   1.880  10.950 -0.2028 -0.7328  0.9866
22426SOL     OW68718   0.317   2.215   2.190 -0.1267 -0.4731 -0.1085
22426SOL    HW168719   0.404   2.232   2.153 -1.0002  1.5652 -1.3598
22426SOL    HW268720   0.294   2.295   2.236 -1.5578 -0.7938 -0.2243
22427SOL     OW68721   5.026   6.926   6.862 -0.3027  0.5589 -0.0669
22427SOL    HW168722   5.100   6.964   6.910  0.2097  1.0629 -1.2174
22427SOL    HW268723   4.955   6.988   6.875  0.3743  1.6879 -1.4763
22428SOL     OW68724   0.450   5.790  12.355 -0.1942  0.2423 -0.5193
22428SOL    HW168725   0.379   5.853  12.339 -0.9441 -0.2690  0.6403
22428SOL    HW268726   0.408   5.705  12.348 -0.2514 -0.0514  2.2980
22429SOL     OW68727   7.982   6.080   2.269  0.2988  0.1524  0.5517
22429SOL    HW168728   8.026   6.162   2.248  0.2980  0.0933  0.3117
22429SOL    HW268729   8.001   6.065   2.361  0.6362  0.2184  0.4969
22430SOL     OW68730   1.318   5.590   8.906  0.4484  0.3231 -0.1105
22430SOL    HW168731   1.401   5.555   8.873 -0.3138  0.0823 -1.9164
22430SOL    HW268732   1.274   5.516   8.947  1.4166  0.6265  1.5804
22431SOL     OW68733   2.751   2.705  10.863 -0.3937  0.1403 -0.0465
22431SOL    HW168734   2.674   2.752  10.896  1.0143  0.8559  2.5222
22431SOL    HW268735   2.807   2.694  10.940  1.8292 -0.8648 -1.6946
22432SOL     OW68736   7.635   7.796   3.655 -0.2487 -0.2065 -0.7121
22432SOL    HW168737   7.703   7.737   3.689 -0.3601 -0.0093 -0.1314
22432SOL    HW268738   7.679   7.880   3.646 -0.3679 -0.1180 -0.4891
22433SOL     OW68739   7.457   6.837   8.149 -0.0890  0.3471  0.1692
22433SOL    HW168740   7.373   6.862   8.188  0.2335  1.1281  0.3735
22433SOL    HW268741   7.489   6.766   8.206 -0.9430 -0.4655 -0.3392
22434SOL     OW68742   6.660   2.937  12.429  0.0137  0.1351  0.1417
22434SOL    HW168743   6.687   3.018  12.386  1.1856  0.3974  1.3495
22434SOL    HW268744   6.742   2.892  12.449 -0.5790 -0.6438  0.8448
22435SOL     OW68745   1.510   6.660  10.227 -0.1627  0.2227 -0.0243
22435SOL    HW168746   1.536   6.576  10.265  2.0558  1.1148  0.5855
22435SOL    HW268747   1.475   6.637  10.141 -0.2530 -1.3709  0.3958
22436SOL     OW68748   2.176   6.336   5.985  0.1490  0.2663 -0.2426
22436SOL    HW168749   2.091   6.356   6.025  0.2357 -0.5694  0.3940
22436SOL    HW268750   2.191   6.407   5.923 -1.9751 -0.6509 -1.9268
22437SOL     OW68751   0.380   4.315   1.535  0.1012 -0.4662 -0.1692
22437SOL    HW168752   0.333   4.363   1.468  0.0830 -0.2544 -0.0049
22437SOL    HW268753   0.471   4.313   1.504  0.6318  1.8513  1.0024
22438SOL     OW68754   3.225   6.034   5.527 -0.1467 -0.5762 -0.5344
22438SOL    HW168755   3.209   5.944   5.499 -2.1764 -0.5047  0.2222
22438SOL    HW268756   3.146   6.059   5.575  1.0518  1.0664  0.7016
22439SOL     OW68757   7.873   1.668  10.732  0.2166 -0.8700 -0.2420
22439SOL    HW168758   7.911   1.622  10.657  1.1787  0.2908 -0.4935
22439SOL    HW268759   7.795   1.711  10.696  0.2883 -0.8822 -0.4162
22440SOL     OW68760   6.461   1.448  11.595 -0.6328  0.3044 -0.9398
22440SOL    HW168761   6.478   1.535  11.631 -0.4980  0.2557 -0.8858
22440SOL    HW268762   6.543   1.400  11.607 -1.7304 -1.0154  2.3920
22441SOL     OW68763   7.744   5.909   9.261 -0.0232 -0.0864  0.0932
22441SOL    HW168764   7.692   5.846   9.311  0.2269  0.0776  0.5657
22441SOL    HW268765   7.813   5.856   9.219 -0.7003 -0.3377 -0.7261
22442SOL     OW68766   6.970   3.150  11.919  0.4165 -0.1645 -0.0245
22442SOL    HW168767   7.002   3.061  11.933 -1.4305 -0.5250  2.7957
22442SOL    HW268768   7.044   3.206  11.939  0.8215 -1.0466  1.0417
22443SOL     OW68769   7.598   4.527   3.429 -0.5038 -0.2604 -0.2497
22443SOL    HW168770   7.542   4.603   3.448  1.1512  0.8109  0.5640
22443SOL    HW268771   7.631   4.544   3.340  1.8085  1.3247  0.8191
22444SOL     OW68772   4.920   4.446  11.814 -0.1095  0.1725 -0.4127
22444SOL    HW168773   5.003   4.426  11.771  0.2631  1.1023 -0.1367
22444SOL    HW268774   4.909   4.540  11.804 -1.4401 -0.0123 -0.9812
22445SOL     OW68775   3.077   1.236   5.260  0.0277  0.0747 -0.1441
22445SOL    HW168776   3.101   1.283   5.180  0.2392 -1.4059 -1.0063
22445SOL    HW268777   2.993   1.195   5.238  1.0751 -2.0866 -0.4540
22446SOL     OW68778   4.875   2.951   4.286  0.1113  0.5104  0.6081
22446SOL    HW168779   4.885   3.019   4.221  0.5113  0.2206  0.3583
22446SOL    HW268780   4.798   2.976   4.337  0.8195  1.6712  1.1530
22447SOL     OW68781   0.322   1.762   7.083  0.9121  0.0682  0.0956
22447SOL    HW168782   0.330   1.840   7.139  0.2877 -0.7544  1.3709
22447SOL    HW268783   0.260   1.705   7.130  0.3668 -0.6565 -1.4457
22448SOL     OW68784   7.327   6.650   6.639 -0.4698  0.1979  0.2667
22448SOL    HW168785   7.324   6.742   6.614  0.3751 -0.3057 -1.9909
22448SOL    HW268786   7.236   6.627   6.661 -1.1734  0.9907 -1.6028
22449SOL     OW68787   7.907   5.186   1.754  0.6302 -0.4327 -0.5215
22449SOL    HW168788   7.858   5.269   1.751  1.5894  0.1336 -2.5811
22449SOL    HW268789   7.972   5.199   1.822  0.2062  0.1648 -0.2199
22450SOL     OW68790   4.386   2.905   2.778 -0.0310 -0.9579 -0.5389
22450SOL    HW168791   4.356   2.983   2.732  1.3329  0.1283  0.3403
22450SOL    HW268792   4.307   2.869   2.819 -0.6444  0.0870 -0.7624
22451SOL     OW68793   6.988   4.441   7.359 -0.4381  0.2078  0.9745
22451SOL    HW168794   7.055   4.380   7.328 -0.9038  0.1490  0.0412
22451SOL    HW268795   7.018   4.527   7.330 -1.1786  0.0865 -0.2570
22452SOL     OW68796   4.091   1.634   3.318  0.1723 -0.2882  0.1595
22452SOL    HW168797   4.065   1.549   3.285 -0.5134 -0.4470  1.0579
22452SOL    HW268798   4.141   1.674   3.247  0.7603 -1.5559 -0.1480
22453SOL     OW68799   2.566   2.051   9.632 -0.3398  0.0142 -0.3051
22453SOL    HW168800   2.615   2.120   9.588 -0.0583 -0.2461 -0.4001
22453SOL    HW268801   2.487   2.095   9.665 -0.5504  0.2126 -1.0548
22454SOL     OW68802   1.189   0.713   9.399 -0.0007 -0.2911  0.6410
22454SOL    HW168803   1.216   0.686   9.311 -1.4854  0.9070 -0.2316
22454SOL    HW268804   1.142   0.637   9.434 -3.1879  0.5814 -1.3479
22455SOL     OW68805   5.551   5.859   9.131 -0.1567  0.3873  0.2587
22455SOL    HW168806   5.626   5.800   9.119  0.7336  1.7009 -1.1559
22455SOL    HW268807   5.554   5.916   9.054 -1.5181  1.6909  1.1234
22456SOL     OW68808   1.345   5.853   6.707  0.3120  0.6838 -0.4409
22456SOL    HW168809   1.357   5.831   6.615 -0.3393 -0.1787 -0.3317
22456SOL    HW268810   1.338   5.769   6.752  0.7669  1.0877  0.4245
22457SOL     OW68811   7.396   3.047   4.497  0.2777 -0.1781 -0.2683
22457SOL    HW168812   7.484   3.083   4.487 -0.5472  1.5017 -2.0384
22457SOL    HW268813   7.372   3.015   4.410 -0.5769 -1.3954  0.3731
22458SOL     OW68814   5.445   6.538   0.442  0.0692  0.5452 -0.3162
22458SOL    HW168815   5.537   6.539   0.416  0.0661  0.4308 -0.3305
22458SOL    HW268816   5.398   6.502   0.367  0.2898 -1.7937  0.5872
22459SOL     OW68817   5.511   2.890   1.188 -0.3632 -0.2094 -0.7788
22459SOL    HW168818   5.487   2.810   1.234 -2.6695  0.8323  0.0051
22459SOL    HW268819   5.488   2.873   1.097 -0.3638 -0.5984 -0.7077
22460SOL     OW68820   4.389   1.679   5.506  0.0763 -0.2638  0.1561
22460SOL    HW168821   4.365   1.614   5.572 -0.2402 -0.7010 -0.3850
22460SOL    HW268822   4.370   1.637   5.422  1.8504 -0.2615 -0.2718
22461SOL     OW68823   7.755   6.120   4.825 -0.2415 -0.1664 -0.3265
22461SOL    HW168824   7.667   6.084   4.822  0.2439 -1.3801 -0.4410
22461SOL    HW268825   7.783   6.123   4.733 -0.5502  1.2510 -0.3974
22462SOL     OW68826   7.453   7.678  11.416 -0.5493  0.4688  0.8665
22462SOL    HW168827   7.527   7.737  11.429 -0.5964  0.4888  1.0496
22462SOL    HW268828   7.434   7.683  11.323  1.1468 -1.2517  0.3578
22463SOL     OW68829   1.333   0.069   1.041  0.6110 -0.2690 -0.2804
22463SOL    HW168830   1.314   0.158   1.069  1.7106 -0.2563  0.4873
22463SOL    HW268831   1.316   0.069   0.947  0.1509  0.6151 -0.2106
22464SOL     OW68832   6.866   3.436   5.490  0.1450 -0.1781  0.5473
22464SOL    HW168833   6.944   3.456   5.438  1.0174  1.5687  2.3661
22464SOL    HW268834   6.880   3.346   5.520  0.4181 -0.6226 -0.8314
22465SOL     OW68835   5.583   2.240  11.946 -0.5406  0.0080 -0.0738
22465SOL    HW168836   5.619   2.327  11.929  2.4835 -1.3588 -1.5521
22465SOL    HW268837   5.547   2.245  12.034  0.7784  2.3847  0.4006
22466SOL     OW68838   2.117   0.545   1.928 -0.2097 -0.1354 -0.0242
22466SOL    HW168839   2.150   0.615   1.871 -2.3799  1.4339  0.4642
22466SOL    HW268840   2.053   0.498   1.874 -0.0631 -0.5887  0.1935
22467SOL     OW68841   3.649   5.157   9.024  0.0791 -0.0174 -0.7879
22467SOL    HW168842   3.694   5.206   8.956 -2.0379  0.1109 -2.1966
22467SOL    HW268843   3.557   5.160   8.998 -0.9366  0.5575  2.3979
22468SOL     OW68844   2.700   5.236   3.976  0.3003 -0.3878 -0.5817
22468SOL    HW168845   2.737   5.176   3.911 -1.1193 -1.8319 -0.1297
22468SOL    HW268846   2.760   5.311   3.978  2.4929 -2.0602 -0.7316
22469SOL     OW68847   4.169   6.512  12.207  0.4499  0.0138 -0.1204
22469SOL    HW168848   4.259   6.541  12.218 -0.0622  1.5190  0.3549
22469SOL    HW268849   4.150   6.461  12.286  1.3276 -1.6367 -0.9212
22470SOL     OW68850   1.202   1.100   9.364  0.1843 -0.1973 -0.1043
22470SOL    HW168851   1.239   1.158   9.298  0.3507 -0.6608 -0.4271
22470SOL    HW268852   1.270   1.033   9.378 -0.1233 -0.4827  0.0393
22471SOL     OW68853   6.432   7.109   6.676  0.1953 -0.9400 -0.2229
22471SOL    HW168854   6.410   7.151   6.593  0.1731 -2.5455 -1.0685
22471SOL    HW268855   6.347   7.093   6.718  0.2317  0.3616  0.3878
22472SOL     OW68856   3.959   7.370   8.679 -0.6129  0.4933  0.3287
22472SOL    HW168857   3.894   7.426   8.636 -2.4385 -1.3383  0.5853
22472SOL    HW268858   3.984   7.420   8.757 -1.8424  1.1885  0.3178
22473SOL     OW68859   1.755   2.231   0.216 -0.5233 -0.1231  0.2900
22473SOL    HW168860   1.828   2.237   0.278 -1.6723 -0.3147  1.7272
22473SOL    HW268861   1.789   2.176   0.145  0.7704 -0.1074  0.8564
22474SOL     OW68862   5.515   1.332   0.977 -0.2278  0.1409  0.3451
22474SOL    HW168863   5.479   1.311   1.062 -0.5952 -1.4711 -0.1748
22474SOL    HW268864   5.544   1.423   0.985  0.3203 -0.1663  2.3648
22475SOL     OW68865   4.066   0.480   7.803  0.4573 -0.1728 -0.0824
22475SOL    HW168866   4.004   0.547   7.831  0.7480  0.0707 -0.0179
22475SOL    HW268867   4.053   0.474   7.708 -0.2446 -0.7154  0.0316
22476SOL     OW68868   3.981   7.720   1.272  0.2802 -0.5233  0.0901
22476SOL    HW168869   4.074   7.744   1.267  0.4471 -0.8389  1.3252
22476SOL    HW268870   3.953   7.714   1.181  1.6226 -0.9872 -0.3199
22477SOL     OW68871   2.741   1.162   2.540  0.5527 -0.0465 -0.6148
22477SOL    HW168872   2.806   1.196   2.478 -0.5263  1.5130 -0.9457
22477SOL    HW268873   2.788   1.093   2.588  3.5650  3.1124  1.4671
22478SOL     OW68874   1.988   2.326  11.996  0.0620 -0.4148 -0.1132
22478SOL    HW168875   2.081   2.308  12.012  0.6689  1.6938 -0.9614
22478SOL    HW268876   1.956   2.357  12.081  0.0614 -1.3290  0.2339
22479SOL     OW68877   7.477   5.184   5.770  0.1725 -0.2834  0.5870
22479SOL    HW168878   7.427   5.108   5.740  0.4862 -0.3996  0.3529
22479SOL    HW268879   7.568   5.160   5.755  0.2474  1.4930 -2.8416
22480SOL     OW68880   6.642   3.854   2.371 -0.3481  0.3693  0.8115
22480SOL    HW168881   6.554   3.837   2.404  0.8726  0.6733  4.6441
22480SOL    HW268882   6.659   3.945   2.393  0.2915  0.9560 -1.7386
22481SOL     OW68883   3.926   6.194   8.657 -0.4436 -0.2801 -0.0938
22481SOL    HW168884   4.015   6.178   8.689 -0.2111 -0.6542 -0.8880
22481SOL    HW268885   3.874   6.122   8.694 -0.3606 -0.1996  0.1756
22482SOL     OW68886   3.061   0.226   4.530  0.1229 -0.3759 -0.2522
22482SOL    HW168887   3.077   0.188   4.616  0.2218  1.0788  0.4170
22482SOL    HW268888   2.973   0.197   4.506 -0.5209  0.3849  1.0445
22483SOL     OW68889   4.868   1.595   0.843 -0.2158 -0.3561  0.0915
22483SOL    HW168890   4.814   1.615   0.767  1.6647 -0.2355 -1.2743
22483SOL    HW268891   4.920   1.519   0.817  1.2085  0.3091  0.8523
22484SOL     OW68892   1.263   6.283   8.889  0.2909 -0.5254 -0.5122
22484SOL    HW168893   1.260   6.189   8.906 -1.5755 -0.2760  0.8353
22484SOL    HW268894   1.266   6.323   8.976  0.5337  0.6837 -1.0557
22485SOL     OW68895   3.156   2.288   9.834  0.1926  0.2528  0.0489
22485SOL    HW168896   3.106   2.247   9.764  1.0177 -2.4476  0.9233
22485SOL    HW268897   3.237   2.317   9.792  1.1312 -2.2584 -0.0294
22486SOL     OW68898   2.038   0.063   9.323 -0.3678  0.3246  0.1565
22486SOL    HW168899   2.007  -0.008   9.267  1.5954 -0.6894  0.3093
22486SOL    HW268900   2.092   0.118   9.266  1.9644 -0.9236  1.0466
22487SOL     OW68901   3.511   7.744  11.329  0.1684 -0.5151  0.2760
22487SOL    HW168902   3.600   7.711  11.318 -0.1494 -1.3511  0.1021
22487SOL    HW268903   3.467   7.675  11.380 -0.3921 -0.1350  0.3083
22488SOL     OW68904   2.104   7.904   2.303  0.0195  0.2835  0.3936
22488SOL    HW168905   2.018   7.934   2.272 -0.5282 -0.3081  1.2966
22488SOL    HW268906   2.146   7.869   2.226 -0.5321  0.6309 -0.0760
22489SOL     OW68907   2.092   4.061  11.651 -0.3585 -0.2709 -0.2475
22489SOL    HW168908   2.085   3.970  11.680 -2.3760 -0.7214 -1.9387
22489SOL    HW268909   2.030   4.109  11.706  1.3926  0.3446  1.3075
22490SOL     OW68910   1.415   1.250   1.416  0.2893 -0.6731 -0.0441
22490SOL    HW168911   1.386   1.227   1.328  0.3520  2.1897 -0.9191
22490SOL    HW268912   1.382   1.179   1.471 -2.1631 -1.2011 -1.9765
22491SOL     OW68913   1.421   2.569  11.606  0.2613 -0.7892 -0.4642
22491SOL    HW168914   1.339   2.612  11.583  0.5389 -0.7805 -1.4573
22491SOL    HW268915   1.421   2.487  11.556  1.2038 -0.4345 -1.0690
22492SOL     OW68916   3.783   7.475   4.160 -0.1045 -0.1876  0.4879
22492SOL    HW168917   3.806   7.567   4.174 -0.2073 -0.4682  2.7000
22492SOL    HW268918   3.854   7.426   4.201 -2.5240 -1.0619  3.9980
22493SOL     OW68919   6.207   7.765   5.607 -0.0179  0.6937  0.1634
22493SOL    HW168920   6.244   7.851   5.586  3.0701 -0.7565 -0.8502
22493SOL    HW268921   6.211   7.717   5.525 -0.6615 -0.7882  0.9643
22494SOL     OW68922   5.054   6.564   2.467  0.8667 -0.0413 -0.3138
22494SOL    HW168923   5.133   6.549   2.415 -0.1558  1.2752 -2.3705
22494SOL    HW268924   5.013   6.641   2.426 -1.9815 -1.2668  0.0572
22495SOL     OW68925   5.909   3.877   7.858  0.6486  0.6650  0.0614
22495SOL    HW168926   5.969   3.811   7.892 -1.3922 -0.5787  1.4720
22495SOL    HW268927   5.865   3.834   7.784  0.3852  0.9953  0.0180
22496SOL     OW68928   2.377   5.788   9.277 -0.0228  0.3316 -0.0865
22496SOL    HW168929   2.414   5.744   9.200 -1.3066 -0.0261 -0.5202
22496SOL    HW268930   2.450   5.791   9.340  0.8902  0.1444 -1.1058
22497SOL     OW68931   4.917   5.039   6.817 -0.4868  0.3609 -0.3835
22497SOL    HW168932   5.007   5.024   6.846 -0.0768  0.5447 -1.5139
22497SOL    HW268933   4.863   4.995   6.882  0.4693 -0.9141 -0.4225
22498SOL     OW68934   6.728   6.569   9.676 -0.6016  0.2352  0.6438
22498SOL    HW168935   6.676   6.488   9.676  0.0760 -0.2460 -1.0935
22498SOL    HW268936   6.679   6.628   9.618  1.3696 -0.7242 -2.2482
22499SOL     OW68937   1.448   7.616   4.857 -0.4388 -0.6590 -0.2345
22499SOL    HW168938   1.365   7.620   4.904 -0.8033 -1.1692 -0.8142
22499SOL    HW268939   1.496   7.544   4.899 -0.1225 -0.1072  0.3572
22500SOL     OW68940   3.575   7.523   5.719 -0.2290  0.4758  0.1920
22500SOL    HW168941   3.608   7.458   5.656 -1.9827  0.8725 -1.2375
22500SOL    HW268942   3.581   7.479   5.804  0.2887 -0.8923 -0.5111
22501SOL     OW68943   1.018   0.581   4.847  0.4528 -0.1403 -0.7081
22501SOL    HW168944   1.055   0.504   4.890  2.1076  0.6295 -0.6729
22501SOL    HW268945   1.004   0.644   4.917 -0.2547 -0.1537 -0.8271
22502SOL     OW68946   5.084   4.844   1.629 -0.2365 -0.1348  0.7275
22502SOL    HW168947   5.095   4.866   1.537 -0.6233 -1.8310  0.2366
22502SOL    HW268948   5.173   4.845   1.665 -0.1306  1.0152  0.4797
22503SOL     OW68949   7.641   5.826   8.302  0.4300 -0.2815  0.2425
22503SOL    HW168950   7.546   5.830   8.312  0.5859  0.4040  1.7159
22503SOL    HW268951   7.666   5.915   8.275  0.6172 -0.5908 -0.6364
22504SOL     OW68952   6.194   4.449   0.192 -0.2385 -0.3559  0.0374
22504SOL    HW168953   6.161   4.484   0.274 -0.3934 -1.2277  0.3575
22504SOL    HW268954   6.116   4.423   0.143 -0.1112 -0.7310  0.0261
22505SOL     OW68955   4.128   0.166   9.729 -0.0323 -0.3570  0.2462
22505SOL    HW168956   4.095   0.165   9.639 -1.2071 -1.1187  0.6677
22505SOL    HW268957   4.223   0.172   9.719 -0.1859  0.3544 -1.0293
22506SOL     OW68958   1.877   7.346  11.791 -0.2909  0.5384  0.5181
22506SOL    HW168959   1.915   7.433  11.780 -1.1808  1.1234  1.8811
22506SOL    HW268960   1.846   7.344  11.881 -1.1133 -0.8672  0.2395
22507SOL     OW68961   1.376   0.398   4.592 -0.3342  0.0257 -0.0193
22507SOL    HW168962   1.447   0.432   4.536 -0.6284 -0.8852 -0.9732
22507SOL    HW268963   1.320   0.474   4.608 -0.7801  0.1151 -1.8128
22508SOL     OW68964   5.125   2.497   5.525 -0.3879  0.0567  0.0855
22508SOL    HW168965   5.196   2.523   5.465 -0.4592  0.7794  0.3115
22508SOL    HW268966   5.075   2.577   5.539 -0.5439 -0.1724  0.8835
22509SOL     OW68967   1.350   1.498   7.515  0.1023  0.1753  0.1214
22509SOL    HW168968   1.262   1.534   7.503 -0.5116 -0.5888  1.8709
22509SOL    HW268969   1.405   1.573   7.537 -0.1861  0.6141 -0.6486
22510SOL     OW68970   4.276   7.230  10.992  0.5655  0.3506  0.0837
22510SOL    HW168971   4.279   7.307  10.936 -0.5613  0.4464  0.1339
22510SOL    HW268972   4.367   7.214  11.016  1.0047  0.6113 -1.3410
22511SOL     OW68973   7.692   0.918   8.792 -0.3272  0.3632  0.5265
22511SOL    HW168974   7.781   0.954   8.783 -0.0023 -0.3091  1.0053
22511SOL    HW268975   7.674   0.921   8.886 -1.1947  1.3747  0.3490
22512SOL     OW68976   5.008   5.963   1.959 -0.4863 -0.2012 -0.1228
22512SOL    HW168977   4.947   5.921   2.019  0.3856 -1.8983 -0.3519
22512SOL    HW268978   5.013   6.054   1.988 -0.5567 -0.8312  1.9775
22513SOL     OW68979   5.148   1.332   0.144  0.3305 -0.4736 -0.0156
22513SOL    HW168980   5.243   1.326   0.156  0.3679 -0.3959 -0.2742
22513SOL    HW268981   5.131   1.426   0.137 -0.0988 -0.2632  2.7789
22514SOL     OW68982   0.252   5.525   9.011 -0.0150 -0.5497  0.2939
22514SOL    HW168983   0.182   5.489   9.065 -0.2111 -0.7487 -0.0982
22514SOL    HW268984   0.228   5.503   8.921 -1.0718  2.0513 -0.1443
22515SOL     OW68985   6.786   0.486   1.701 -0.0518  0.6460 -0.6383
22515SOL    HW168986   6.827   0.559   1.652  1.8533  0.0266 -0.0571
22515SOL    HW268987   6.739   0.529   1.773  1.2056  1.3238 -0.1902
22516SOL     OW68988   6.855   3.975  11.543 -0.3121  0.6548  0.6881
22516SOL    HW168989   6.887   4.064  11.527 -1.3572  1.1475  1.2247
22516SOL    HW268990   6.901   3.921  11.479  0.0115  1.6505  0.0579
22517SOL     OW68991   1.000   4.479  12.216 -0.0736  0.0974 -0.3292
22517SOL    HW168992   1.042   4.535  12.151  1.9469 -0.0965  0.7431
22517SOL    HW268993   0.936   4.536  12.259 -1.0467  0.3751 -2.0328
22518SOL     OW68994   3.099   7.717   6.976  0.4309 -0.4404  0.2311
22518SOL    HW168995   3.043   7.741   6.902  1.2312  2.7630  0.5178
22518SOL    HW268996   3.046   7.738   7.054  0.8312 -0.5338  0.5315
22519SOL     OW68997   4.450   7.101   4.580 -0.0271  0.1515  0.2870
22519SOL    HW168998   4.483   7.166   4.519  1.7019 -0.3211  0.6644
22519SOL    HW268999   4.355   7.099   4.566  0.2795  0.3336 -2.0698
22520SOL     OW69000   2.690   3.714   2.496 -1.0066 -0.2196 -0.3938
22520SOL    HW169001   2.629   3.773   2.540 -0.2811  0.3722 -0.1491
22520SOL    HW269002   2.705   3.754   2.411  0.1632  0.4541  0.0977
22521SOL     OW69003   5.140   0.548   6.342 -0.3124 -0.0912  0.2948
22521SOL    HW169004   5.115   0.498   6.419 -1.3570 -0.3149 -0.1733
22521SOL    HW269005   5.152   0.637   6.374  1.0355 -0.5143  1.0326
22522SOL     OW69006   7.913   1.194  11.433 -0.0802 -0.3241  0.3810
22522SOL    HW169007   7.876   1.275  11.398  0.5248 -0.4100 -0.5220
22522SOL    HW269008   7.995   1.183  11.384  1.3810  0.1121  2.6279
22523SOL     OW69009   2.079   7.001   7.103 -0.5336  0.0556 -0.7068
22523SOL    HW169010   2.003   6.943   7.107 -0.1079 -0.4178  1.1258
22523SOL    HW269011   2.152   6.948   7.135  0.0208  1.3302  0.2284
22524SOL     OW69012   3.739   6.679   4.511 -0.0687 -0.6109 -0.4601
22524SOL    HW169013   3.785   6.671   4.427 -0.8055 -0.9426 -0.8489
22524SOL    HW269014   3.770   6.605   4.563  0.5510 -0.2849 -0.3551
22525SOL     OW69015   1.641   6.940   2.542  1.3580 -0.1586  0.0549
22525SOL    HW169016   1.602   6.877   2.602  0.8367 -1.4780 -1.5684
22525SOL    HW269017   1.616   7.025   2.576  0.2926 -0.8827  1.1657
22526SOL     OW69018   0.607   3.471   8.728 -0.3045  0.0601  0.1219
22526SOL    HW169019   0.524   3.431   8.705 -0.3083 -1.2644  2.2274
22526SOL    HW269020   0.622   3.447   8.819  2.7040 -0.3039 -0.3521
22527SOL     OW69021   1.071   1.556   9.639 -0.1013 -0.3286  0.5828
22527SOL    HW169022   1.142   1.504   9.602  0.0749  1.9907 -2.7622
22527SOL    HW269023   1.113   1.613   9.703  0.9168  0.3855 -0.6938
22528SOL     OW69024   6.372   1.419   9.394  0.7402 -0.0076 -0.2962
22528SOL    HW169025   6.321   1.460   9.324  0.9420 -0.3206 -0.6264
22528SOL    HW269026   6.354   1.473   9.471 -0.8965 -0.7007 -0.1555
22529SOL     OW69027   5.669   3.600   8.453  0.3006  0.5706  0.1159
22529SOL    HW169028   5.755   3.562   8.472 -1.1124 -1.8795  2.1706
22529SOL    HW269029   5.686   3.663   8.383  3.5509 -0.7836 -0.5011
22530SOL     OW69030   0.057   2.052  12.093  0.1257 -0.4006  0.3858
22530SOL    HW169031   0.008   2.075  12.172  1.2943  1.1087  0.7087
22530SOL    HW269032   0.018   2.105  12.024 -1.1409 -1.9899 -0.1851
22531SOL     OW69033   3.676   1.782   8.577  0.2468  0.1264  0.2002
22531SOL    HW169034   3.669   1.687   8.589 -1.5114  0.3126  0.9820
22531SOL    HW269035   3.586   1.811   8.561  0.5648  1.8088  1.1956
22532SOL     OW69036   4.939   7.319   4.636  0.1158 -0.4103  0.2533
22532SOL    HW169037   5.033   7.314   4.655  0.2820 -0.1360 -0.4770
22532SOL    HW269038   4.906   7.231   4.656  0.3836 -0.2936  1.2402
22533SOL     OW69039   2.071   3.971   8.290 -0.4964 -0.0950 -0.2504
22533SOL    HW169040   2.074   4.048   8.347  0.0982 -0.2515 -0.0598
22533SOL    HW269041   2.061   4.006   8.202  2.8454  0.4302 -0.5758
22534SOL     OW69042   4.447   3.451   7.599 -0.0829  0.2592  0.1495
22534SOL    HW169043   4.542   3.461   7.590 -0.1280  0.2544 -0.3502
22534SOL    HW269044   4.436   3.361   7.629  0.0912  0.3746  0.5598
22535SOL     OW69045   4.629   0.565   9.180 -0.0561  0.0016  0.7944
22535SOL    HW169046   4.560   0.630   9.176 -0.4424 -0.4166  0.6162
22535SOL    HW269047   4.652   0.547   9.089  0.3198  0.1651  0.8517
22536SOL     OW69048   6.853   2.793   7.662 -0.5847  0.0535 -0.1575
22536SOL    HW169049   6.932   2.805   7.715 -1.2265 -1.1140  1.1397
22536SOL    HW269050   6.782   2.822   7.719 -1.1927  0.0539 -0.9006
22537SOL     OW69051   4.679   0.427   2.741  0.2811 -0.0089 -0.0260
22537SOL    HW169052   4.746   0.385   2.688  0.7295  1.4196 -0.6345
22537SOL    HW269053   4.725   0.493   2.792 -0.4236 -0.1241  0.7968
22538SOL     OW69054   0.390   7.723   5.537 -0.1964  0.1954  0.0600
22538SOL    HW169055   0.411   7.717   5.631 -0.9083  1.1952  0.3016
22538SOL    HW269056   0.392   7.817   5.519 -0.0358  0.0022 -0.9391
22539SOL     OW69057   3.295   7.191   3.629  0.2529 -0.4799  0.1164
22539SOL    HW169058   3.333   7.268   3.670 -0.2406 -0.3174  0.2752
22539SOL    HW269059   3.307   7.121   3.693  1.4936 -0.7476 -0.3878
22540SOL     OW69060   3.295   0.143   4.433  0.1352  0.0560  0.0425
22540SOL    HW169061   3.286   0.095   4.350  0.9136  3.2578 -2.0868
22540SOL    HW269062   3.205   0.169   4.456  0.1730  3.0675 -2.5150
22541SOL     OW69063   3.230   0.333   6.137 -0.3198  0.8224  0.4005
22541SOL    HW169064   3.242   0.238   6.133 -1.0192  0.7331  0.3885
22541SOL    HW269065   3.258   0.364   6.051  0.8264  0.7397  0.7266
22542SOL     OW69066   3.583   0.925   3.527  0.1149 -0.4851  0.1515
22542SOL    HW169067   3.504   0.969   3.499 -0.5477 -0.6375  1.6885
22542SOL    HW269068   3.654   0.984   3.502 -0.6167  0.5623  0.4992
22543SOL     OW69069   7.333   0.165   0.368 -0.0918 -0.1803  0.4128
22543SOL    HW169070   7.238   0.151   0.366 -0.3661  1.1622  2.0808
22543SOL    HW269071   7.343   0.258   0.344  0.7379 -0.1321  0.9406
22544SOL     OW69072   1.172   0.566   8.679 -0.2726  0.7121 -0.2751
22544SOL    HW169073   1.201   0.643   8.630 -1.3708  1.8000  0.7145
22544SOL    HW269074   1.117   0.518   8.619 -0.3831  1.2302 -0.5934
22545SOL     OW69075   7.816   7.910  11.773  0.6908 -0.0370 -0.6390
22545SOL    HW169076   7.737   7.952  11.805 -0.0038 -1.7134 -0.0264
22545SOL    HW269077   7.888   7.963  11.807 -0.1310  0.4799  0.3418
22546SOL     OW69078   5.283   0.516   2.073 -0.2330  0.0227  0.5742
22546SOL    HW169079   5.203   0.569   2.069  0.6065  1.2818 -1.3272
22546SOL    HW269080   5.336   0.557   2.141 -0.0064  1.0684 -0.2045
22547SOL     OW69081   6.298   4.412   2.808  0.0666 -0.8094  0.3949
22547SOL    HW169082   6.210   4.443   2.828  0.5724  0.3251  0.9265
22547SOL    HW269083   6.340   4.403   2.894  0.2611 -2.0484  0.1976
22548SOL     OW69084   6.605   4.888   3.355 -0.4901  0.5468  0.6111
22548SOL    HW169085   6.672   4.947   3.388 -0.1925  0.3380  0.3777
22548SOL    HW269086   6.533   4.896   3.419 -0.3941  1.0415  0.6629
22549SOL     OW69087   6.869   4.298   0.554 -0.0836 -0.0990  0.8337
22549SOL    HW169088   6.946   4.343   0.519 -0.2350 -0.9301 -0.6810
22549SOL    HW269089   6.905   4.222   0.600  0.0145 -0.2946  0.4346
22550SOL     OW69090   5.900   6.722   5.833 -0.1082  0.3577 -0.0306
22550SOL    HW169091   5.870   6.787   5.897 -0.2838  0.6769 -0.4352
22550SOL    HW269092   5.961   6.667   5.882 -1.4584 -0.3997  0.8508
22551SOL     OW69093   0.654   0.430   4.189  0.0977 -0.2999 -0.5031
22551SOL    HW169094   0.688   0.514   4.158 -2.7764  0.2065 -2.6914
22551SOL    HW269095   0.634   0.445   4.281  1.2121  0.8477 -0.4184
22552SOL     OW69096   0.966   2.612  11.166  0.3683 -0.7095  0.1338
22552SOL    HW169097   1.004   2.531  11.199 -2.3904 -1.1212  2.7440
22552SOL    HW269098   0.980   2.675  11.237 -1.7665 -0.3063  0.2702
22553SOL     OW69099   5.788   0.344   6.858  0.6241  0.0290 -0.3703
22553SOL    HW169100   5.841   0.283   6.808  1.1685 -0.3871  0.6828
22553SOL    HW269101   5.700   0.336   6.821  0.3786 -2.4036  0.6123
22554SOL     OW69102   2.531   3.815  11.975 -0.6812  0.0861 -0.1906
22554SOL    HW169103   2.582   3.834  11.897  0.2567 -2.6220 -0.3369
22554SOL    HW269104   2.467   3.886  11.979  0.4785  1.3648 -2.2941
22555SOL     OW69105   4.240   2.833  10.262  0.0193  0.3511 -0.1780
22555SOL    HW169106   4.215   2.895  10.194  0.6682  0.9440  0.1150
22555SOL    HW269107   4.163   2.778  10.275  0.1155 -0.2493 -1.9104
22556SOL     OW69108   5.899   6.799   2.550  0.2140 -0.2321  0.3844
22556SOL    HW169109   5.898   6.704   2.547  0.2307 -0.3115  2.0963
22556SOL    HW269110   5.825   6.826   2.495 -1.0698 -1.2981  1.5242
22557SOL     OW69111   2.493   4.249   1.979  0.8086 -0.0720  0.2800
22557SOL    HW169112   2.438   4.170   1.983  0.6036  0.0403 -0.2952
22557SOL    HW269113   2.475   4.287   1.893  1.7313  0.0082  0.1128
22558SOL     OW69114   3.231   3.212   7.241 -0.6199 -0.0630 -0.6138
22558SOL    HW169115   3.312   3.260   7.228 -1.0460  0.9771  0.4105
22558SOL    HW269116   3.230   3.147   7.170  0.7269  0.3946 -1.0838
22559SOL     OW69117   3.644   6.094   8.397  0.2735  0.3107 -0.4167
22559SOL    HW169118   3.607   6.133   8.317 -1.2001 -1.4004 -0.6242
22559SOL    HW269119   3.587   6.125   8.467  0.8007  0.7814 -0.1910
22560SOL     OW69120   4.312   7.950   4.714  0.1740 -0.0208 -0.4390
22560SOL    HW169121   4.329   7.856   4.709  0.4116  0.0359 -0.7636
22560SOL    HW269122   4.224   7.960   4.678  0.6193  0.0068 -1.5943
22561SOL     OW69123   1.934   4.504   1.383  0.2811 -0.4132  0.1015
22561SOL    HW169124   1.952   4.592   1.414  0.0614 -0.4359  0.2975
22561SOL    HW269125   1.997   4.448   1.430  1.9923 -0.1109 -1.7011
22562SOL     OW69126   0.803   4.310   3.129  0.8980  0.7739  0.0715
22562SOL    HW169127   0.773   4.297   3.218 -0.3144  3.2998  0.1181
22562SOL    HW269128   0.723   4.315   3.076  1.3708  2.6085 -0.5775
22563SOL     OW69129   2.518   6.574  10.430  0.1222 -0.1152 -0.0582
22563SOL    HW169130   2.534   6.621  10.348  1.3464  1.1406  0.8562
22563SOL    HW269131   2.603   6.536  10.453 -0.0674  0.0249  0.9203
22564SOL     OW69132   0.421   2.558   3.406 -0.0770  0.2256 -0.3913
22564SOL    HW169133   0.380   2.627   3.458 -1.5102 -0.2864 -0.7744
22564SOL    HW269134   0.444   2.490   3.470  0.5744  0.7105 -0.1139
22565SOL     OW69135   5.769   3.438   4.178  0.8940 -0.3224 -0.5645
22565SOL    HW169136   5.802   3.375   4.241 -0.1141  0.5544  0.9017
22565SOL    HW269137   5.843   3.495   4.159  0.9938 -0.0594  0.5486
22566SOL     OW69138   4.400   0.836   7.750  0.1538 -0.0607  0.1822
22566SOL    HW169139   4.431   0.926   7.745  0.9899 -0.3739 -0.5398
22566SOL    HW269140   4.389   0.820   7.844 -0.6867  0.9980  0.2896
22567SOL     OW69141   5.872   0.260   4.151  0.1328  0.6274  0.2333
22567SOL    HW169142   5.926   0.338   4.139  0.7102  0.0023 -1.6629
22567SOL    HW269143   5.895   0.203   4.078 -3.1528  0.3520 -0.7822
22568SOL     OW69144   2.018   1.161   0.203  0.1340  0.1431  0.1666
22568SOL    HW169145   1.985   1.188   0.289 -1.8175 -0.6320 -0.2946
22568SOL    HW269146   2.039   1.068   0.214  2.9038  0.7442  0.6192
22569SOL     OW69147   4.893   1.490   4.223 -0.5161 -0.1383 -0.1933
22569SOL    HW169148   4.914   1.467   4.132 -2.0419 -0.8878 -0.3876
22569SOL    HW269149   4.800   1.471   4.231 -0.5147  0.4238  1.3958
22570SOL     OW69150   1.883   2.113   4.517  0.0988 -0.2272  0.5451
22570SOL    HW169151   1.945   2.178   4.482  1.4906 -1.2771  0.9580
22570SOL    HW269152   1.888   2.040   4.455 -1.0689 -0.1642  0.3633
22571SOL     OW69153   6.822   1.943   1.137  0.1355 -0.1359  0.4139
22571SOL    HW169154   6.800   2.020   1.083 -2.2996 -2.4746 -2.2472
22571SOL    HW269155   6.879   1.978   1.206 -2.2929  4.3917  0.5054
22572SOL     OW69156   6.251   3.037  11.470 -0.5660  0.2100  0.4188
22572SOL    HW169157   6.163   3.068  11.447 -1.0129 -2.1732 -1.5546
22572SOL    HW269158   6.298   3.036  11.386 -0.3318 -3.3119  0.4435
22573SOL     OW69159   3.146   1.981   4.426  0.2270 -0.0940 -0.4420
22573SOL    HW169160   3.147   1.885   4.434 -1.2384 -0.0543  0.4784
22573SOL    HW269161   3.057   2.006   4.450  0.5795  1.5100 -0.7273
22574SOL     OW69162   3.761   6.933   4.634  0.7085  0.0840 -0.4820
22574SOL    HW169163   3.685   6.935   4.693  0.1711  0.5073 -1.1718
22574SOL    HW269164   3.741   6.862   4.573  0.0297  1.3189 -1.7349
22575SOL     OW69165   4.831   4.480   9.712 -0.3382 -0.3275 -0.0213
22575SOL    HW169166   4.882   4.399   9.707  1.1768  0.5837 -0.0533
22575SOL    HW269167   4.811   4.490   9.805 -0.1381 -0.5124  0.0442
22576SOL     OW69168   0.463   3.780   7.022 -1.5809  0.4051 -0.6051
22576SOL    HW169169   0.402   3.755   6.953 -1.6927 -0.4824 -0.1866
22576SOL    HW269170   0.447   3.719   7.093 -1.0052  0.8935 -0.0386
22577SOL     OW69171   4.528   4.718   2.096 -0.3549 -0.4255  0.6270
22577SOL    HW169172   4.501   4.701   2.186 -0.3581 -0.5571  0.6011
22577SOL    HW269173   4.580   4.798   2.101 -0.0724 -0.6217  0.7930
22578SOL     OW69174   2.419   0.213  10.311  0.1143  0.1600  0.5178
22578SOL    HW169175   2.380   0.277  10.252  0.7296  1.8593  1.8638
22578SOL    HW269176   2.505   0.194  10.273 -0.5992 -0.9275 -0.5970
22579SOL     OW69177   4.345   1.320  11.008 -0.0805 -0.1177 -0.0165
22579SOL    HW169178   4.289   1.366  11.070  1.1346 -0.0720  1.0860
22579SOL    HW269179   4.416   1.283  11.061  0.9109 -0.2271 -1.3469
22580SOL     OW69180   6.520   7.140   9.039 -0.3491 -0.1295  0.0262
22580SOL    HW169181   6.566   7.070   9.085  1.6567  0.8766 -0.3253
22580SOL    HW269182   6.494   7.201   9.107  0.8879  0.4049  0.0370
22581SOL     OW69183   5.278   3.331   8.044 -0.4931 -0.1988 -0.0076
22581SOL    HW169184   5.245   3.371   7.964  1.9298  0.3046 -0.8363
22581SOL    HW269185   5.363   3.293   8.019 -0.4861 -1.6096  1.9085
22582SOL     OW69186   2.098   6.470   9.100 -0.1326  0.0045  0.0732
22582SOL    HW169187   2.079   6.391   9.050  2.7843  0.3117 -1.7295
22582SOL    HW269188   2.072   6.542   9.043 -1.2379  0.3976  1.0341
22583SOL     OW69189   4.719   4.154   2.239 -0.0204 -0.5626 -0.5007
22583SOL    HW169190   4.795   4.199   2.275  2.2226 -5.3607  1.7494
22583SOL    HW269191   4.661   4.140   2.315 -1.4275 -0.0964 -1.4493
22584SOL     OW69192   2.384   6.728   4.431  0.5323 -0.1744  0.2046
22584SOL    HW169193   2.454   6.768   4.380  0.3670 -1.1916 -0.8521
22584SOL    HW269194   2.312   6.790   4.425  0.8307  0.1533 -0.0169
22585SOL     OW69195   0.564   5.493   1.690 -0.6685  0.1191  0.0575
22585SOL    HW169196   0.476   5.521   1.715 -0.8329 -1.3285  1.2296
22585SOL    HW269197   0.622   5.534   1.754 -0.4520  1.0811 -0.7206
22586SOL     OW69198   3.646   0.495   2.556 -0.1198 -0.4219  0.2271
22586SOL    HW169199   3.696   0.485   2.637 -1.9097 -0.2649  1.4074
22586SOL    HW269200   3.713   0.505   2.488  1.4661 -1.6963  1.4983
22587SOL     OW69201   7.500   7.045  11.190  0.4368 -0.4113 -0.4477
22587SOL    HW169202   7.408   7.061  11.209  0.5183  0.2688 -0.6062
22587SOL    HW269203   7.504   7.040  11.094  0.5173 -0.7598 -0.4286
22588SOL     OW69204   1.981   6.026   6.176  0.9066  0.3320 -0.0047
22588SOL    HW169205   2.048   5.976   6.223 -0.0602 -0.9084  0.1174
22588SOL    HW269206   2.015   6.036   6.087  0.4376 -2.0699 -0.5337
22589SOL     OW69207   5.143   2.833   8.458 -0.3695 -0.0007  0.1057
22589SOL    HW169208   5.172   2.923   8.468  0.5031 -0.0579 -1.4860
22589SOL    HW269209   5.067   2.825   8.515  1.7794  0.6132  3.3559
22590SOL     OW69210   0.445   2.761   4.441 -0.5704 -0.1215  0.2154
22590SOL    HW169211   0.466   2.669   4.458  0.2232 -0.0013 -0.0511
22590SOL    HW269212   0.530   2.803   4.428 -0.9305  0.6263  0.1950
22591SOL     OW69213   7.229   1.507   5.369  0.2812  0.1263  0.0869
22591SOL    HW169214   7.274   1.426   5.392 -0.4167  0.1414  1.6422
22591SOL    HW269215   7.138   1.491   5.394  0.1673  1.4461  0.5871
22592SOL     OW69216   3.216   6.689   0.957  0.2077 -0.1919  0.4935
22592SOL    HW169217   3.220   6.784   0.956 -1.0838 -0.0843 -2.1391
22592SOL    HW269218   3.122   6.669   0.959  0.4455 -1.4112  0.4099
22593SOL     OW69219   5.778   3.859   1.616  0.4446 -0.3753 -0.3311
22593SOL    HW169220   5.836   3.829   1.547 -3.1635 -3.4362 -2.3728
22593SOL    HW269221   5.716   3.917   1.572  0.8258  1.5346  1.4579
22594SOL     OW69222   3.694   4.721   3.177 -0.4476 -0.0277  0.0423
22594SOL    HW169223   3.629   4.730   3.108  1.2498 -0.6219 -1.6997
22594SOL    HW269224   3.774   4.693   3.133  0.8971  0.1921  2.1586
22595SOL     OW69225   0.006   3.107   5.135  0.7102 -0.0723  0.2930
22595SOL    HW169226  -0.030   3.119   5.224  1.2186 -2.6461  0.9123
22595SOL    HW269227  -0.069   3.123   5.077  0.4219  1.8850  1.1081
22596SOL     OW69228   0.048   6.397   8.793  0.0252 -0.2215 -0.1119
22596SOL    HW169229   0.096   6.380   8.874  0.5215  0.7448 -0.1885
22596SOL    HW269230   0.060   6.490   8.777 -0.8585 -0.2129 -0.8012
22597SOL     OW69231   1.341   2.374   2.303  0.6074 -0.2887 -0.5310
22597SOL    HW169232   1.292   2.450   2.334  0.7020 -0.2517 -0.4698
22597SOL    HW269233   1.279   2.302   2.306  0.3534 -0.0994 -1.1355
22598SOL     OW69234   3.974   1.646   4.614  0.3684  0.8532 -0.1697
22598SOL    HW169235   4.022   1.652   4.532  2.2192  2.5653  0.9582
22598SOL    HW269236   3.936   1.734   4.626 -0.4425  0.4277  0.5040
22599SOL     OW69237   5.705   6.138   6.270  0.8880 -0.1409  0.1462
22599SOL    HW169238   5.769   6.151   6.200  0.0180  0.9508 -0.4788
22599SOL    HW269239   5.640   6.207   6.257 -1.2120 -2.0187 -0.1183
22600SOL     OW69240   2.206   2.163  12.064 -0.1735 -0.0641  0.4788
22600SOL    HW169241   2.145   2.091  12.080 -1.5585  0.9832  0.1697
22600SOL    HW269242   2.286   2.139  12.110 -0.7732 -1.5581  0.7749
22601SOL     OW69243   2.004   3.290   0.194 -0.9111  0.2727 -0.4329
22601SOL    HW169244   2.044   3.346   0.128 -0.6418  0.6573  0.0567
22601SOL    HW269245   1.996   3.204   0.151 -0.7053  0.5111 -0.9478
22602SOL     OW69246   6.856   2.883   6.611 -0.1412 -0.1421  0.1815
22602SOL    HW169247   6.800   2.939   6.663  0.9412  1.3102 -0.1387
22602SOL    HW269248   6.945   2.918   6.625  0.7442 -2.4661  0.8303
22603SOL     OW69249   6.187   1.917   3.107  0.1223 -0.2637  0.2295
22603SOL    HW169250   6.128   1.992   3.111  0.5636  0.0437  1.2192
22603SOL    HW269251   6.131   1.844   3.081 -1.3392 -0.5381  3.6026
22604SOL     OW69252   0.657   6.987   4.254  0.0538 -0.1765  0.4268
22604SOL    HW169253   0.673   6.938   4.335  0.0021 -0.9209 -0.0086
22604SOL    HW269254   0.563   6.976   4.238  0.2410 -0.8603 -0.2566
22605SOL     OW69255   0.343   5.757   6.160  0.2222 -0.5486  0.0612
22605SOL    HW169256   0.416   5.778   6.219 -0.3832 -1.4691  1.1541
22605SOL    HW269257   0.291   5.692   6.207 -1.2495 -0.0071 -0.7580
22606SOL     OW69258   4.674   5.112   6.194 -0.0312  0.0250 -0.0613
22606SOL    HW169259   4.637   5.146   6.275  0.2728  0.2286 -0.0059
22606SOL    HW269260   4.650   5.019   6.194  1.2244 -0.3254  0.9958
22607SOL     OW69261   4.036   6.020  11.309  0.0622  0.0816  0.0638
22607SOL    HW169262   4.047   5.936  11.265 -1.0243 -1.0998  1.9086
22607SOL    HW269263   4.123   6.060  11.308  0.5753 -1.0300 -0.9024
22608SOL     OW69264   6.017   1.064   1.150  0.2997 -0.5511 -0.5401
22608SOL    HW169265   6.060   1.037   1.068  0.0617 -0.9058 -0.5524
22608SOL    HW269266   6.082   1.118   1.195  1.6959 -2.8960  0.4872
22609SOL     OW69267   3.752   2.580   4.524 -0.3146 -0.1813  0.1027
22609SOL    HW169268   3.814   2.583   4.451  1.7727 -0.0332  1.7764
22609SOL    HW269269   3.677   2.531   4.490  0.3657  0.2674 -2.2557
22610SOL     OW69270   7.909   6.667  10.459 -0.0896 -0.0528 -0.4272
22610SOL    HW169271   7.868   6.607  10.521 -0.1425 -1.1364 -1.4733
22610SOL    HW269272   7.836   6.701  10.406 -0.3191  2.4019  1.2945
22611SOL     OW69273   1.770   0.052   7.410  0.3912 -0.1413  0.0892
22611SOL    HW169274   1.756  -0.003   7.333  0.8119  1.0566 -0.8706
22611SOL    HW269275   1.865   0.063   7.415  0.3633 -0.1100  0.7229
22612SOL     OW69276   6.539   1.250  11.272  0.6010  0.2370 -0.4117
22612SOL    HW169277   6.572   1.171  11.228  0.4379 -1.3987  2.2106
22612SOL    HW269278   6.576   1.246  11.360 -2.5884  0.9274  1.1205
22613SOL     OW69279   7.808   4.138   8.850 -0.2476  0.2066  0.4288
22613SOL    HW169280   7.790   4.054   8.892  1.0546 -0.0672  0.5041
22613SOL    HW269281   7.758   4.202   8.900  0.1467 -0.3084  1.5136
22614SOL     OW69282   0.912   1.175   5.728  0.1634  0.4024 -0.0997
22614SOL    HW169283   0.921   1.114   5.801  0.7461  1.7783  1.0168
22614SOL    HW269284   0.849   1.240   5.758  1.4034  1.7200 -0.2875
22615SOL     OW69285   0.432   1.844  10.028 -0.4780  0.2730  0.5968
22615SOL    HW169286   0.357   1.787  10.047 -1.0505  1.5172  2.2554
22615SOL    HW269287   0.508   1.792  10.054 -0.8627 -0.3593  0.4950
22616SOL     OW69288   5.029   1.238  10.049  0.1938 -0.5091  0.0511
22616SOL    HW169289   5.124   1.233  10.058  0.3351  1.5228  0.1517
22616SOL    HW269290   5.003   1.308  10.109 -1.3814 -1.0857  0.0883
22617SOL     OW69291   0.784   5.484   8.814  0.3252  1.0014  0.6620
22617SOL    HW169292   0.716   5.418   8.822 -1.2874  2.3281 -1.1390
22617SOL    HW269293   0.827   5.463   8.731  1.2680  0.9529  1.1516
22618SOL     OW69294   0.070   2.806   9.093  0.0457  0.4415  0.0875
22618SOL    HW169295   0.148   2.773   9.138 -1.0938 -0.0299  1.8196
22618SOL    HW269296   0.078   2.901   9.097  0.7036  0.3960 -0.0700
22619SOL     OW69297   7.491   6.048  10.438 -0.1183 -0.2424 -0.1324
22619SOL    HW169298   7.559   6.095  10.487  0.6614 -0.9678 -0.4913
22619SOL    HW269299   7.506   6.075  10.347  0.3350 -1.1798 -0.3398
22620SOL     OW69300   2.734   0.133   5.522 -0.3351 -0.3759 -0.8091
22620SOL    HW169301   2.643   0.132   5.551 -0.1677  0.7180 -0.1841
22620SOL    HW269302   2.779   0.076   5.584 -0.4848 -0.3630 -0.6858
22621SOL     OW69303   3.268   4.304   1.921  0.7034 -0.0327  0.4595
22621SOL    HW169304   3.185   4.351   1.913  1.1284  0.9966  1.6940
22621SOL    HW269305   3.334   4.371   1.905  1.3428 -0.0031  2.8556
22622SOL     OW69306   4.488   6.112   4.482 -0.6038  0.7281 -0.0788
22622SOL    HW169307   4.417   6.048   4.490  0.6704 -1.0262 -1.9414
22622SOL    HW269308   4.497   6.148   4.570 -1.6513 -1.3641  0.9564
22623SOL     OW69309   5.891   7.563   1.043 -0.1912 -0.2693 -0.1209
22623SOL    HW169310   5.911   7.647   1.084 -1.8122  0.1213 -0.0485
22623SOL    HW269311   5.919   7.498   1.108  1.0277  0.2096 -0.1572
22624SOL     OW69312   3.071   3.151   5.438  0.2528 -0.1086  0.2682
22624SOL    HW169313   3.011   3.139   5.511 -0.0594 -1.6667 -0.2047
22624SOL    HW269314   3.097   3.062   5.414 -0.2180  0.3089 -1.9811
22625SOL     OW69315   3.343   6.494   3.238  0.4120  0.9659  0.8988
22625SOL    HW169316   3.406   6.469   3.171 -0.2017 -3.0938  1.5954
22625SOL    HW269317   3.397   6.519   3.313  1.1171  1.6351  0.1890
22626SOL     OW69318   0.631   3.013   2.401  0.1454 -0.2627 -0.9074
22626SOL    HW169319   0.711   2.988   2.447  0.6386  0.4389 -1.3586
22626SOL    HW269320   0.652   3.001   2.308 -1.5033 -3.6395 -0.9844
22627SOL     OW69321   1.226   6.594  10.294  0.5758 -0.3896 -0.3053
22627SOL    HW169322   1.313   6.628  10.312  0.3350  0.7334 -1.1640
22627SOL    HW269323   1.205   6.539  10.371  1.5587  0.2541  0.4422
22628SOL     OW69324   0.236   7.216   6.889  0.6626  0.0188 -0.0057
22628SOL    HW169325   0.145   7.243   6.884  0.4417 -0.4240  1.3764
22628SOL    HW269326   0.278   7.262   6.816 -0.8771 -0.7089 -1.4117
22629SOL     OW69327   2.567   0.844   5.146 -0.2894  0.0487  0.2190
22629SOL    HW169328   2.569   0.750   5.132  0.2608 -0.0810  1.0946
22629SOL    HW269329   2.485   0.860   5.193 -1.1542  0.2323 -1.2612
22630SOL     OW69330   0.282   5.584   1.248  0.0782  0.2554 -0.1280
22630SOL    HW169331   0.247   5.548   1.166 -0.5498  1.6709 -0.5133
22630SOL    HW269332   0.335   5.513   1.285 -1.5230 -1.2240 -0.5671
22631SOL     OW69333   0.378   7.935   7.795 -0.3988 -0.0197  0.8031
22631SOL    HW169334   0.297   7.920   7.843 -0.7210 -0.7233  0.0747
22631SOL    HW269335   0.443   7.880   7.839 -0.8790 -1.2931 -0.0240
22632SOL     OW69336   7.617   1.742  11.775  0.0164 -0.3035 -1.1238
22632SOL    HW169337   7.669   1.775  11.849  2.5412 -1.6914 -2.1371
22632SOL    HW269338   7.626   1.810  11.708 -0.5999  0.0439 -0.8634
22633SOL     OW69339   4.794   7.641  10.900  0.1061 -0.2818 -0.0764
22633SOL    HW169340   4.840   7.661  10.981 -1.5875  0.2950  0.7784
22633SOL    HW269341   4.828   7.705  10.837 -0.0245  0.5775  0.7187
22634SOL     OW69342   0.686   0.333   7.870 -0.4773 -0.0468 -0.3690
22634SOL    HW169343   0.761   0.296   7.823 -0.2117  0.8118 -0.6422
22634SOL    HW269344   0.610   0.302   7.820 -0.4186 -2.0799  0.7172
22635SOL     OW69345   1.167   4.358   4.916  0.5117 -0.4848  0.4615
22635SOL    HW169346   1.241   4.348   4.857  1.2396 -2.3325  1.5816
22635SOL    HW269347   1.201   4.329   5.001 -0.6367  1.5625  1.6818
22636SOL     OW69348   7.704   5.586   9.123 -0.1178 -0.2790 -0.7727
22636SOL    HW169349   7.778   5.645   9.117  0.3069 -0.2571  2.6587
22636SOL    HW269350   7.631   5.634   9.084  0.1036  2.8742  2.2119
22637SOL     OW69351   0.980   1.901   3.437  0.0530 -0.7050  0.1892
22637SOL    HW169352   0.947   1.924   3.350  1.1410  0.9323  0.1697
22637SOL    HW269353   0.990   1.985   3.482  2.2554 -1.2614  0.8661
22638SOL     OW69354   1.632   7.396   2.807  0.5699  0.2199 -0.2162
22638SOL    HW169355   1.687   7.474   2.815  0.1719  0.7148 -1.8391
22638SOL    HW269356   1.547   7.423   2.844  0.6473  0.3156 -0.1069
22639SOL     OW69357   0.807   6.041   7.207 -0.3542  0.1508 -0.1275
22639SOL    HW169358   0.736   5.980   7.188  0.1976 -1.0216  1.3821
22639SOL    HW269359   0.882   6.008   7.157 -1.0728  2.0696 -2.6943
22640SOL     OW69360   2.409   0.215   5.590  0.5238  0.1199 -0.0762
22640SOL    HW169361   2.452   0.176   5.666 -0.5936 -1.2417 -0.0993
22640SOL    HW269362   2.316   0.213   5.611  0.3764  2.5226 -0.2474
22641SOL     OW69363   4.898   3.293   2.955 -0.0925 -0.0714 -0.1440
22641SOL    HW169364   4.841   3.351   2.906  1.0552  1.5620  0.3585
22641SOL    HW269365   4.974   3.280   2.898  0.4731  0.4439  0.4710
22642SOL     OW69366   3.193   5.269   7.428 -0.5449  0.0030 -0.1079
22642SOL    HW169367   3.204   5.205   7.358  0.3130  1.8827 -1.8139
22642SOL    HW269368   3.217   5.223   7.508 -2.6618 -2.5729 -0.8233
22643SOL     OW69369   7.055   2.709   9.088 -0.4727  0.1373 -0.1734
22643SOL    HW169370   7.114   2.722   9.014 -0.6091 -1.0806 -0.5174
22643SOL    HW269371   7.090   2.633   9.134 -1.3500 -0.1550  0.0284
22644SOL     OW69372   7.295   3.741  11.298  0.4293  0.4190 -0.1228
22644SOL    HW169373   7.381   3.709  11.271  1.2705  1.9379  0.5946
22644SOL    HW269374   7.233   3.693  11.244  1.7929  0.0739 -1.4459
22645SOL     OW69375   1.090   4.978   7.683  0.6664  0.6678 -0.1358
22645SOL    HW169376   1.170   5.027   7.664  0.9110 -0.1992 -1.5113
22645SOL    HW269377   1.028   5.008   7.617 -0.1260  1.2733  0.8716
22646SOL     OW69378   7.345   3.455  12.279 -0.1497  0.1100 -0.0772
22646SOL    HW169379   7.344   3.497  12.364  0.8795  1.6769 -0.8018
22646SOL    HW269380   7.435   3.466  12.247 -0.2902 -1.1651 -1.0359
22647SOL     OW69381   1.246   2.860   6.019 -0.2302 -0.2466  0.3946
22647SOL    HW169382   1.193   2.839   6.096 -0.6010  0.0985  0.2418
22647SOL    HW269383   1.239   2.955   6.011  0.7290 -0.1558  0.5900
22648SOL     OW69384   5.733   5.655   9.112 -0.6033  0.3122 -0.1258
22648SOL    HW169385   5.776   5.592   9.170 -0.0592  1.1797  0.4312
22648SOL    HW269386   5.775   5.643   9.027 -2.4147 -2.0179 -0.8070
22649SOL     OW69387   2.565   4.089  11.891 -0.5155 -0.6190 -0.0866
22649SOL    HW169388   2.636   4.033  11.860  0.1871  0.5036 -0.5632
22649SOL    HW269389   2.510   4.103  11.814 -0.1976  0.0465 -0.2061
22650SOL     OW69390   7.267   7.742   8.207 -0.0441 -0.2302 -0.2535
22650SOL    HW169391   7.236   7.801   8.138 -0.9810  0.0824  0.4180
22650SOL    HW269392   7.188   7.714   8.252  0.4733 -1.2694  0.0363
22651SOL     OW69393   3.497   0.139  12.406  0.0911 -0.8739  0.1967
22651SOL    HW169394   3.500   0.052  12.368  0.1371 -0.4528 -0.7851
22651SOL    HW269395   3.586   0.174  12.392  0.2449 -0.8765  1.0978
22652SOL     OW69396   1.085   0.389  10.811 -0.3034 -0.5690  0.0646
22652SOL    HW169397   1.087   0.341  10.727  1.1299  0.6853 -0.6713
22652SOL    HW269398   0.996   0.421  10.818 -0.2456  0.0212 -1.4379
22653SOL     OW69399   4.826   1.582   1.656 -0.4340 -0.2071  0.8042
22653SOL    HW169400   4.768   1.506   1.654 -0.9824  0.2119  0.6179
22653SOL    HW269401   4.893   1.558   1.720 -0.2313 -1.1084  0.2692
22654SOL     OW69402   3.551   3.083   9.105  0.1592  0.2722 -0.6238
22654SOL    HW169403   3.505   3.115   9.183 -0.5345  1.5517 -1.5014
22654SOL    HW269404   3.534   3.151   9.039  0.6611 -0.8130 -1.9047
22655SOL     OW69405   1.758   1.161  10.742  0.1176 -0.2640  0.1950
22655SOL    HW169406   1.669   1.127  10.741 -0.2281  0.6070 -0.6971
22655SOL    HW269407   1.809   1.095  10.789 -1.1099 -0.4685  1.3002
22656SOL     OW69408   7.328   3.266  10.423  0.2003 -0.3577  0.5417
22656SOL    HW169409   7.412   3.225  10.443  0.5092  0.3755  0.7805
22656SOL    HW269410   7.311   3.325  10.497 -0.7284 -0.8066  0.6945
22657SOL     OW69411   2.724   2.725   6.571 -0.4707 -0.0024 -0.2455
22657SOL    HW169412   2.754   2.639   6.601  0.8864  0.6739  0.4077
22657SOL    HW269413   2.790   2.786   6.603 -1.4278  1.2999 -0.6776
22658SOL     OW69414   6.459   3.562  11.141  0.4611 -0.2744 -0.6195
22658SOL    HW169415   6.395   3.501  11.177  0.5665  0.3276  0.6063
22658SOL    HW269416   6.540   3.511  11.137  0.7466 -0.0071  1.1625
22659SOL     OW69417   5.038   3.882   5.213 -0.2856  0.3286  0.1912
22659SOL    HW169418   5.027   3.886   5.118 -1.0486  0.9554  0.3015
22659SOL    HW269419   4.969   3.823   5.243 -0.2513  0.3908  0.3928
22660SOL     OW69420   5.062   1.969   7.994 -0.5825 -0.4905 -0.4380
22660SOL    HW169421   5.037   2.017   7.915  0.3132  1.0331  0.1594
22660SOL    HW269422   5.016   2.014   8.065 -1.6507 -2.0552 -0.0784
22661SOL     OW69423   6.212   5.121  12.384 -0.1867 -0.4401 -0.1103
22661SOL    HW169424   6.173   5.151  12.302 -0.9552  0.6141  0.6147
22661SOL    HW269425   6.145   5.066  12.424 -0.1209 -0.3081  0.1825
22662SOL     OW69426   3.996   2.038  11.039 -0.1608 -0.2239  0.1013
22662SOL    HW169427   3.953   2.120  11.062  0.0768  0.2995 -1.2600
22662SOL    HW269428   4.071   2.033  11.098 -1.1600 -0.3614  1.4059
22663SOL     OW69429   3.595   7.130   4.242 -0.3001 -0.4566  0.2976
22663SOL    HW169430   3.575   7.053   4.295 -0.4582  0.3922  1.5046
22663SOL    HW269431   3.593   7.203   4.303  2.8716  0.1815 -0.1828
22664SOL     OW69432   5.123   4.527  10.013 -0.5139 -0.4194 -0.5949
22664SOL    HW169433   5.053   4.592  10.023 -1.0431 -0.6987 -2.1479
22664SOL    HW269434   5.204   4.577  10.018 -0.8547  0.0769  0.0862
22665SOL     OW69435   5.087   7.696   4.052 -0.2584  0.0767 -0.5797
22665SOL    HW169436   5.104   7.780   4.094  1.8731 -0.3852 -0.4177
22665SOL    HW269437   5.167   7.645   4.066 -1.2380 -1.7490 -1.2554
22666SOL     OW69438   3.455   6.300  12.413  0.5477 -0.8326  0.0041
22666SOL    HW169439   3.499   6.287  12.329 -0.0229 -0.7464 -0.3136
22666SOL    HW269440   3.505   6.246  12.475  2.0049  0.4079 -0.0377
22667SOL     OW69441   7.906   6.458   0.654  0.0646  0.1967 -0.0145
22667SOL    HW169442   7.934   6.371   0.626 -2.1397 -0.4294 -0.3988
22667SOL    HW269443   7.866   6.497   0.576  0.2304  1.2355  0.3957
22668SOL     OW69444   6.310   3.885   4.582  0.0378  0.2501 -0.1704
22668SOL    HW169445   6.278   3.796   4.594 -0.9145  0.5681 -0.2898
22668SOL    HW269446   6.390   3.888   4.634 -0.5972 -0.3049  0.8822
22669SOL     OW69447   7.316   1.542   2.047  0.5052 -0.3855  0.2171
22669SOL    HW169448   7.301   1.518   2.139 -1.0495 -0.2720  0.0191
22669SOL    HW269449   7.312   1.638   2.047 -2.2513 -0.4150 -0.3305
22670SOL     OW69450   5.810   3.118   6.593 -0.3121  0.1176  0.7057
22670SOL    HW169451   5.880   3.182   6.582 -0.9217  0.9082  1.3428
22670SOL    HW269452   5.730   3.165   6.569 -0.8630 -0.1618  1.9043
22671SOL     OW69453   5.427   5.298  11.631  0.8525 -0.1500 -0.0781
22671SOL    HW169454   5.469   5.302  11.545  2.8637 -2.0561  0.7079
22671SOL    HW269455   5.354   5.237  11.619  2.1295 -1.7498 -0.1524
22672SOL     OW69456   4.422   1.665   7.944 -0.1857  0.0887 -0.0206
22672SOL    HW169457   4.423   1.632   8.033 -1.0208  0.1585  0.0243
22672SOL    HW269458   4.480   1.741   7.945 -1.1275  0.8255  0.7678
22673SOL     OW69459   2.363   5.265   2.948  0.5296  0.0947 -0.1797
22673SOL    HW169460   2.344   5.356   2.973 -0.6522 -0.0736 -0.4057
22673SOL    HW269461   2.410   5.229   3.023 -1.7827 -0.0262  1.3220
22674SOL     OW69462   0.148   4.024   6.981 -0.0190  0.2232  0.2888
22674SOL    HW169463   0.061   4.022   7.021  0.1463  0.9031  0.6880
22674SOL    HW269464   0.207   4.000   7.053  0.1185 -0.3105  0.0003
22675SOL     OW69465   6.504   3.449   4.176  0.4291 -0.2293 -0.0846
22675SOL    HW169466   6.530   3.391   4.104 -0.4127  0.5013 -0.9987
22675SOL    HW269467   6.429   3.404   4.216  0.5804 -0.3896  0.0222
22676SOL     OW69468   0.370   0.664   7.038  0.3705 -0.0735 -1.2095
22676SOL    HW169469   0.465   0.661   7.022  0.7755  0.0029  0.8814
22676SOL    HW269470   0.361   0.712   7.120 -1.6687  1.7795 -2.4123
22677SOL     OW69471   6.278   0.411   6.641 -0.0455  0.2761 -0.3083
22677SOL    HW169472   6.231   0.343   6.690  1.8581 -0.7276  0.2027
22677SOL    HW269473   6.212   0.478   6.625 -1.2577 -0.3208  1.8169
22678SOL     OW69474   0.718   2.977   2.144  0.1240 -0.3547  0.8667
22678SOL    HW169475   0.649   3.040   2.121  0.5643  0.0057  0.4973
22678SOL    HW269476   0.784   2.990   2.077  3.0018  3.0503  3.9199
22679SOL     OW69477   6.549   2.891   6.376 -0.1633  0.2311 -0.2294
22679SOL    HW169478   6.468   2.885   6.325  0.3393 -0.3501 -0.9809
22679SOL    HW269479   6.533   2.838   6.454 -0.7112  0.5991 -0.0866
22680SOL     OW69480   6.783   7.029   9.510  0.2155 -0.5878 -0.6407
22680SOL    HW169481   6.836   7.105   9.485 -0.3191  0.0032 -0.0164
22680SOL    HW269482   6.759   6.988   9.427  1.8243 -0.9936 -0.9277
22681SOL     OW69483   3.311   3.577   8.770 -0.2241 -0.5272 -0.1091
22681SOL    HW169484   3.296   3.593   8.863 -1.0169 -1.8908  0.0369
22681SOL    HW269485   3.406   3.582   8.759 -0.1568  0.0357  0.6867
22682SOL     OW69486   4.333   5.932   2.100 -0.1310  0.0194  0.4829
22682SOL    HW169487   4.269   5.936   2.171  1.6636  0.3866  2.1682
22682SOL    HW269488   4.295   5.985   2.030 -1.9568 -0.3626  1.1220
22683SOL     OW69489   6.673   4.558   4.718  0.0214  0.5268  0.4911
22683SOL    HW169490   6.626   4.482   4.752 -0.2017  0.3157 -0.2721
22683SOL    HW269491   6.750   4.565   4.775  0.5572 -0.8532 -0.0073
22684SOL     OW69492   4.000   1.866   9.489 -0.5176 -0.5499  0.3364
22684SOL    HW169493   3.925   1.927   9.493  0.1754  0.4020 -0.5453
22684SOL    HW269494   4.040   1.872   9.576  0.4191  1.4562 -0.1671
22685SOL     OW69495   2.730   3.736   6.715  0.4047 -0.3071  0.4401
22685SOL    HW169496   2.713   3.780   6.798 -1.5324  0.7137 -0.4235
22685SOL    HW269497   2.795   3.792   6.672 -0.3436  0.4902  0.3095
22686SOL     OW69498   1.835   0.846  11.707 -0.2755 -0.3113  0.7192
22686SOL    HW169499   1.925   0.875  11.692  0.0934 -1.6151  0.3105
22686SOL    HW269500   1.789   0.868  11.625  0.1317 -1.3311  0.2000
22687SOL     OW69501   4.823   5.084  11.554  0.1923  0.3473 -0.3486
22687SOL    HW169502   4.899   5.044  11.514 -0.0640  0.5014 -0.9981
22687SOL    HW269503   4.859   5.144  11.620  0.6118  0.0789 -0.3315
22688SOL     OW69504   4.364   2.602   3.336  0.0504 -0.0936  0.1138
22688SOL    HW169505   4.300   2.533   3.320 -0.7463  0.1877  1.8702
22688SOL    HW269506   4.319   2.683   3.312  0.7020 -0.0868 -1.1677
22689SOL     OW69507   6.211   6.548   9.913 -0.2357 -0.1437 -0.0004
22689SOL    HW169508   6.250   6.630   9.946  0.9057  0.3809 -2.4447
22689SOL    HW269509   6.286   6.489   9.901 -0.9570 -1.2959  0.9372
22690SOL     OW69510   7.787   5.698   8.521 -0.2234  0.2046  0.5024
22690SOL    HW169511   7.823   5.772   8.569  0.2510  0.3602 -0.0871
22690SOL    HW269512   7.737   5.737   8.449 -0.2423 -0.0402  0.3792
22691SOL     OW69513   6.126   2.211  11.188  0.0771 -0.4654 -0.5548
22691SOL    HW169514   6.082   2.148  11.245 -0.6518 -0.0801 -0.6865
22691SOL    HW269515   6.143   2.163  11.107 -0.3759 -0.5314 -0.6134
22692SOL     OW69516   0.793   1.990   7.255 -0.5720  0.2820  0.3733
22692SOL    HW169517   0.755   2.077   7.257 -0.9682  0.1051  1.0800
22692SOL    HW269518   0.796   1.963   7.347 -0.9911 -0.6801  0.1175
22693SOL     OW69519   7.160   1.270   1.120 -0.0551 -0.4509 -0.0666
22693SOL    HW169520   7.194   1.301   1.036  0.9312  0.1708  0.5384
22693SOL    HW269521   7.066   1.289   1.117  0.6203  3.9421  0.7472
22694SOL     OW69522   1.797   6.992   8.937  0.5239 -0.2568  0.2743
22694SOL    HW169523   1.835   7.078   8.956 -2.7099  1.4666 -0.4583
22694SOL    HW269524   1.787   6.990   8.842  0.5079 -1.4710  0.2782
22695SOL     OW69525   6.838   0.306   0.814 -0.1510  0.5150  0.0441
22695SOL    HW169526   6.910   0.327   0.873 -0.0933 -0.3348  0.2801
22695SOL    HW269527   6.762   0.349   0.853 -0.2742 -0.6933  1.1779
22696SOL     OW69528   2.071   2.146   1.428 -0.4476  0.0388  0.5702
22696SOL    HW169529   2.106   2.167   1.342 -0.4769 -2.6714 -0.1766
22696SOL    HW269530   2.143   2.163   1.489  1.2397 -2.4265 -0.5710
22697SOL     OW69531   6.558   7.069   4.503 -0.0032 -0.0929 -0.6540
22697SOL    HW169532   6.551   7.118   4.421  0.2667  0.5276 -0.3117
22697SOL    HW269533   6.645   7.089   4.536 -0.3378  0.1647  0.0965
22698SOL     OW69534   0.839   3.768   6.349 -0.0362 -0.3124 -0.7170
22698SOL    HW169535   0.784   3.727   6.417  0.0515 -0.8768 -0.9754
22698SOL    HW269536   0.831   3.862   6.364  0.6575 -0.4416  0.6197
22699SOL     OW69537   7.241   3.999   3.875 -0.1240  0.1401 -1.0609
22699SOL    HW169538   7.160   3.955   3.848 -0.1194 -0.1567 -0.5955
22699SOL    HW269539   7.309   3.935   3.857 -0.1955 -0.3689  0.3532
22700SOL     OW69540   5.968   3.900  12.218  0.0289  0.5698  0.3237
22700SOL    HW169541   5.983   3.914  12.124  1.3203  0.1427  0.4491
22700SOL    HW269542   5.957   3.805  12.226 -2.6046  0.7933  0.2964
22701SOL     OW69543   1.890   5.678   4.473  0.4586  0.6947 -0.0468
22701SOL    HW169544   1.924   5.667   4.384  0.1745  1.2240 -0.2192
22701SOL    HW269545   1.825   5.747   4.467 -0.3116  0.0328  0.3814
22702SOL     OW69546   0.675   3.016   0.719  0.4593  0.8642  0.4419
22702SOL    HW169547   0.627   2.940   0.751  0.7837  1.0575  1.4250
22702SOL    HW269548   0.614   3.060   0.660  0.8840 -1.1219 -1.6255
22703SOL     OW69549   0.252   7.339   8.978 -0.0960 -0.0992  0.2935
22703SOL    HW169550   0.189   7.345   8.906 -1.1915 -1.4014  1.1077
22703SOL    HW269551   0.280   7.248   8.978  1.5807  0.3934  0.1495
22704SOL     OW69552   5.562   5.475   9.444  0.1795 -0.0364 -0.2363
22704SOL    HW169553   5.600   5.456   9.359  0.3965  0.2185 -0.1963
22704SOL    HW269554   5.592   5.403   9.500  1.4689  0.7052  0.0528
22705SOL     OW69555   7.759   5.945   1.275 -0.2763 -0.0871  0.2738
22705SOL    HW169556   7.788   5.957   1.365  1.8182 -0.5256 -0.2666
22705SOL    HW269557   7.802   5.864   1.247 -0.0533  0.5709 -1.4071
22706SOL     OW69558   1.318   7.420  10.432  0.4543  0.2027  0.0266
22706SOL    HW169559   1.227   7.447  10.420  0.3644  0.6254  1.5197
22706SOL    HW269560   1.320   7.328  10.405 -0.3644  0.2521 -0.2129
22707SOL     OW69561   4.440   5.932  11.883 -0.3031 -0.1465  0.3048
22707SOL    HW169562   4.347   5.939  11.862  0.1187  0.0863 -1.6957
22707SOL    HW269563   4.444   5.945  11.977 -2.3962 -1.2718  0.6121
22708SOL     OW69564   7.059   5.300  10.230 -0.2300 -0.4380  0.1647
22708SOL    HW169565   7.083   5.251  10.308 -0.0419 -0.9228 -0.1898
22708SOL    HW269566   7.088   5.245  10.157 -1.1941 -0.4137 -0.2630
22709SOL     OW69567   4.675   5.544   5.833  0.3093 -0.0485  0.4187
22709SOL    HW169568   4.580   5.558   5.824  0.7976  3.4059 -0.3590
22709SOL    HW269569   4.692   5.559   5.926  0.1928 -0.1274  0.4540
22710SOL     OW69570   0.778   6.041  12.014 -0.1132  0.0226 -0.3309
22710SOL    HW169571   0.846   6.031  11.948  0.1210 -0.8520  0.0332
22710SOL    HW269572   0.825   6.062  12.095 -0.2111 -1.1330  0.0462
22711SOL     OW69573   1.624   7.742   3.433  0.0771 -0.7697 -0.3301
22711SOL    HW169574   1.647   7.656   3.468  1.6385 -0.6539 -0.9533
22711SOL    HW269575   1.708   7.778   3.401 -0.6779  0.6175 -0.8587
22712SOL     OW69576   2.117   2.261   5.960 -0.1355 -0.7140 -0.0998
22712SOL    HW169577   2.055   2.189   5.948 -1.2947  0.2648 -0.1835
22712SOL    HW269578   2.072   2.338   5.926  1.3940 -0.0711 -0.7711
22713SOL     OW69579   2.595   2.469  11.540  0.5805 -0.0013 -0.5484
22713SOL    HW169580   2.563   2.382  11.516 -0.0652  0.2940 -0.7816
22713SOL    HW269581   2.690   2.463  11.529  0.3460  0.2384 -3.7568
22714SOL     OW69582   1.099   5.669   0.981 -0.6049 -0.4971  0.3022
22714SOL    HW169583   1.008   5.652   0.958 -0.5250 -1.0495  0.3877
22714SOL    HW269584   1.113   5.760   0.957 -1.1059 -0.4862  0.0437
22715SOL     OW69585   3.549   1.091   9.258  0.1601 -0.1222  0.5393
22715SOL    HW169586   3.537   1.176   9.301  0.7898 -0.0144  0.5200
22715SOL    HW269587   3.644   1.085   9.245  0.0496 -0.5194 -0.0907
22716SOL     OW69588   0.632   2.606   2.091 -0.2725  0.1919 -0.1428
22716SOL    HW169589   0.700   2.591   2.026 -0.8668  1.3149 -1.0740
22716SOL    HW269590   0.599   2.519   2.112  0.0534 -0.2017 -1.2260
22717SOL     OW69591   1.876   6.526   7.654  0.0899 -0.1792 -0.1060
22717SOL    HW169592   1.930   6.581   7.711 -1.7382 -1.1192  2.7508
22717SOL    HW269593   1.817   6.588   7.610  0.0008  0.4142  0.8114
22718SOL     OW69594   6.955   1.736   2.207  0.6176  0.0499  0.0783
22718SOL    HW169595   6.869   1.749   2.167  1.2035 -0.4165 -1.4241
22718SOL    HW269596   7.015   1.785   2.151  1.8556 -2.8563 -1.3622
22719SOL     OW69597   7.871   5.588  12.068 -0.4706 -0.2786  0.0651
22719SOL    HW169598   7.903   5.528  12.135  1.9968 -0.6654 -1.3500
22719SOL    HW269599   7.863   5.672  12.114 -0.4249 -0.8737  1.2139
22720SOL     OW69600   1.557   7.307   0.715  0.4594  0.1913  0.3969
22720SOL    HW169601   1.557   7.363   0.638 -1.0864 -0.6384 -0.2413
22720SOL    HW269602   1.543   7.219   0.681  0.5853 -0.2986  1.5581
22721SOL     OW69603   2.067   2.863   5.701  0.5208  0.0855  0.0399
22721SOL    HW169604   2.152   2.831   5.732  2.5897  3.3867 -1.6739
22721SOL    HW269605   2.038   2.924   5.769  1.4719  1.8140 -1.0429
22722SOL     OW69606   3.656   5.361   6.685  0.6298  0.5777 -0.1900
22722SOL    HW169607   3.618   5.325   6.765 -0.1988  1.4736 -0.1568
22722SOL    HW269608   3.646   5.291   6.620  2.6027 -0.7009  0.7908
22723SOL     OW69609   1.240   1.334   8.547  0.2632 -0.5143 -0.0311
22723SOL    HW169610   1.149   1.362   8.537 -0.6395 -3.2323 -0.2604
22723SOL    HW269611   1.276   1.341   8.459 -0.2885 -1.1434 -0.3163
22724SOL     OW69612   3.066   6.657   3.665  0.4857 -0.0307  0.1354
22724SOL    HW169613   3.081   6.743   3.705  1.1288 -0.6028  1.1508
22724SOL    HW269614   2.972   6.641   3.679  0.5943  0.0106  0.9520
22725SOL     OW69615   1.767   1.324   8.822 -0.1437 -0.2063 -0.5449
22725SOL    HW169616   1.705   1.342   8.893  1.8400  2.1090  0.7487
22725SOL    HW269617   1.845   1.376   8.844  0.8668  0.0274 -4.0217
22726SOL     OW69618   3.627   1.712  11.002  0.0032  0.4318 -0.5591
22726SOL    HW169619   3.583   1.727  11.086 -1.1981  1.0686 -1.2737
22726SOL    HW269620   3.714   1.750  11.014 -0.6013  1.7347 -0.0229
22727SOL     OW69621   4.486   3.628   0.777  0.0662  0.0414 -0.0450
22727SOL    HW169622   4.508   3.675   0.857  0.5856  0.4775 -0.4396
22727SOL    HW269623   4.390   3.620   0.779 -0.0503  1.2349 -0.0347
22728SOL     OW69624   0.355   2.508   9.638  0.3726 -0.4831 -0.2608
22728SOL    HW169625   0.392   2.596   9.637 -0.2617 -0.2156 -0.8701
22728SOL    HW269626   0.268   2.518   9.678  0.2344 -0.7997 -0.4751
22729SOL     OW69627   1.247   7.450   7.585 -0.0633 -0.7609 -0.2376
22729SOL    HW169628   1.257   7.511   7.658  0.5014  0.1439 -1.0444
22729SOL    HW269629   1.152   7.445   7.572 -0.1717 -0.9433  0.5542
22730SOL     OW69630   3.871   0.532   1.620  0.1571 -0.0988  0.1362
22730SOL    HW169631   3.802   0.506   1.560 -0.2184 -0.1026  0.5634
22730SOL    HW269632   3.834   0.516   1.707  0.3877  0.6782  0.3804
22731SOL     OW69633   6.645   7.154   4.763 -0.0099 -0.0732 -0.0412
22731SOL    HW169634   6.574   7.098   4.734 -1.9926  0.7448  2.7442
22731SOL    HW269635   6.623   7.241   4.730 -0.3939  0.2009  0.9050
22732SOL     OW69636   5.462   1.563   9.626  0.1902  0.6414  0.2050
22732SOL    HW169637   5.526   1.593   9.691  0.7188 -0.1064  0.0476
22732SOL    HW269638   5.378   1.563   9.673  0.7265 -0.9103  1.2375
22733SOL     OW69639   2.655   2.161   7.108 -0.2796 -0.0444  0.5664
22733SOL    HW169640   2.660   2.173   7.203 -0.2717  1.4979  0.4032
22733SOL    HW269641   2.563   2.176   7.087 -0.1333  0.4318  0.2463
22734SOL     OW69642   5.964   7.000   2.726 -0.7304 -0.1483  0.1478
22734SOL    HW169643   5.920   7.040   2.801  2.1969 -1.8083  3.0237
22734SOL    HW269644   5.919   6.916   2.714 -0.7025 -0.2367  0.6326
22735SOL     OW69645   5.168   5.628   7.188 -0.0492 -0.3483 -0.3795
22735SOL    HW169646   5.142   5.645   7.098  0.3124  0.1324 -0.3985
22735SOL    HW269647   5.104   5.564   7.220 -2.1218  1.7804  0.0191
22736SOL     OW69648   6.994   1.847  11.446 -0.4427  0.0008  0.1011
22736SOL    HW169649   7.020   1.757  11.431 -1.2776 -0.4650  1.3425
22736SOL    HW269650   6.929   1.865  11.377 -0.7325 -0.5440  0.2321
22737SOL     OW69651   3.063   5.005   0.262 -0.1576 -0.0289  0.4112
22737SOL    HW169652   3.017   5.072   0.212 -0.7775 -0.8610 -0.1546
22737SOL    HW269653   3.126   5.054   0.316  0.7468  0.8804 -1.3730
22738SOL     OW69654   6.684   0.242   5.601  0.3079 -0.3580  0.5121
22738SOL    HW169655   6.770   0.232   5.560  0.6135 -1.0685  1.2800
22738SOL    HW269656   6.671   0.159   5.648 -0.7288 -0.1931  0.5373
22739SOL     OW69657   5.253   4.712   1.072  0.0511 -0.5630  0.0816
22739SOL    HW169658   5.337   4.690   1.111 -0.4704 -0.0820  1.5651
22739SOL    HW269659   5.193   4.717   1.146 -1.2380 -0.6617 -0.9145
22740SOL     OW69660   2.021   5.625   9.458  0.1942  0.0746  1.1693
22740SOL    HW169661   2.114   5.601   9.460  0.1999  0.0843  1.0136
22740SOL    HW269662   2.013   5.698   9.519  0.6556  1.4121 -0.3073
22741SOL     OW69663   5.892   6.095   0.165 -0.0719  0.3466 -0.3311
22741SOL    HW169664   5.821   6.073   0.105  0.6733 -0.0304 -1.1027
22741SOL    HW269665   5.895   6.022   0.227 -1.7287  1.3822  1.0480
22742SOL     OW69666   3.210   0.997   9.825 -0.7839  0.1573  0.1472
22742SOL    HW169667   3.146   1.066   9.842 -0.0739  0.3818  2.1054
22742SOL    HW269668   3.193   0.930   9.891 -0.3228 -0.7580 -0.6198
22743SOL     OW69669   4.371   7.234   1.303 -0.3555 -0.2247 -0.2201
22743SOL    HW169670   4.290   7.186   1.317 -0.6043 -0.1832 -1.3747
22743SOL    HW269671   4.438   7.167   1.292 -0.5085 -0.2926 -0.7520
22744SOL     OW69672   3.365   7.874   7.251 -0.2480 -0.0294 -0.1635
22744SOL    HW169673   3.351   7.803   7.188 -0.2306 -0.9928  0.8806
22744SOL    HW269674   3.437   7.844   7.305 -0.6610  0.5081  0.7019
22745SOL     OW69675   3.048   2.045   8.782 -0.2769 -0.6080 -0.2642
22745SOL    HW169676   3.016   2.135   8.787 -0.4292 -0.6868  0.1917
22745SOL    HW269677   3.067   2.032   8.689 -0.0453 -0.0333 -0.3006
22746SOL     OW69678   5.869   7.252  11.761 -0.5511  0.7739  0.1733
22746SOL    HW169679   5.851   7.158  11.762 -2.0890  0.9635  3.5536
22746SOL    HW269680   5.796   7.290  11.712 -0.5282  0.3226 -0.2202
22747SOL     OW69681   0.043   5.008  10.154  0.2781 -0.3234 -0.0686
22747SOL    HW169682  -0.047   5.036  10.141  0.3456 -0.1083 -0.0675
22747SOL    HW269683   0.038   4.912  10.155  0.2251 -0.3542 -1.4016
22748SOL     OW69684   5.130   0.008   1.004 -0.1085  0.1673  0.2323
22748SOL    HW169685   5.204   0.057   1.040 -0.5248  1.9300 -1.1952
22748SOL    HW269686   5.053   0.055   1.035 -0.5095  0.6299 -1.3755
22749SOL     OW69687   7.073   5.922   3.948 -0.0790  0.0810  0.6414
22749SOL    HW169688   6.983   5.891   3.934  0.3547 -1.3182  0.7661
22749SOL    HW269689   7.111   5.925   3.861 -0.0933  0.1556  0.6379
22750SOL     OW69690   0.048   7.105   5.497 -0.7219  0.0222  0.3479
22750SOL    HW169691   0.051   7.200   5.490  0.9580  0.0162  0.5736
22750SOL    HW269692   0.063   7.074   5.408  2.4782  0.0137  0.7697
22751SOL     OW69693   2.404   1.607   6.226  0.2887 -0.2815 -0.3588
22751SOL    HW169694   2.367   1.670   6.165 -2.1252  0.3435  1.5915
22751SOL    HW269695   2.473   1.655   6.272  0.0348  0.2090 -0.4870
22752SOL     OW69696   2.518   6.983   6.432 -0.4015 -0.1419 -0.7185
22752SOL    HW169697   2.502   6.895   6.465  1.3974 -0.2500 -0.0382
22752SOL    HW269698   2.596   6.974   6.376  1.0719  1.3262  0.9759
22753SOL     OW69699   7.078   4.783   9.680 -0.3420 -0.0928 -0.1815
22753SOL    HW169700   7.143   4.717   9.656 -0.4132 -0.3871  0.4022
22753SOL    HW269701   7.091   4.796   9.774 -0.9498  0.0434 -0.1107
22754SOL     OW69702   6.645   4.597   8.550  0.2370 -0.6825 -0.2125
22754SOL    HW169703   6.586   4.523   8.537 -0.1996 -0.3758  0.0026
22754SOL    HW269704   6.587   4.673   8.557  0.6225 -0.4556  0.5850
22755SOL     OW69705   4.824   3.800   4.106  0.2549 -0.1578  0.1736
22755SOL    HW169706   4.809   3.813   4.200 -1.0129 -0.0493 -0.0252
22755SOL    HW269707   4.736   3.795   4.068  0.7172 -1.8096 -0.7939
22756SOL     OW69708   2.909   4.027   9.497 -0.0265  0.0534 -0.1279
22756SOL    HW169709   2.910   4.048   9.591 -0.2677  2.1618 -0.5378
22756SOL    HW269710   3.001   4.024   9.472  0.0326 -0.1666  0.1156
22757SOL     OW69711   7.673   3.275   0.498 -0.8442 -0.0160 -0.1068
22757SOL    HW169712   7.728   3.308   0.427 -1.7393  1.2298 -0.2431
22757SOL    HW269713   7.720   3.197   0.530 -0.5689 -0.7992 -2.2478
22758SOL     OW69714   6.800   0.071   9.725  0.5987  0.8814  0.4201
22758SOL    HW169715   6.846   0.124   9.791  0.1902 -0.3574  1.7525
22758SOL    HW269716   6.708   0.090   9.740  0.5568  2.2683 -1.3035
22759SOL     OW69717   2.084   1.172   9.885  0.2425 -0.6166 -0.6187
22759SOL    HW169718   2.140   1.107   9.927  2.5960  0.0890 -2.4131
22759SOL    HW269719   2.093   1.250   9.940  0.9180 -0.5553 -0.8088
22760SOL     OW69720   4.412   5.860   2.606 -0.0279  0.2013 -0.8997
22760SOL    HW169721   4.340   5.839   2.546 -1.4447 -0.0911  0.8164
22760SOL    HW269722   4.402   5.953   2.624 -0.9117 -0.1282  0.4549
22761SOL     OW69723   5.999   6.315   5.430 -0.3576  0.2227 -0.8169
22761SOL    HW169724   5.964   6.399   5.401 -0.3392  0.7434  0.5921
22761SOL    HW269725   6.091   6.317   5.404 -0.2404  0.8545 -0.3872
22762SOL     OW69726   4.874   6.989  12.335  0.5925 -0.1427 -0.1116
22762SOL    HW169727   4.804   7.049  12.310 -1.2481 -0.9912  2.5746
22762SOL    HW269728   4.940   7.044  12.376  1.6563  0.6781 -2.7389
22763SOL     OW69729   2.164   6.528   2.920 -0.3071  0.2611  0.3830
22763SOL    HW169730   2.122   6.613   2.935 -0.9191 -0.0148  0.2941
22763SOL    HW269731   2.174   6.523   2.825 -0.8968 -0.0436  0.3280
22764SOL     OW69732   7.516   4.953   7.487 -0.1033 -0.1701 -0.1888
22764SOL    HW169733   7.427   4.948   7.521  0.2822  0.8793  1.0529
22764SOL    HW269734   7.506   4.983   7.397 -1.1409 -2.8089 -1.0385
22765SOL     OW69735   6.021   1.436   2.829  0.2709  0.2105  0.6523
22765SOL    HW169736   5.926   1.429   2.824  0.3365  0.0828 -2.8422
22765SOL    HW269737   6.043   1.505   2.766  2.5226 -0.4414  0.6462
22766SOL     OW69738   5.905   2.230   1.753 -0.2734 -0.0488  0.6042
22766SOL    HW169739   5.900   2.325   1.746  0.8434 -0.0067  0.0639
22766SOL    HW269740   5.848   2.198   1.684 -0.7113  0.2187  0.8343
22767SOL     OW69741   7.661   0.702   9.169 -0.2151 -0.7097 -0.4681
22767SOL    HW169742   7.644   0.707   9.263  1.0162 -1.1555 -0.1973
22767SOL    HW269743   7.704   0.785   9.148 -0.0619 -0.8049 -0.5336
22768SOL     OW69744   0.627   6.008   0.968  0.4196 -0.3387 -0.0635
22768SOL    HW169745   0.573   6.053   1.034  0.6757  0.1238 -0.1668
22768SOL    HW269746   0.565   5.951   0.922 -0.3860  1.5067 -1.3922
22769SOL     OW69747   1.763   3.563  12.269 -0.0652  0.2781 -0.1770
22769SOL    HW169748   1.685   3.548  12.322  0.1198  2.1361  0.6942
22769SOL    HW269749   1.734   3.620  12.198  0.4706  0.9803  0.1542
22770SOL     OW69750   0.576   7.337   6.011 -0.4586 -0.0158  0.0405
22770SOL    HW169751   0.599   7.283   6.087  0.8839  1.3697  0.6563
22770SOL    HW269752   0.633   7.414   6.017 -1.3488  0.8280 -1.5768
22771SOL     OW69753   6.627   7.001  11.383 -0.0664 -0.0390  0.4493
22771SOL    HW169754   6.688   7.020  11.454 -0.2006 -0.6877  0.7418
22771SOL    HW269755   6.554   6.956  11.426  0.0676 -0.8636 -0.1723
22772SOL     OW69756   2.068   1.724  11.697  0.6156 -0.5591 -0.0567
22772SOL    HW169757   2.131   1.779  11.745 -0.0476 -0.3412  0.5790
22772SOL    HW269758   2.121   1.682  11.629  1.6224 -1.0435  0.9870
22773SOL     OW69759   6.043   7.136   0.267 -0.5370 -0.3787  0.0284
22773SOL    HW169760   6.092   7.164   0.189 -1.7512  0.2320 -0.5468
22773SOL    HW269761   6.030   7.217   0.317  0.6351 -0.8412  1.1218
22774SOL     OW69762   7.239   0.030   5.851 -0.0125  0.3643 -0.1996
22774SOL    HW169763   7.313   0.062   5.902  0.5225  0.7446 -1.1973
22774SOL    HW269764   7.187   0.109   5.833  0.5270  0.4570 -1.4024
22775SOL     OW69765   3.272   1.754   1.248 -0.2217  0.0510 -0.0604
22775SOL    HW169766   3.192   1.748   1.300  0.9739  2.8280  2.3635
22775SOL    HW269767   3.335   1.700   1.295  0.0171 -0.0591 -0.5026
22776SOL     OW69768   0.368   5.300   3.564  0.3970  0.0854  0.1793
22776SOL    HW169769   0.336   5.365   3.501 -0.8269 -0.3120  0.3742
22776SOL    HW269770   0.336   5.331   3.649 -0.9293 -1.1769  0.1804
22777SOL     OW69771   5.707   6.539   0.379  0.4029  0.8217  0.3922
22777SOL    HW169772   5.741   6.608   0.321  0.7422  0.6946  0.4381
22777SOL    HW269773   5.762   6.544   0.457  1.7305 -0.7744 -0.3744
22778SOL     OW69774   4.319   2.351   4.550  0.2263 -0.5579 -0.2502
22778SOL    HW169775   4.245   2.406   4.577 -0.7435 -2.7775  1.9764
22778SOL    HW269776   4.296   2.323   4.461 -0.5086  0.5430 -0.4354
22779SOL     OW69777   5.570   5.890   8.825  0.2860  0.0943  0.4280
22779SOL    HW169778   5.526   5.811   8.794  1.5432  0.1607 -1.6722
22779SOL    HW269779   5.534   5.961   8.773  2.1672  0.2672 -0.7334
22780SOL     OW69780   7.421   6.843   3.174  0.6961  0.2816 -0.5725
22780SOL    HW169781   7.476   6.780   3.127 -1.0010 -0.6389 -1.4629
22780SOL    HW269782   7.458   6.847   3.262  2.8741  0.6536 -1.4384
22781SOL     OW69783   2.876   4.762   2.078 -0.6284  0.1734 -0.1610
22781SOL    HW169784   2.791   4.724   2.101  0.0846 -1.4291 -0.0355
22781SOL    HW269785   2.904   4.806   2.158 -0.5460 -0.8673  0.4124
22782SOL     OW69786   4.647   2.458   2.696 -0.2875 -0.4569 -0.1241
22782SOL    HW169787   4.692   2.440   2.613 -0.0489 -2.0269  0.3226
22782SOL    HW269788   4.713   2.444   2.763 -0.9253 -0.8775  0.4254
22783SOL     OW69789   4.054   4.661   3.811 -0.0050 -0.0504 -0.4250
22783SOL    HW169790   3.963   4.673   3.840  1.1546  1.6143  3.0966
22783SOL    HW269791   4.078   4.746   3.772  0.6121  0.2557  0.5868
22784SOL     OW69792   4.785   6.593   7.499 -0.7735 -0.6709 -0.0829
22784SOL    HW169793   4.871   6.606   7.459 -1.7067 -0.2102 -2.0497
22784SOL    HW269794   4.747   6.520   7.451 -2.4669  0.7630 -1.0297
22785SOL     OW69795   7.964   0.521   2.901  0.3237 -0.0800 -0.4880
22785SOL    HW169796   7.942   0.438   2.944  0.3092  0.1405 -0.0693
22785SOL    HW269797   7.963   0.500   2.807  3.2164 -1.2668 -0.3325
22786SOL     OW69798   6.326   7.455   3.647 -0.0879 -0.3553 -0.6041
22786SOL    HW169799   6.379   7.534   3.664 -0.4351 -0.1580 -0.4358
22786SOL    HW269800   6.391   7.385   3.637  0.1874 -0.2208  0.1461
22787SOL     OW69801   5.158   2.499   4.546 -0.2603  0.1202 -0.0796
22787SOL    HW169802   5.192   2.483   4.458  0.7252  1.5625  0.0111
22787SOL    HW269803   5.202   2.434   4.601 -2.4364 -2.2351 -0.8809
22788SOL     OW69804   0.243   7.881   4.840 -0.0328 -0.3056  0.4580
22788SOL    HW169805   0.301   7.952   4.812  1.2714 -2.1788 -1.9455
22788SOL    HW269806   0.296   7.829   4.901  0.2233 -1.0099 -0.3424
22789SOL     OW69807   5.116   2.060  10.326 -0.2364 -0.0529  0.2083
22789SOL    HW169808   5.047   2.126  10.328 -1.1556 -1.0059  0.3473
22789SOL    HW269809   5.079   1.984  10.370  0.6147 -0.8557 -0.4100
22790SOL     OW69810   3.355   2.230   7.853 -0.3314  0.1587 -0.0890
22790SOL    HW169811   3.432   2.174   7.848 -1.0370 -0.8336 -0.0112
22790SOL    HW269812   3.388   2.311   7.893  0.5151 -0.5216  0.6371
22791SOL     OW69813   0.289   4.505   8.740  0.3967 -0.4281 -0.6404
22791SOL    HW169814   0.199   4.532   8.756  0.4269  2.1247 -3.8018
22791SOL    HW269815   0.281   4.417   8.702 -0.5315 -0.9757  0.7188
22792SOL     OW69816   3.557   7.341   5.938  0.0302  0.3897  0.3475
22792SOL    HW169817   3.627   7.281   5.911  1.1880  0.9600  1.8919
22792SOL    HW269818   3.477   7.289   5.931  0.9151 -1.1276  0.9252
22793SOL     OW69819   7.787   0.894   1.449 -0.6714  0.5158  0.2153
22793SOL    HW169820   7.783   0.842   1.529  0.7306  2.4618  1.6316
22793SOL    HW269821   7.875   0.931   1.449 -1.2615  2.0208 -1.2809
22794SOL     OW69822   2.582   4.358   8.918  0.7222  0.0390  0.1030
22794SOL    HW169823   2.546   4.434   8.872 -1.3656 -0.4322  0.8488
22794SOL    HW269824   2.545   4.283   8.873  2.6940 -0.5755 -0.5626
22795SOL     OW69825   0.087   3.123   7.449  0.5339  0.1786  0.2982
22795SOL    HW169826   0.006   3.072   7.449 -0.3107  1.4579 -0.3511
22795SOL    HW269827   0.132   3.095   7.369  0.9197 -0.7816  0.8322
22796SOL     OW69828   1.597   5.236  12.079  0.0766 -0.0896 -0.8172
22796SOL    HW169829   1.651   5.171  12.036  0.5918 -0.3857  0.2387
22796SOL    HW269830   1.652   5.315  12.082 -0.7540  0.5912 -2.6015
22797SOL     OW69831   7.373   0.466  11.074  0.2039  0.3057 -0.8320
22797SOL    HW169832   7.333   0.553  11.079  0.4252  0.4921 -2.1023
22797SOL    HW269833   7.465   0.481  11.095 -0.0624  0.1007  0.6077
22798SOL     OW69834   2.648   5.074  10.446 -0.3053  0.6907 -0.2065
22798SOL    HW169835   2.558   5.084  10.477 -1.1459 -0.1948 -2.1622
22798SOL    HW269836   2.664   4.980  10.449  0.9738  0.9224  1.1235
22799SOL     OW69837   3.223   3.727  10.200  0.6256  0.0362 -0.2433
22799SOL    HW169838   3.278   3.687  10.133  0.4640  0.4947 -0.6518
22799SOL    HW269839   3.261   3.814  10.214 -0.1522  0.4687 -0.7361
22800SOL     OW69840   0.238   1.749   1.328 -0.5450 -0.4994 -0.3280
22800SOL    HW169841   0.231   1.707   1.414  0.0191  0.7421  0.3393
22800SOL    HW269842   0.286   1.685   1.275 -0.0980 -0.9043  0.5376
22801SOL     OW69843   6.958   5.783   8.881  0.1111 -0.1953 -0.3575
22801SOL    HW169844   6.952   5.777   8.786 -0.4523 -1.3455 -0.2575
22801SOL    HW269845   6.915   5.704   8.914  0.5155  0.0579  0.8513
22802SOL     OW69846   2.124   2.220   6.338  0.4372 -0.2964 -0.5829
22802SOL    HW169847   2.177   2.181   6.268  2.2365 -0.5912  0.8694
22802SOL    HW269848   2.052   2.157   6.351  1.9442 -1.9802  0.0558
22803SOL     OW69849   1.305   2.997   2.139  0.0383  0.1714  0.4367
22803SOL    HW169850   1.391   2.996   2.098 -0.6773 -1.2662 -1.1476
22803SOL    HW269851   1.267   3.081   2.114  0.5387  0.3268  0.1921
22804SOL     OW69852   0.781   7.435   3.399 -0.2647 -0.0646 -0.6787
22804SOL    HW169853   0.688   7.411   3.396 -0.4972  0.6464  0.4265
22804SOL    HW269854   0.803   7.435   3.492  1.5486 -2.7506 -0.9769
22805SOL     OW69855   0.402   3.918   4.001 -0.6574 -0.1527  0.1309
22805SOL    HW169856   0.362   4.004   4.010 -0.2749 -0.0259  0.6671
22805SOL    HW269857   0.481   3.933   3.948 -1.5890 -0.4942 -1.4194
22806SOL     OW69858   4.698   7.862   0.834  0.0914 -0.4009 -0.2697
22806SOL    HW169859   4.776   7.812   0.809  1.9291  0.6661  2.7425
22806SOL    HW269860   4.676   7.829   0.921 -2.1747  0.1682 -0.5695
22807SOL     OW69861   7.827   2.764   6.464  0.5015  0.0492 -0.0352
22807SOL    HW169862   7.742   2.734   6.495  0.1497  0.4048 -0.6431
22807SOL    HW269863   7.865   2.689   6.419  1.2456 -0.6502  1.6476
22808SOL     OW69864   7.137   5.173   4.676  0.0073 -0.4323  0.3795
22808SOL    HW169865   7.051   5.149   4.709  0.6997 -0.0610  2.5882
22808SOL    HW269866   7.124   5.257   4.632 -0.6900 -0.1951  1.0311
22809SOL     OW69867   4.319   6.095   0.306  0.0433  0.8759 -0.3879
22809SOL    HW169868   4.368   6.159   0.254 -0.8578  0.4991 -1.7439
22809SOL    HW269869   4.275   6.040   0.241  1.4108 -1.6579  0.6812
22810SOL     OW69870   4.704   7.375   6.732  0.4094  0.3038 -0.0644
22810SOL    HW169871   4.629   7.365   6.791 -0.5993 -3.9652 -1.6848
22810SOL    HW269872   4.665   7.396   6.647  1.2422 -0.0098 -0.5308
22811SOL     OW69873   2.186   5.259   0.181 -0.2095  0.4030  0.5626
22811SOL    HW169874   2.178   5.190   0.247  0.5842  0.3954  0.6590
22811SOL    HW269875   2.119   5.323   0.205 -2.1592 -1.1142 -0.5247
22812SOL     OW69876   5.546   0.057  10.059 -0.4298 -0.6126 -0.4574
22812SOL    HW169877   5.577   0.070  10.148 -0.1170 -1.2689 -0.4614
22812SOL    HW269878   5.476   0.121  10.048  1.1926  1.2440 -0.5858
22813SOL     OW69879   4.395   5.586   5.795  0.2184  0.1263 -0.1508
22813SOL    HW169880   4.365   5.648   5.728 -2.3642  0.4900  1.2200
22813SOL    HW269881   4.343   5.507   5.781  0.4689 -0.2069  0.7192
22814SOL     OW69882   7.320   5.761   2.418 -0.0085  0.2151  0.0180
22814SOL    HW169883   7.282   5.827   2.360 -0.3697 -0.3813 -0.4350
22814SOL    HW269884   7.272   5.769   2.500  1.2659  1.8394  0.6480
22815SOL     OW69885   4.535   5.312   5.356 -0.6455 -0.4998 -0.1715
22815SOL    HW169886   4.578   5.374   5.415 -0.2841 -0.8379 -0.0697
22815SOL    HW269887   4.552   5.226   5.395 -1.8186 -0.6085  0.1094
22816SOL     OW69888   1.978   5.683   0.403 -0.1818 -0.0697  0.1387
22816SOL    HW169889   1.920   5.732   0.345  0.0540  0.8470  0.6572
22816SOL    HW269890   1.954   5.712   0.491  0.1361 -0.7040  0.4410
22817SOL     OW69891   2.249   4.892   7.653  0.0578  0.6617  0.1765
22817SOL    HW169892   2.340   4.914   7.671  0.3852  0.4216 -1.1109
22817SOL    HW269893   2.249   4.797   7.641 -0.1824  0.7798 -0.8012
22818SOL     OW69894   3.866   6.235   5.728 -0.4792  0.2474 -0.1243
22818SOL    HW169895   3.876   6.149   5.686 -0.2690  1.4821 -2.7993
22818SOL    HW269896   3.774   6.238   5.756 -0.4014 -0.9463  0.3118
22819SOL     OW69897   2.369   3.031  12.260  0.3033 -0.0762  0.0900
22819SOL    HW169898   2.413   2.980  12.192  1.4701  0.6854  0.2472
22819SOL    HW269899   2.357   2.969  12.332 -0.4777 -0.7524 -0.5896
22820SOL     OW69900   6.301   4.257   3.915  0.0939 -0.4664 -0.1228
22820SOL    HW169901   6.289   4.164   3.933  2.3367 -1.2581 -2.1608
22820SOL    HW269902   6.246   4.274   3.838  2.5308 -1.1680 -2.1428
22821SOL     OW69903   7.665   1.017   3.704  0.4869  0.7007 -0.3776
22821SOL    HW169904   7.570   1.011   3.693  0.0990  1.1921  2.1440
22821SOL    HW269905   7.701   0.989   3.619 -1.8934  1.2417 -1.6462
22822SOL     OW69906   7.350   1.462   2.982 -0.0529  0.1385  0.3880
22822SOL    HW169907   7.439   1.480   3.013  0.0559  3.1255 -1.2753
22822SOL    HW269908   7.332   1.531   2.918 -2.9969 -1.3198 -0.5593
22823SOL     OW69909   7.534   2.980   2.589 -0.0046 -0.0176 -0.2429
22823SOL    HW169910   7.526   2.891   2.556 -2.5390  0.7648 -2.0232
22823SOL    HW269911   7.508   3.035   2.516 -1.4452  2.0399  1.6867
22824SOL     OW69912   3.473   3.986  10.545 -0.1355  0.0729  0.2312
22824SOL    HW169913   3.478   4.038  10.625  1.5255 -1.2023  1.0190
22824SOL    HW269914   3.409   3.918  10.565  0.2485 -0.2206  0.4689
22825SOL     OW69915   1.566   6.128   4.447 -0.1098 -0.2501 -0.0836
22825SOL    HW169916   1.524   6.141   4.532 -0.1037  0.5944 -0.2008
22825SOL    HW269917   1.633   6.196   4.443  0.5572 -0.9094 -0.3498
22826SOL     OW69918   1.502   6.353  11.207 -0.2815  0.2862 -0.0236
22826SOL    HW169919   1.526   6.375  11.297  3.1159 -0.2332 -0.6578
22826SOL    HW269920   1.498   6.437  11.162  1.8779  0.4072 -0.1186
22827SOL     OW69921   4.474   4.268   8.456 -0.8212 -0.1481  0.2029
22827SOL    HW169922   4.464   4.348   8.508 -1.4949  1.2522 -1.9887
22827SOL    HW269923   4.465   4.197   8.520 -0.5649  1.4892  2.1481
22828SOL     OW69924   6.851   4.763   8.988 -0.4923 -0.2861  0.4949
22828SOL    HW169925   6.875   4.726   8.903 -1.3164 -1.0401  0.5738
22828SOL    HW269926   6.898   4.847   8.992  0.0493 -0.5305 -0.4262
22829SOL     OW69927   2.620   0.641   6.364 -0.1726 -0.0330 -0.3923
22829SOL    HW169928   2.526   0.648   6.379 -0.2806  0.6449 -1.2832
22829SOL    HW269929   2.638   0.547   6.365 -0.8164 -0.1565  0.0148
22830SOL     OW69930   6.253   0.652   4.743  0.2276 -0.1710  0.3185
22830SOL    HW169931   6.278   0.611   4.825  0.3721  1.4097  1.1004
22830SOL    HW269932   6.313   0.614   4.678  0.7208 -0.7536  1.0948
22831SOL     OW69933   3.352   1.175   6.258 -0.0199 -0.0132 -0.0939
22831SOL    HW169934   3.325   1.140   6.173 -0.1389  0.5157 -0.2730
22831SOL    HW269935   3.445   1.193   6.248 -0.2902  1.2043 -0.5088
22832SOL     OW69936   5.087   7.100   7.162  0.1868 -0.0902  0.2386
22832SOL    HW169937   5.152   7.073   7.097  0.3447 -1.3830  0.9173
22832SOL    HW269938   5.137   7.113   7.242  0.0279  1.7369  0.0968
22833SOL     OW69939   7.225   2.607   4.658  0.0893  0.0211  0.5224
22833SOL    HW169940   7.165   2.547   4.704 -0.9821 -0.2278 -1.1052
22833SOL    HW269941   7.276   2.550   4.600 -0.0220  0.5302 -0.0864
22834SOL     OW69942   2.196   3.732   2.932  0.6949  0.3755  0.0412
22834SOL    HW169943   2.186   3.679   2.853 -0.0001 -0.9112  0.9480
22834SOL    HW269944   2.106   3.752   2.958  0.9250  3.3182 -1.0725
22835SOL     OW69945   5.182   1.667  10.029 -0.1491 -0.4801  0.5533
22835SOL    HW169946   5.167   1.574  10.014 -2.6335 -0.5594  2.8752
22835SOL    HW269947   5.232   1.671  10.110  1.3806  0.2191 -0.3854
22836SOL     OW69948   3.861   1.639   6.814 -0.1684  0.1522  0.1051
22836SOL    HW169949   3.825   1.723   6.842 -0.9732  0.4312 -1.6292
22836SOL    HW269950   3.810   1.616   6.736 -0.1560 -2.0854  0.6833
22837SOL     OW69951   7.134   4.270  10.934 -0.3923 -0.4528  0.1411
22837SOL    HW169952   7.183   4.350  10.920  0.6313 -0.8400  1.3657
22837SOL    HW269953   7.042   4.298  10.936 -0.1157  0.5311 -0.3904
22838SOL     OW69954   7.751   0.806   1.017  0.2199  0.0832  0.3865
22838SOL    HW169955   7.826   0.861   0.996 -1.2541  1.6134 -1.2160
22838SOL    HW269956   7.679   0.842   0.965 -1.3355 -2.1192  0.8459
22839SOL     OW69957   3.227   4.617   8.564  0.3947 -0.1846 -0.0046
22839SOL    HW169958   3.221   4.551   8.494  0.4275  0.4678 -0.6310
22839SOL    HW269959   3.252   4.567   8.642 -2.2676 -1.3598  0.1933
22840SOL     OW69960   6.134   1.841   2.434 -0.3078 -0.0749 -0.6506
22840SOL    HW169961   6.192   1.816   2.506 -1.9413 -2.4142 -0.0185
22840SOL    HW269962   6.111   1.932   2.452  1.6975  0.3217  0.0744
22841SOL     OW69963   0.421   4.719   0.617 -0.7581 -0.0560 -0.5699
22841SOL    HW169964   0.413   4.815   0.619 -1.5445 -0.1203 -0.4072
22841SOL    HW269965   0.430   4.694   0.708  1.0051 -0.0291 -0.7059
22842SOL     OW69966   4.821   3.514   0.427  0.0285 -0.2060 -0.0685
22842SOL    HW169967   4.813   3.497   0.333 -0.3329  1.1877 -0.3087
22842SOL    HW269968   4.739   3.557   0.450  0.4489  0.1744  0.7238
22843SOL     OW69969   5.456   5.358   0.475 -0.1910 -0.4834 -0.2843
22843SOL    HW169970   5.448   5.263   0.490  0.9892 -0.7177 -1.0251
22843SOL    HW269971   5.439   5.369   0.382  2.5409 -0.3793 -0.8398
22844SOL     OW69972   1.193   1.914   4.819  0.0500  0.7385 -0.1872
22844SOL    HW169973   1.184   2.008   4.804  0.9757  0.9629  0.5722
22844SOL    HW269974   1.268   1.889   4.766 -0.5609  0.2963 -0.8613
22845SOL     OW69975   3.679   1.983   6.656 -0.1736  0.1094 -0.1939
22845SOL    HW169976   3.749   2.006   6.594 -0.3704 -0.9341 -0.8156
22845SOL    HW269977   3.649   2.068   6.689  1.1649  0.6002 -0.1569
22846SOL     OW69978   0.303   1.161  11.615  0.1953 -0.0519  0.0650
22846SOL    HW169979   0.284   1.253  11.600  0.5472 -0.0819 -0.6038
22846SOL    HW269980   0.266   1.115  11.540 -0.8326 -0.5747  0.8661
22847SOL     OW69981   1.953   1.996   4.764 -0.4147 -0.2342  0.3441
22847SOL    HW169982   2.027   2.044   4.801 -0.5552 -0.1331  0.4982
22847SOL    HW269983   1.922   2.053   4.693  0.8603 -1.1713 -1.0176
22848SOL     OW69984   5.835   1.929   3.141  0.1236 -0.4735 -0.5062
22848SOL    HW169985   5.789   1.864   3.194  1.5483 -0.3992  0.9091
22848SOL    HW269986   5.871   1.879   3.067 -1.3653 -0.6941 -1.1146
22849SOL     OW69987   0.408   0.833   7.263  0.3991  0.0717  0.3627
22849SOL    HW169988   0.326   0.839   7.312 -1.3236  0.4830 -2.3542
22849SOL    HW269989   0.459   0.907   7.293 -1.1806  1.1295  0.5602
22850SOL     OW69990   2.425   7.770   9.784  0.0418  0.0547  0.0644
22850SOL    HW169991   2.404   7.678   9.800 -1.7221  0.6469  1.4974
22850SOL    HW269992   2.342   7.809   9.756 -0.0695  1.8317  2.6151
22851SOL     OW69993   1.213   4.738   3.160  0.1265 -0.1421 -0.2784
22851SOL    HW169994   1.136   4.731   3.216  0.1602  0.5301 -0.1359
22851SOL    HW269995   1.219   4.654   3.116 -2.1558  0.5743 -2.1851
22852SOL     OW69996   5.378   4.193   4.310 -0.0803 -0.0119 -0.6773
22852SOL    HW169997   5.345   4.223   4.395  0.4404  0.2340 -0.5624
22852SOL    HW269998   5.299   4.184   4.256 -0.4364 -0.3322 -0.1213
22853SOL     OW69999   2.604   3.577   3.870 -0.0358  0.8198  0.5512
22853SOL    HW170000   2.559   3.505   3.916 -0.8434  0.5566 -0.6001
22853SOL    HW270001   2.638   3.632   3.940 -0.3197 -0.1297  1.4650
22854SOL     OW70002   3.763   2.585   0.704  0.2017  0.1473  0.5511
22854SOL    HW170003   3.804   2.628   0.629 -1.6736  1.3970  0.1797
22854SOL    HW270004   3.792   2.494   0.697  2.0023  0.7290 -0.2767
22855SOL     OW70005   5.398   4.702   7.101 -0.7459  0.1648  0.5402
22855SOL    HW170006   5.465   4.691   7.033 -1.0558  0.3838  0.1956
22855SOL    HW270007   5.442   4.753   7.169 -0.6045  0.4562  0.2376
22856SOL     OW70008   1.808   3.185   2.673  0.1246  0.5035  0.1620
22856SOL    HW170009   1.759   3.149   2.747  1.3744 -0.6994  0.4442
22856SOL    HW270010   1.751   3.172   2.597 -0.5050  0.3074  0.6588
22857SOL     OW70011   1.373   5.461   0.036 -0.9376 -0.2501  0.6441
22857SOL    HW170012   1.304   5.446   0.101 -2.8953  1.3084 -0.9688
22857SOL    HW270013   1.400   5.551   0.051  1.3526 -1.0300  1.6964
22858SOL     OW70014   1.168   6.880   3.637  0.5628 -0.0079  0.0240
22858SOL    HW170015   1.187   6.936   3.712 -0.5909 -0.6274  0.8013
22858SOL    HW270016   1.219   6.919   3.565  0.2695  1.6754  0.6771
22859SOL     OW70017   3.221   1.931   8.047  0.0992 -0.3419  0.3325
22859SOL    HW170018   3.313   1.906   8.046  0.9955  2.3791  2.3142
22859SOL    HW270019   3.203   1.963   7.959  0.8511 -1.4250 -0.2359
22860SOL     OW70020   1.197   4.031   4.212  0.3745  0.0842  0.3835
22860SOL    HW170021   1.175   3.943   4.243 -0.2483 -0.7185 -2.1564
22860SOL    HW270022   1.124   4.086   4.242  0.6222 -0.2795  1.7263
22861SOL     OW70023   3.690   6.899   6.381 -0.1924 -0.7809 -0.0058
22861SOL    HW170024   3.655   6.952   6.453  0.5907 -0.1604 -0.0697
22861SOL    HW270025   3.641   6.817   6.386 -0.9191 -0.3242  0.5427
22862SOL     OW70026   5.580   7.088   7.097  0.0341 -0.4553 -0.1309
22862SOL    HW170027   5.593   7.149   7.024  3.4910  0.0964  0.7586
22862SOL    HW270028   5.587   7.142   7.175 -0.8530 -1.4442  0.6646
22863SOL     OW70029   3.617   7.835   3.550 -0.3436 -0.3698  0.3055
22863SOL    HW170030   3.563   7.771   3.503 -1.3717  0.5345  0.2263
22863SOL    HW270031   3.572   7.849   3.633  1.0699 -1.3956  1.2997
22864SOL     OW70032   7.815   2.782   8.405  0.1994  0.2740  0.6080
22864SOL    HW170033   7.910   2.789   8.407  0.1836  2.1419 -1.0229
22864SOL    HW270034   7.796   2.739   8.322 -0.3810 -0.5778  1.1695
22865SOL     OW70035   3.441   5.813   4.253  0.1929  0.2406  0.4831
22865SOL    HW170036   3.399   5.813   4.339  1.2481 -2.5427  1.0980
22865SOL    HW270037   3.373   5.779   4.194  0.3199 -0.4788  0.7429
22866SOL     OW70038   2.270   0.874   5.634 -0.4095 -0.4801  0.0858
22866SOL    HW170039   2.305   0.955   5.598  1.0822  0.2746  2.8775
22866SOL    HW270040   2.342   0.811   5.627  0.3877  0.0280  2.5666
22867SOL     OW70041   6.317   4.909   2.670 -0.1516 -0.4826 -0.2148
22867SOL    HW170042   6.390   4.873   2.720 -0.6262 -0.8170  0.2491
22867SOL    HW270043   6.358   4.970   2.608  0.3649  1.1915  1.6424
22868SOL     OW70044   7.975   7.222  11.443  0.2350 -0.4846  0.1510
22868SOL    HW170045   7.885   7.216  11.411 -0.3067  0.7980  1.3126
22868SOL    HW270046   7.986   7.315  11.466  1.8022 -0.6518  0.1870
22869SOL     OW70047   7.682   3.094   4.470  0.4193  0.4700 -0.0288
22869SOL    HW170048   7.719   3.092   4.381  2.2428  0.3696  0.6750
22869SOL    HW270049   7.684   3.003   4.498 -0.0098  0.5241  0.1709
22870SOL     OW70050   1.569   1.571   8.687  0.0356 -0.4894 -0.0323
22870SOL    HW170051   1.618   1.518   8.625 -0.1972 -0.6906 -0.0453
22870SOL    HW270052   1.636   1.620   8.735  0.1709  0.5495 -1.2349
22871SOL     OW70053   7.890   7.113   6.140 -0.2702  0.2229 -0.4797
22871SOL    HW170054   7.904   7.126   6.046 -0.6295 -2.9733 -1.0840
22871SOL    HW270055   7.974   7.077   6.172 -1.1258 -1.7998 -0.3391
22872SOL     OW70056   7.377   6.788   8.833  0.9330 -0.6245 -0.0546
22872SOL    HW170057   7.459   6.755   8.869  0.7607 -0.8824  0.1073
22872SOL    HW270058   7.375   6.880   8.858  0.5970 -0.9061  1.0100
22873SOL     OW70059   5.991   6.952   3.732  0.0880  0.6699 -0.5108
22873SOL    HW170060   6.007   6.945   3.826  1.1824  1.1761 -0.6363
22873SOL    HW270061   5.896   6.952   3.723 -0.0310  1.0063  0.6325
22874SOL     OW70062   1.242   7.434   4.360 -0.5608  0.4379 -0.2397
22874SOL    HW170063   1.245   7.343   4.332  1.0301  0.3500  0.1349
22874SOL    HW270064   1.309   7.478   4.306  1.1673  0.6649  1.9564
22875SOL     OW70065   6.079   3.971   7.113 -0.6681  0.4600  0.0903
22875SOL    HW170066   6.133   3.916   7.171 -1.0596 -1.2756 -1.1214
22875SOL    HW270067   6.142   4.026   7.067  0.0062 -0.8914 -0.6322
22876SOL     OW70068   1.276   5.577   7.083  0.1552  0.1042 -0.0969
22876SOL    HW170069   1.191   5.612   7.109 -0.0408 -0.5225  0.1056
22876SOL    HW270070   1.294   5.507   7.145  1.9887  1.8207  1.4787
22877SOL     OW70071   2.554   5.536   5.107 -0.5578 -0.0269 -0.3340
22877SOL    HW170072   2.500   5.589   5.166  1.5079  0.7570  0.9446
22877SOL    HW270073   2.548   5.447   5.143 -0.2283  0.2335  0.3790
22878SOL     OW70074   4.425   4.636   2.469  0.1721  0.8621 -0.1211
22878SOL    HW170075   4.343   4.666   2.509  0.0041  1.4368 -0.8909
22878SOL    HW270076   4.493   4.687   2.514  0.3878 -1.3699  2.3156
22879SOL     OW70077   1.423   2.066   5.254  0.2700  0.8747  0.0538
22879SOL    HW170078   1.492   2.000   5.250  0.8073  1.4510 -0.3363
22879SOL    HW270079   1.356   2.036   5.192 -0.4697 -0.3799  1.3986
22880SOL     OW70080   6.002   1.299   5.773  0.0389 -0.0574  0.0767
22880SOL    HW170081   5.934   1.297   5.841  0.7333 -0.7241  0.7729
22880SOL    HW270082   6.072   1.243   5.808  0.4226 -0.3840 -1.1772
22881SOL     OW70083   1.137   5.669   9.708 -0.1124  0.6118  0.9766
22881SOL    HW170084   1.176   5.747   9.669 -2.1983  1.2257 -0.0143
22881SOL    HW270085   1.140   5.684   9.802 -1.4623  2.4195  0.7701
22882SOL     OW70086   0.894   1.991   4.951  0.3874  0.2576 -0.1376
22882SOL    HW170087   0.934   1.906   4.971 -1.8359 -0.6202  0.9437
22882SOL    HW270088   0.801   1.971   4.938  0.0947  2.2876 -1.7810
22883SOL     OW70089   1.045   0.497   7.021 -0.0168  0.1905 -0.0720
22883SOL    HW170090   1.124   0.446   7.038 -1.0367 -1.4295  0.0471
22883SOL    HW270091   0.994   0.488   7.101 -0.4179  1.0438 -0.2266
22884SOL     OW70092   7.610   4.350  10.606 -0.0808 -0.1559  0.0185
22884SOL    HW170093   7.633   4.288  10.675  0.4799 -0.3013 -0.2912
22884SOL    HW270094   7.670   4.423  10.618  1.8648 -1.3088 -1.8793
22885SOL     OW70095   1.273   7.603   5.141  0.4085 -0.2484  0.6289
22885SOL    HW170096   1.337   7.652   5.193  1.2541 -0.6279 -0.0237
22885SOL    HW270097   1.259   7.523   5.191  1.1853 -0.5942  0.3144
22886SOL     OW70098   6.230   1.583  12.424  0.0193  0.5723 -0.6638
22886SOL    HW170099   6.242   1.674  12.453  1.6256 -0.4480  2.4078
22886SOL    HW270100   6.289   1.574  12.349 -0.5323  2.1617 -1.3270
22887SOL     OW70101   2.454   3.703   8.785  0.1292 -0.5726  0.4426
22887SOL    HW170102   2.381   3.657   8.825 -0.9231 -0.5142 -1.2955
22887SOL    HW270103   2.424   3.793   8.776 -0.0185 -0.7578 -1.2113
22888SOL     OW70104   5.818   2.549   0.482  0.1302 -0.9420 -0.3811
22888SOL    HW170105   5.764   2.470   0.474  2.2378 -2.5835  0.6647
22888SOL    HW270106   5.899   2.527   0.436  1.5903 -0.2330  1.7038
22889SOL     OW70107   6.333   5.473  12.264  0.0109 -0.3056  0.0217
22889SOL    HW170108   6.306   5.416  12.192 -0.5930 -0.4155  0.3337
22889SOL    HW270109   6.365   5.412  12.331  0.1335 -0.2282  0.0334
22890SOL     OW70110   3.181   4.020   3.750 -0.3962 -0.0172  0.1540
22890SOL    HW170111   3.109   4.049   3.694 -0.4532 -0.4925 -0.0210
22890SOL    HW270112   3.245   4.091   3.745 -0.7403  0.2941  0.1095
22891SOL     OW70113   0.477   5.671   9.836 -0.1113  0.2928  0.7293
22891SOL    HW170114   0.414   5.712   9.777  1.1021 -0.7819 -1.4802
22891SOL    HW270115   0.554   5.727   9.832  0.4165 -0.4352  0.2487
22892SOL     OW70116   3.778   3.424   4.769  0.3073 -0.3981  0.4310
22892SOL    HW170117   3.686   3.437   4.790 -0.6854 -0.6313 -3.0959
22892SOL    HW270118   3.822   3.501   4.804 -1.4104  0.2728  1.2071
22893SOL     OW70119   2.643   1.363   6.142  0.3031 -0.1574  0.2216
22893SOL    HW170120   2.682   1.366   6.229 -0.7865 -0.0249  0.7217
22893SOL    HW270121   2.558   1.321   6.155 -0.5794  1.3137 -0.4760
22894SOL     OW70122   6.934   3.300   0.877 -0.1535 -0.1012  0.3147
22894SOL    HW170123   6.854   3.299   0.929  0.3404  0.2437  1.0940
22894SOL    HW270124   6.918   3.364   0.808 -1.1079 -1.1237 -0.4638
22895SOL     OW70125   4.643   7.535   1.246 -0.6384 -0.4618  0.3362
22895SOL    HW170126   4.636   7.611   1.188  1.6962 -0.5726 -0.1997
22895SOL    HW270127   4.695   7.472   1.196 -0.6357 -1.5180  1.6278
22896SOL     OW70128   5.265   4.107   1.773  0.2694  0.1499 -0.1942
22896SOL    HW170129   5.172   4.091   1.757  0.1692  1.0624 -0.6023
22896SOL    HW270130   5.269   4.197   1.805  0.9980  0.0643 -0.0203
22897SOL     OW70131   2.205   2.289   9.649  0.0897 -0.1891  0.3589
22897SOL    HW170132   2.239   2.233   9.719  0.0280 -1.5699 -0.6739
22897SOL    HW270133   2.131   2.241   9.614 -2.5731  2.3920  2.0337
22898SOL     OW70134   6.745   5.390   0.346 -0.0127 -0.1298  0.2593
22898SOL    HW170135   6.800   5.365   0.420  1.4007  0.9841 -0.3707
22898SOL    HW270136   6.791   5.463   0.305 -1.7501  0.5485 -0.5812
22899SOL     OW70137   7.631   6.741   0.213  0.5138 -0.5181 -0.6517
22899SOL    HW170138   7.702   6.703   0.162  1.2452  1.1195 -0.9048
22899SOL    HW270139   7.559   6.750   0.151  0.0247 -2.2169 -0.3846
22900SOL     OW70140   0.439   2.445   9.948 -0.1126 -0.1083  0.1852
22900SOL    HW170141   0.528   2.427   9.980 -0.5719 -1.8457  0.5951
22900SOL    HW270142   0.439   2.539   9.930  1.6647  0.0194  0.6182
22901SOL     OW70143   3.136   7.651   1.983 -0.0136 -0.3316  0.1820
22901SOL    HW170144   3.079   7.707   2.035 -1.1199 -0.0108 -1.3131
22901SOL    HW270145   3.213   7.705   1.966  0.5547 -0.5868  1.7817
22902SOL     OW70146   7.875   7.611   6.047  0.0962  0.1086  0.0983
22902SOL    HW170147   7.955   7.601   6.099 -0.3336  0.3293  0.8288
22902SOL    HW270148   7.880   7.543   5.981  1.1282  0.4444 -0.1816
22903SOL     OW70149   4.161   2.240   3.849 -0.5487 -0.2296 -0.0448
22903SOL    HW170150   4.170   2.211   3.940  3.3989 -1.7515 -0.7077
22903SOL    HW270151   4.188   2.332   3.851 -2.2054  0.2787  0.5003
22904SOL     OW70152   4.995   7.249   0.139 -0.0415 -0.0645 -0.1757
22904SOL    HW170153   4.964   7.323   0.191  1.2506  0.3205  0.0759
22904SOL    HW270154   4.963   7.172   0.185  0.3201  0.2983  0.6962
22905SOL     OW70155   0.420   7.976  11.368  0.3423  0.0301  0.0683
22905SOL    HW170156   0.456   8.015  11.289 -1.5929  1.3942 -0.1946
22905SOL    HW270157   0.339   8.024  11.385 -1.0761 -2.4646  0.9533
22906SOL     OW70158   2.426   4.426  11.338  0.1158  0.2844  0.0458
22906SOL    HW170159   2.361   4.380  11.285  0.2125  1.7848 -1.4610
22906SOL    HW270160   2.408   4.397  11.428  0.5568 -3.1031 -0.7919
22907SOL     OW70161   1.477   7.231   4.900 -0.3056  0.5363  0.7195
22907SOL    HW170162   1.532   7.309   4.902 -1.4627  1.4219 -0.1618
22907SOL    HW270163   1.396   7.258   4.943 -0.4198 -0.4366  1.1347
22908SOL     OW70164   3.915   6.660   1.006  0.4789  0.1317  0.1637
22908SOL    HW170165   3.959   6.616   1.079 -0.2339 -1.2363 -0.1966
22908SOL    HW270166   3.841   6.705   1.047  0.6806  0.2442  0.4125
22909SOL     OW70167   1.729   1.772   9.604  0.3751  0.2370  0.5022
22909SOL    HW170168   1.809   1.774   9.657 -0.5704 -0.9204  2.0707
22909SOL    HW270169   1.701   1.681   9.606 -0.4994  0.4434 -0.8141
22910SOL     OW70170   3.397   5.272  10.439 -0.0576 -0.0118 -0.1938
22910SOL    HW170171   3.372   5.340  10.501  0.3123  0.1597 -0.2314
22910SOL    HW270172   3.400   5.192  10.491 -0.1576  0.0573 -0.0795
22911SOL     OW70173   0.202   5.236   9.306 -0.0079 -0.1961 -0.3070
22911SOL    HW170174   0.286   5.194   9.290 -1.2551 -2.3119 -1.7262
22911SOL    HW270175   0.150   5.171   9.354 -1.7835 -0.0950 -1.9735
22912SOL     OW70176   3.606   7.872   6.878 -0.2729  0.1093  0.5052
22912SOL    HW170177   3.558   7.954   6.866 -2.1362 -1.0627 -0.5726
22912SOL    HW270178   3.554   7.823   6.942  1.1967  0.0226  1.6745
22913SOL     OW70179   2.530   4.017   3.765 -0.2897 -0.5850 -0.0797
22913SOL    HW170180   2.598   4.001   3.699 -1.8872 -2.8862 -1.3384
22913SOL    HW270181   2.574   4.066   3.834  2.2118 -0.5944 -1.5526
22914SOL     OW70182   3.834   6.955   3.011  0.1689 -0.1841 -0.0563
22914SOL    HW170183   3.913   6.979   3.059 -0.9841  1.8475  0.9350
22914SOL    HW270184   3.763   6.999   3.057 -1.3475 -0.4493 -2.0041
22915SOL     OW70185   4.380   5.717   4.455  0.3427  0.1442 -0.2476
22915SOL    HW170186   4.377   5.664   4.535  0.4321 -0.1412 -0.4301
22915SOL    HW270187   4.352   5.804   4.482  0.8678  0.1788  0.1999
22916SOL     OW70188   2.211   2.356   7.111 -0.1692  0.5672 -0.0930
22916SOL    HW170189   2.271   2.422   7.146  1.5982 -1.1260  0.2337
22916SOL    HW270190   2.143   2.407   7.067  2.0650  2.6023 -1.4244
22917SOL     OW70191   1.902   4.078  11.283 -0.3462  0.0912 -0.2888
22917SOL    HW170192   1.838   4.053  11.350  0.9291 -0.5319  0.7504
22917SOL    HW270193   1.950   4.151  11.322 -0.3973  0.5430 -1.0489
22918SOL     OW70194   0.141   1.472  12.124  0.2441 -0.0535  0.7061
22918SOL    HW170195   0.101   1.548  12.167 -1.0365  0.4088 -1.1681
22918SOL    HW270196   0.232   1.497  12.111 -0.0174  0.9344  0.6591
22919SOL     OW70197   7.943   6.262   6.192  0.5113  0.5918 -0.2056
22919SOL    HW170198   7.993   6.265   6.110  0.2009  0.4631 -0.3996
22919SOL    HW270199   7.857   6.229   6.166 -0.6008  3.3412 -0.3458
22920SOL     OW70200   1.357   0.327   3.104 -0.2417 -0.2097 -0.0859
22920SOL    HW170201   1.405   0.246   3.089 -0.8567 -0.5876 -0.0572
22920SOL    HW270202   1.326   0.353   3.018  1.2255  0.8193 -0.3267
22921SOL     OW70203   1.495   7.070   0.571  0.1434 -0.3686  0.6626
22921SOL    HW170204   1.478   7.097   0.480  1.4813  2.7791  1.1937
22921SOL    HW270205   1.525   6.980   0.564  0.7665 -0.0560 -2.1054
22922SOL     OW70206   4.081   5.427   5.372  0.0589 -0.1712  0.1229
22922SOL    HW170207   4.041   5.506   5.336  1.6140 -0.0225 -1.3729
22922SOL    HW270208   4.054   5.427   5.464 -3.5004 -0.2055 -0.7604
22923SOL     OW70209   2.695   3.053  10.537 -0.0020  0.9482 -0.0624
22923SOL    HW170210   2.744   3.063  10.456  0.3634  0.5277  0.1056
22923SOL    HW270211   2.752   3.001  10.594 -0.1065  1.5302  0.5864
22924SOL     OW70212   0.964   4.815   9.080 -0.3591 -0.0097 -0.0588
22924SOL    HW170213   1.007   4.901   9.084 -0.5370  0.0246  2.4031
22924SOL    HW270214   1.027   4.759   9.035 -0.1623  1.3384 -1.5422
22925SOL     OW70215   1.617   1.286  10.500  0.5790  0.0375 -0.2345
22925SOL    HW170216   1.665   1.268  10.581 -0.1993 -0.6276  0.0916
22925SOL    HW270217   1.638   1.213  10.442  0.2359 -0.0833 -0.2112
22926SOL     OW70218   3.505   5.481   9.945  0.0331  0.7382  0.1552
22926SOL    HW170219   3.499   5.452  10.036  1.3954  1.4916  0.5151
22926SOL    HW270220   3.445   5.424   9.898 -0.9339  0.5169  1.5651
22927SOL     OW70221   3.049   1.960   4.743 -0.2361 -0.4466 -0.1123
22927SOL    HW170222   3.013   1.871   4.738  0.9350 -0.8821 -3.0638
22927SOL    HW270223   3.143   1.947   4.737  0.0301  0.9869  0.6452
22928SOL     OW70224   7.067   4.491   2.330 -0.3935 -0.0761  0.0465
22928SOL    HW170225   7.042   4.442   2.409 -1.5542  0.0432 -0.2325
22928SOL    HW270226   6.984   4.524   2.295  0.3270  1.8456  0.0444
22929SOL     OW70227   6.990   4.052   3.238  0.0563  0.4946 -0.4622
22929SOL    HW170228   6.944   4.120   3.188  0.4082  0.0964 -1.3645
22929SOL    HW270229   7.083   4.074   3.229  0.0616  1.5939  1.7941
22930SOL     OW70230   3.188   5.675   6.687 -0.2806  0.2655  0.2103
22930SOL    HW170231   3.157   5.766   6.681 -0.8977  0.0010 -0.9100
22930SOL    HW270232   3.155   5.634   6.608  0.7052 -0.7346  0.3000
22931SOL     OW70233   6.274   5.747   5.637 -0.4577  0.3792  0.2156
22931SOL    HW170234   6.364   5.744   5.669  0.2200 -1.8648 -1.6019
22931SOL    HW270235   6.222   5.769   5.714  1.5777  1.2192  1.4272
22932SOL     OW70236   3.978   4.159   6.643 -0.0093 -0.3396 -0.0347
22932SOL    HW170237   4.044   4.226   6.664  0.1969 -0.7118  0.5180
22932SOL    HW270238   3.969   4.164   6.547  0.1681  0.3203 -0.0257
22933SOL     OW70239   1.227   6.020   8.954 -0.4188  0.2015  0.4804
22933SOL    HW170240   1.177   5.962   8.897  0.7639 -0.5216  0.1229
22933SOL    HW270241   1.269   5.962   9.017 -0.0264  0.7771  0.7657
22934SOL     OW70242   4.399   0.830   8.862 -0.3759 -0.2465  0.2969
22934SOL    HW170243   4.309   0.798   8.858 -0.4303 -0.0323 -0.2167
22934SOL    HW270244   4.396   0.915   8.818 -0.0133 -0.0270  0.6882
22935SOL     OW70245   7.793   5.330   9.200 -0.4401  0.3482  0.0813
22935SOL    HW170246   7.737   5.289   9.266 -0.9537 -0.0988 -0.6100
22935SOL    HW270247   7.751   5.414   9.182  0.1837  0.8611  0.9375
22936SOL     OW70248   6.092   1.589   6.010  0.5705 -0.6801  0.1898
22936SOL    HW170249   6.184   1.573   5.990 -0.0505 -2.3313 -1.6957
22936SOL    HW270250   6.054   1.615   5.926 -0.7500 -0.3473  0.8698
22937SOL     OW70251   6.733   7.577   3.776  0.1417  0.0815  0.1932
22937SOL    HW170252   6.716   7.491   3.815 -0.1006 -0.5320 -1.1853
22937SOL    HW270253   6.793   7.559   3.704  1.0809  1.2651  0.6532
22938SOL     OW70254   1.995   4.404   4.283 -0.9152 -0.2693  0.1541
22938SOL    HW170255   2.089   4.397   4.264 -0.8757 -0.1004  0.2906
22938SOL    HW270256   1.954   4.403   4.197 -0.8677 -1.5020  0.1268
22939SOL     OW70257   3.102   5.601  11.412 -0.3830  0.1813  0.0662
22939SOL    HW170258   3.060   5.546  11.478  2.0080  0.3803  1.8551
22939SOL    HW270259   3.117   5.685  11.455 -0.2820  0.8839 -1.2862
22940SOL     OW70260   2.691   2.029   5.789 -0.8051  0.7562 -0.5066
22940SOL    HW170261   2.662   2.079   5.865  0.2154 -0.6777  0.8926
22940SOL    HW270262   2.721   1.945   5.825  1.3581  0.6700 -2.2740
22941SOL     OW70263   5.326   7.413  10.365  0.2879  0.0091  0.7743
22941SOL    HW170264   5.344   7.470  10.440  0.8944  1.6642 -0.5660
22941SOL    HW270265   5.412   7.380  10.338  0.4182  1.4308 -0.6819
22942SOL     OW70266   7.944   3.446  11.360 -0.0995  0.3263  0.0575
22942SOL    HW170267   7.882   3.374  11.364 -1.0550  1.0998 -0.3396
22942SOL    HW270268   8.016   3.413  11.306 -1.1617  0.1059 -1.2949
22943SOL     OW70269   0.886   3.554  11.531 -0.5908 -0.4571 -0.6865
22943SOL    HW170270   0.963   3.608  11.517 -0.0502 -0.6007  1.3015
22943SOL    HW270271   0.814   3.616  11.545  0.0171 -0.1724  1.5353
22944SOL     OW70272   7.284   2.198   5.060 -0.1173  0.3074  0.3470
22944SOL    HW170273   7.291   2.131   4.991 -1.1272  0.5727 -0.0346
22944SOL    HW270274   7.367   2.194   5.106  0.7900  0.4473 -1.1966
22945SOL     OW70275   5.677   4.833   0.324 -0.1703 -0.1581 -0.4814
22945SOL    HW170276   5.693   4.919   0.363 -0.5323 -0.0748 -0.5126
22945SOL    HW270277   5.603   4.847   0.265 -0.4780 -0.5701 -0.1986
22946SOL     OW70278   5.426   3.663   2.974  0.1741 -0.2803 -0.1248
22946SOL    HW170279   5.500   3.670   3.034  2.0114 -0.3166 -2.2795
22946SOL    HW270280   5.435   3.738   2.916 -0.2981 -1.3524 -1.6502
22947SOL     OW70281   7.468   1.095  11.880 -0.0990  0.2352  0.6164
22947SOL    HW170282   7.474   1.004  11.849  1.1818  0.0292  1.3731
22947SOL    HW270283   7.493   1.147  11.803 -2.5108  0.0876 -0.3422
22948SOL     OW70284   6.068   6.258   4.376  0.0172 -0.3733  0.3121
22948SOL    HW170285   6.021   6.185   4.335  2.1243 -1.6683  0.0427
22948SOL    HW270286   6.057   6.243   4.470  2.8061 -2.8789  0.3880
22949SOL     OW70287   0.973   0.713   1.913  0.5198 -0.3988  0.2069
22949SOL    HW170288   0.971   0.748   2.002  0.8154  1.0688 -0.3390
22949SOL    HW270289   0.902   0.759   1.868  2.0628  0.9050 -1.0103
22950SOL     OW70290   4.825   7.359   7.020  0.1422 -0.1085  0.4658
22950SOL    HW170291   4.896   7.345   7.082 -0.1153 -2.2885  0.3507
22950SOL    HW270292   4.746   7.330   7.067 -0.7344  2.3073  0.6124
22951SOL     OW70293   3.556   1.781   1.026  0.0608  0.0850 -0.4002
22951SOL    HW170294   3.566   1.758   0.933  0.3142  1.2641 -0.6755
22951SOL    HW270295   3.521   1.701   1.066  1.2108 -0.8925 -1.2548
22952SOL     OW70296   5.067   4.015   6.898  0.4440 -0.2815  0.2987
22952SOL    HW170297   5.068   4.007   6.994 -0.2155  0.2840  0.3583
22952SOL    HW270298   5.079   4.109   6.882  2.0387 -0.5463 -0.2250
22953SOL     OW70299   0.956   5.902   8.271 -0.2964 -0.2901 -0.2850
22953SOL    HW170300   1.012   5.827   8.291 -0.3101 -0.8483 -2.1611
22953SOL    HW270301   1.012   5.978   8.285  0.7143 -0.8095 -1.3871
22954SOL     OW70302   4.909   4.323   2.366 -0.4531 -0.1599  0.1845
22954SOL    HW170303   4.877   4.414   2.368  3.2843  1.3185  1.0064
22954SOL    HW270304   4.908   4.296   2.458  0.8165  0.0408  0.2725
22955SOL     OW70305   4.192   0.384   3.266  0.2381 -0.2994  0.1183
22955SOL    HW170306   4.233   0.304   3.298  1.0889 -0.5968 -1.5767
22955SOL    HW270307   4.264   0.445   3.252 -0.0567 -0.2159 -1.2259
22956SOL     OW70308   6.110   0.584  11.164  0.1261 -0.0974 -0.1302
22956SOL    HW170309   6.130   0.673  11.134  0.6391 -0.1357  0.0906
22956SOL    HW270310   6.194   0.538  11.159 -0.3292 -0.8508 -1.1956
22957SOL     OW70311   6.449   1.193   2.033  0.1490  0.0705  0.2198
22957SOL    HW170312   6.369   1.203   1.982  0.3826  0.6305 -0.0471
22957SOL    HW270313   6.483   1.107   2.008  0.9139  0.8363 -1.5319
22958SOL     OW70314   2.504   5.479   1.539 -0.0516 -0.3676 -0.1992
22958SOL    HW170315   2.542   5.413   1.596  1.9222  0.8956  0.0447
22958SOL    HW270316   2.427   5.510   1.586  1.4279  0.5193  1.7699
22959SOL     OW70317   0.382   3.516   6.799  0.5265 -0.1489 -0.0173
22959SOL    HW170318   0.349   3.604   6.817  1.1487  0.1190 -0.1478
22959SOL    HW270319   0.410   3.519   6.708  0.6984 -0.4340  0.0248
22960SOL     OW70320   7.616   1.851   7.347 -0.4509 -0.1196 -0.1244
22960SOL    HW170321   7.624   1.755   7.350 -0.9210 -0.1429  0.6556
22960SOL    HW270322   7.613   1.877   7.439  0.5909  0.7321 -0.3166
22961SOL     OW70323   0.796   6.605  12.364 -0.5978  0.1760 -0.2200
22961SOL    HW170324   0.804   6.667  12.291  0.3877 -0.9983 -1.1380
22961SOL    HW270325   0.752   6.529  12.327 -0.9325 -0.0705  0.6530
22962SOL     OW70326   0.136   7.630   5.469  0.3430 -0.0329 -0.0425
22962SOL    HW170327   0.219   7.652   5.512  0.7382 -0.9368 -0.3185
22962SOL    HW270328   0.124   7.537   5.486 -0.9126  0.2071  0.4723
22963SOL     OW70329   7.765   6.429  12.314 -0.4382 -0.1113 -0.2043
22963SOL    HW170330   7.704   6.417  12.386 -0.8742 -1.2377 -0.7378
22963SOL    HW270331   7.825   6.497  12.344 -1.2978  0.2457  0.7538
22964SOL     OW70332   5.062   4.593   3.666  0.4142 -0.2325 -0.2468
22964SOL    HW170333   5.028   4.682   3.670 -1.6853 -0.9875  0.0278
22964SOL    HW270334   5.127   4.595   3.596 -0.4778  1.2375 -1.0735
22965SOL     OW70335   7.839   4.335   8.132  0.1802 -0.8920  0.0569
22965SOL    HW170336   7.812   4.251   8.168 -2.5135 -0.4491 -0.7007
22965SOL    HW270337   7.802   4.400   8.191 -1.6141 -0.2284 -1.6715
22966SOL     OW70338   4.265   6.628   5.337 -0.3491  0.3654  0.0794
22966SOL    HW170339   4.265   6.707   5.392 -1.0839  0.8909 -0.6608
22966SOL    HW270340   4.230   6.559   5.394 -0.1136  0.6678  0.5966
22967SOL     OW70341   2.930   7.173   2.908  0.3344 -0.0160  0.1976
22967SOL    HW170342   2.937   7.198   3.000  1.5081  1.2860 -0.2160
22967SOL    HW270343   3.005   7.117   2.892  1.7661  2.0111 -0.6073
22968SOL     OW70344   6.054   5.512   7.222 -0.2543 -0.1251 -0.3090
22968SOL    HW170345   6.049   5.488   7.314 -0.5243 -1.8781 -0.7429
22968SOL    HW270346   6.126   5.458   7.187 -0.1731  0.4888 -1.1254
22969SOL     OW70347   7.283   0.053   5.550 -0.5564  0.5810  0.5354
22969SOL    HW170348   7.256   0.030   5.639 -0.4342  1.3778  0.7822
22969SOL    HW270349   7.376   0.074   5.558 -0.4310  0.1886  0.1298
22970SOL     OW70350   6.858   3.117   1.198  0.1131 -0.0377  0.2398
22970SOL    HW170351   6.913   3.079   1.130 -0.8464 -1.1810  0.0518
22970SOL    HW270352   6.919   3.153   1.262  1.0376  0.9903 -1.1720
22971SOL     OW70353   3.761   7.151   5.906 -0.1589 -0.1764  0.6208
22971SOL    HW170354   3.727   7.073   5.863  1.9987  0.2608 -2.1394
22971SOL    HW270355   3.848   7.163   5.869 -0.1168  3.1377  1.5111
22972SOL     OW70356   1.955   0.099   2.906  0.4775 -0.8301  0.4242
22972SOL    HW170357   1.890   0.030   2.924 -0.8006  0.0506 -0.6272
22972SOL    HW270358   1.902   0.176   2.884  1.8959  0.0938  0.1405
22973SOL     OW70359   6.167   6.400   1.382 -0.1604 -0.6955 -0.4946
22973SOL    HW170360   6.105   6.365   1.318 -2.4927 -2.3127  2.4180
22973SOL    HW270361   6.129   6.378   1.467  2.0221  2.5703  1.5426
22974SOL     OW70362   4.551   1.750   8.539 -0.4725 -0.0312 -0.0100
22974SOL    HW170363   4.581   1.841   8.537  0.1675 -0.2339 -0.0815
22974SOL    HW270364   4.496   1.745   8.617  0.7197  0.0572  0.8771
22975SOL     OW70365   0.015   4.009   0.051 -0.1500 -0.0764 -0.0956
22975SOL    HW170366  -0.043   4.021  -0.024 -1.0977 -0.2496  0.5858
22975SOL    HW270367  -0.013   3.926   0.090 -1.7374  1.4110  2.1871
22976SOL     OW70368   0.297   4.465   7.882 -0.2845  0.5388  0.2353
22976SOL    HW170369   0.254   4.380   7.873 -1.8724  1.1016  1.8782
22976SOL    HW270370   0.388   4.443   7.902 -0.3216 -0.7244 -0.8006
22977SOL     OW70371   3.039   6.358   7.728  0.4733  0.7093  0.4525
22977SOL    HW170372   2.996   6.283   7.769  0.3724  1.1802  1.2184
22977SOL    HW270373   3.113   6.377   7.785  1.6863 -0.0316 -0.7949
22978SOL     OW70374   3.095   7.247   9.179  0.3460  0.3415  0.6374
22978SOL    HW170375   3.138   7.285   9.103 -1.1898  0.8422 -0.0180
22978SOL    HW270376   3.003   7.274   9.171 -0.2201 -1.1285  1.6747
22979SOL     OW70377   6.384   2.938  12.437  0.2833 -0.5313  0.0679
22979SOL    HW170378   6.420   2.864  12.485  1.5376 -1.2610 -1.8700
22979SOL    HW270379   6.461   2.991  12.414 -0.3554  0.1833 -0.4817
22980SOL     OW70380   6.368   7.076   6.061 -0.0138 -0.0004  0.2748
22980SOL    HW170381   6.346   7.059   5.969  0.1167 -0.0694  0.2556
22980SOL    HW270382   6.360   6.992   6.104 -2.0022  0.3922  0.7346
22981SOL     OW70383   4.507   2.318   8.396 -0.1294 -0.1596 -0.4033
22981SOL    HW170384   4.488   2.286   8.485 -0.6573  1.1714 -0.0192
22981SOL    HW270385   4.462   2.402   8.390  1.8325  0.9107 -1.1003
22982SOL     OW70386   3.947   3.851   5.343  0.5239  0.2488 -0.2522
22982SOL    HW170387   3.948   3.788   5.272 -0.7126 -0.3256  0.2041
22982SOL    HW270388   3.995   3.809   5.414  0.2294  0.0606 -0.1595
22983SOL     OW70389   3.836   6.201   6.106  0.7052 -0.4063  0.2409
22983SOL    HW170390   3.852   6.286   6.147  0.5922 -0.0429 -0.4594
22983SOL    HW270391   3.922   6.158   6.105  1.3867  0.8854 -2.0479
22984SOL     OW70392   3.212   5.426   3.484  0.3124 -0.1975 -0.6960
22984SOL    HW170393   3.194   5.438   3.577  0.2740  0.1183 -0.7435
22984SOL    HW270394   3.268   5.348   3.480  1.0125  0.2791 -0.3440
22985SOL     OW70395   3.447   6.200   6.757 -0.4244  0.7610  0.3231
22985SOL    HW170396   3.481   6.117   6.723 -1.8136  0.5880 -0.7397
22985SOL    HW270397   3.524   6.256   6.766  0.8034 -1.0791  2.5312
22986SOL     OW70398   5.286   3.974   8.672  0.3528  0.0840 -0.0237
22986SOL    HW170399   5.347   3.914   8.629 -0.5811  0.0099 -1.2994
22986SOL    HW270400   5.252   4.029   8.601  0.4652  1.5035  0.9664
22987SOL     OW70401   5.807   6.007   9.222  0.4112 -0.5086 -0.6585
22987SOL    HW170402   5.731   6.062   9.204  0.3149 -0.2673  0.4111
22987SOL    HW270403   5.773   5.937   9.278  1.2464  0.4838  1.1795
22988SOL     OW70404   2.646   2.856  11.747 -0.3232  0.2174 -0.2554
22988SOL    HW170405   2.566   2.908  11.742  0.5409  1.5302 -1.3973
22988SOL    HW270406   2.676   2.850  11.656 -0.1918 -2.0460 -0.1357
22989SOL     OW70407   1.390   2.688   9.965  0.7202  0.0437 -0.1980
22989SOL    HW170408   1.317   2.638  10.000 -1.0761  2.1289 -0.7524
22989SOL    HW270409   1.379   2.683   9.870  1.4438  0.1771 -0.2946
22990SOL     OW70410   2.304   6.745  10.035  0.2247  0.2352 -1.0921
22990SOL    HW170411   2.347   6.720  10.117 -0.5313 -1.7760 -1.2458
22990SOL    HW270412   2.312   6.667   9.980 -0.5709  1.0449 -2.3895
22991SOL     OW70413   0.156   0.376  11.323 -0.1526 -0.8316 -0.2355
22991SOL    HW170414   0.248   0.360  11.346  0.0848  0.5912 -0.1108
22991SOL    HW270415   0.160   0.434  11.247 -0.9538 -0.8261 -0.2827
22992SOL     OW70416   0.816   1.560   8.254 -0.2185 -0.2297 -0.2137
22992SOL    HW170417   0.768   1.480   8.277  0.1563 -0.4503 -0.1780
22992SOL    HW270418   0.774   1.591   8.174 -0.0097 -0.7819 -0.5464
22993SOL     OW70419   3.859   4.520   6.679  0.4578  0.1046  0.2409
22993SOL    HW170420   3.822   4.608   6.692  1.4343  0.4759  0.5470
22993SOL    HW270421   3.904   4.526   6.594  0.6259 -0.0699  0.3183
22994SOL     OW70422   7.700   3.162   0.072 -0.3625 -0.8586 -0.2638
22994SOL    HW170423   7.789   3.164   0.107  0.1353 -0.9341 -1.4815
22994SOL    HW270424   7.692   3.243   0.021 -0.7680 -1.1674 -0.6994
22995SOL     OW70425   2.797   0.598   3.137 -0.0105  0.0193  0.2718
22995SOL    HW170426   2.881   0.583   3.094 -0.3162  1.5603 -0.9836
22995SOL    HW270427   2.820   0.622   3.227  0.8434 -0.3217  0.1535
22996SOL     OW70428   0.739   1.374   4.846 -0.0835  0.8420 -0.4276
22996SOL    HW170429   0.787   1.417   4.775  0.4522 -3.1447 -2.8022
22996SOL    HW270430   0.656   1.347   4.806  0.5674 -2.2262  0.0447
22997SOL     OW70431   4.642   2.350   5.528  0.0597  0.2420  0.0183
22997SOL    HW170432   4.720   2.301   5.501  1.0617 -0.0116  2.9763
22997SOL    HW270433   4.642   2.428   5.474  2.2147  0.0822 -0.2903
22998SOL     OW70434   6.215   3.280   9.674 -0.3246 -0.2363  0.0635
22998SOL    HW170435   6.168   3.237   9.745 -1.1749 -1.0176 -0.9460
22998SOL    HW270436   6.266   3.210   9.633 -1.4380 -0.2403 -1.3702
22999SOL     OW70437   1.510   0.035   8.736 -0.4196  0.3353 -0.5682
22999SOL    HW170438   1.528  -0.012   8.817  0.1263  0.9152 -0.3389
22999SOL    HW270439   1.426   0.078   8.751 -0.6917 -0.1807 -0.6042
23000SOL     OW70440   0.060   5.713   0.914  0.0440  0.3889  0.3434
23000SOL    HW170441   0.077   5.807   0.920  0.8406  0.2691  0.1083
23000SOL    HW270442   0.059   5.694   0.821 -0.5831  0.2347  0.3746
23001SOL     OW70443   6.728   0.510   7.142  0.2568 -0.0255 -0.6975
23001SOL    HW170444   6.694   0.430   7.181  0.6367  0.6867  1.2123
23001SOL    HW270445   6.657   0.574   7.153  0.6942  0.4113 -0.3687
23002SOL     OW70446   5.727   2.240   3.784  0.1620 -1.0941  0.1029
23002SOL    HW170447   5.701   2.187   3.709 -0.0553 -0.4308 -0.2942
23002SOL    HW270448   5.647   2.286   3.810  0.5529 -0.2497 -0.1405
23003SOL     OW70449   5.594   6.175   9.190  0.0467 -0.2788 -0.7428
23003SOL    HW170450   5.538   6.199   9.264 -0.6329  2.2317 -1.9499
23003SOL    HW270451   5.534   6.171   9.115  1.2042  0.9511 -1.7912
23004SOL     OW70452   3.471   4.679   0.902 -0.0514 -0.0347 -0.5959
23004SOL    HW170453   3.480   4.648   0.812 -1.9951  0.2040 -0.9138
23004SOL    HW270454   3.476   4.775   0.894  0.9854 -0.0475 -0.2645
23005SOL     OW70455   4.333   1.628   2.886  0.2039 -0.4148 -0.2215
23005SOL    HW170456   4.325   1.544   2.841  1.5381  0.2597 -1.7777
23005SOL    HW270457   4.426   1.636   2.906  0.3464  1.3295 -1.4140
23006SOL     OW70458   2.032   3.744   8.041 -0.4926  0.2560  0.7892
23006SOL    HW170459   2.097   3.775   7.979  0.4919 -0.7384  1.2866
23006SOL    HW270460   1.960   3.807   8.034  0.3895  1.2146  0.0200
23007SOL     OW70461   3.152   2.979   3.653  0.5791  0.2878  0.5105
23007SOL    HW170462   3.077   3.036   3.672  0.3479  0.2629 -0.3098
23007SOL    HW270463   3.166   2.930   3.734  1.3648  2.1599  1.5555
23008SOL     OW70464   0.808   1.495   1.518 -0.3324  0.5361  0.2687
23008SOL    HW170465   0.892   1.452   1.502 -0.0247 -0.7805  4.4955
23008SOL    HW270466   0.743   1.436   1.480  0.4321 -0.2022  0.0812
23009SOL     OW70467   7.429   0.242   8.543  0.4265 -0.2269 -0.1684
23009SOL    HW170468   7.378   0.179   8.494 -0.7724  1.4801 -1.2315
23009SOL    HW270469   7.455   0.196   8.623 -2.1945 -1.4253  0.0955
23010SOL     OW70470   2.736   1.354  11.596 -0.3811 -0.2601  0.2850
23010SOL    HW170471   2.750   1.372  11.689 -1.3889 -1.6385  0.7281
23010SOL    HW270472   2.656   1.402  11.574  0.8535  1.6176 -0.3999
23011SOL     OW70473   5.123   2.589   4.276  0.0138 -0.3177 -0.1205
23011SOL    HW170474   5.170   2.664   4.240  0.1236 -0.8968 -1.2240
23011SOL    HW270475   5.034   2.621   4.290 -0.1327 -0.1713 -1.2929
23012SOL     OW70476   2.675   3.649   9.489 -1.0309  0.3623  0.2389
23012SOL    HW170477   2.671   3.689   9.576 -0.3730  0.9445  0.0074
23012SOL    HW270478   2.752   3.688   9.448 -0.6260 -0.8142 -0.1622
23013SOL     OW70479   0.751   3.360   3.778 -0.2600 -0.3585  0.4561
23013SOL    HW170480   0.693   3.355   3.854  0.5263 -0.8743  1.0370
23013SOL    HW270481   0.838   3.344   3.813 -0.1354 -3.2191 -0.8948
23014SOL     OW70482   1.749   6.808  12.094  0.0400 -0.0477 -0.5382
23014SOL    HW170483   1.713   6.824  12.181  0.3184  0.1409 -0.4553
23014SOL    HW270484   1.808   6.882  12.079  1.8910 -1.3231  0.1395
23015SOL     OW70485   4.762   5.162   9.965 -0.1012  0.1745 -0.5179
23015SOL    HW170486   4.824   5.229   9.995 -0.3842 -1.1220  3.6779
23015SOL    HW270487   4.813   5.106   9.906  1.2769  1.8206 -0.9558
23016SOL     OW70488   5.588   2.551  10.658  0.2059 -0.1945  0.2589
23016SOL    HW170489   5.505   2.564  10.703  0.1043 -0.2186  0.0807
23016SOL    HW270490   5.563   2.518  10.572  0.2809  1.7816 -0.5702
23017SOL     OW70491   3.888   4.553  12.399  0.3502 -0.0134  0.2737
23017SOL    HW170492   3.967   4.592  12.361  0.3354 -1.8113 -1.7754
23017SOL    HW270493   3.920   4.473  12.442 -0.4874 -1.7819 -2.1964
23018SOL     OW70494   3.831   2.474  10.674 -0.8225 -0.3469  0.9806
23018SOL    HW170495   3.850   2.469  10.580  2.0858  2.1977  1.3084
23018SOL    HW270496   3.895   2.415  10.714 -0.7124  0.1098  1.4768
23019SOL     OW70497   7.797   6.827   3.420  0.6869 -0.1163  0.3459
23019SOL    HW170498   7.830   6.886   3.352  1.4997 -1.1119 -0.1473
23019SOL    HW270499   7.703   6.842   3.420  0.6336 -0.2696 -1.1813
23020SOL     OW70500   4.206   5.839   9.180  0.0654 -0.3484  0.2511
23020SOL    HW170501   4.150   5.860   9.105 -0.2633 -2.5251 -0.1815
23020SOL    HW270502   4.145   5.828   9.253  0.2887  0.6802  0.6123
23021SOL     OW70503   4.953   0.980   6.403  0.1929  0.1375  0.1968
23021SOL    HW170504   4.962   1.053   6.341 -1.4093 -0.2992 -0.5955
23021SOL    HW270505   4.861   0.954   6.396 -0.0382  0.0275  2.7342
23022SOL     OW70506   3.099   6.200   1.376  0.8531  0.7202 -0.5974
23022SOL    HW170507   3.026   6.262   1.368  0.8133  1.0205  1.5082
23022SOL    HW270508   3.089   6.142   1.301 -1.7993  0.5281 -0.1997
23023SOL     OW70509   4.966   0.776   1.009 -0.1919  0.2909 -0.2623
23023SOL    HW170510   4.950   0.793   1.102  1.1559  0.5070 -0.0476
23023SOL    HW270511   4.887   0.731   0.979 -0.2975 -0.5799  1.2096
23024SOL     OW70512   0.940   7.269   0.589  0.2763 -0.3037  0.0023
23024SOL    HW170513   0.923   7.363   0.584 -1.3175 -0.5762 -0.3235
23024SOL    HW270514   1.030   7.262   0.620  0.3177  1.3259  0.3234
23025SOL     OW70515   2.417   4.087   7.070  0.1527  0.5496 -0.4738
23025SOL    HW170516   2.500   4.112   7.030 -0.5427 -0.1081 -2.4533
23025SOL    HW270517   2.441   4.042   7.151  1.8372 -1.1421 -1.8390
23026SOL     OW70518   3.870   4.796   9.302  0.4692  0.3819 -0.1655
23026SOL    HW170519   3.905   4.845   9.377 -2.1355  1.1420  0.6602
23026SOL    HW270520   3.836   4.715   9.340 -3.3193  1.8934  0.1520
23027SOL     OW70521   1.134   0.515   2.150  0.2782 -0.3203  0.4934
23027SOL    HW170522   1.201   0.583   2.151  0.4152 -0.4513  0.2943
23027SOL    HW270523   1.052   0.562   2.163  0.3853 -0.1325  0.4951
23028SOL     OW70524   0.107   2.929   4.002  0.1456 -0.4160  0.3504
23028SOL    HW170525   0.194   2.890   4.004  0.2852 -0.1195  0.0214
23028SOL    HW270526   0.049   2.856   3.979  0.2838 -0.6483  0.7306
23029SOL     OW70527   0.082   1.137   7.849  0.0471 -0.1138  0.2474
23029SOL    HW170528   0.003   1.180   7.880 -0.7935 -0.8775 -0.7572
23029SOL    HW270529   0.154   1.194   7.877 -0.7432 -0.0743  2.3263
23030SOL     OW70530   3.959   7.228  10.590 -0.0748  0.2877  0.0449
23030SOL    HW170531   4.032   7.169  10.572 -1.0750 -1.0632  0.2766
23030SOL    HW270532   3.926   7.201  10.675 -0.6227  1.1324  0.1162
23031SOL     OW70533   4.495   0.567  10.065 -0.4187 -0.1558 -0.3686
23031SOL    HW170534   4.464   0.477  10.053 -0.3602 -0.3951  1.0991
23031SOL    HW270535   4.591   0.560  10.058 -0.3616 -0.3529  0.5088
23032SOL     OW70536   3.721   2.473   5.163  0.1075 -0.3159  0.8631
23032SOL    HW170537   3.745   2.566   5.161 -0.3518 -0.1892  1.0347
23032SOL    HW270538   3.665   2.461   5.087  0.4898 -0.5436  0.6197
23033SOL     OW70539   7.713   7.682   0.645  0.4043 -0.2037  0.5801
23033SOL    HW170540   7.796   7.636   0.654 -0.1256 -1.2390  0.3802
23033SOL    HW270541   7.667   7.635   0.576  0.1261  1.0941 -0.1513
23034SOL     OW70542   7.236   4.525   1.756 -0.4419 -0.0601  0.1126
23034SOL    HW170543   7.146   4.520   1.787 -0.6559 -0.1494 -0.5098
23034SOL    HW270544   7.230   4.567   1.670  0.2741  1.4604  0.7632
23035SOL     OW70545   2.645   6.853   0.001  0.5637 -0.3993  0.4162
23035SOL    HW170546   2.717   6.829  -0.057 -1.3715 -1.9731 -1.5001
23035SOL    HW270547   2.647   6.787   0.070  0.0555 -1.3501 -0.4679
23036SOL     OW70548   1.424   1.949  11.301  0.2304  0.3588  0.0494
23036SOL    HW170549   1.417   1.905  11.217  1.9333 -1.9880  1.0265
23036SOL    HW270550   1.516   1.977  11.307  0.9045 -1.9039  2.1059
23037SOL     OW70551   6.126   0.770   5.619 -0.1186  0.0021  0.1688
23037SOL    HW170552   6.214   0.736   5.605  0.5422  1.1097  1.4351
23037SOL    HW270553   6.070   0.715   5.564  1.4809 -0.0225 -1.5274
23038SOL     OW70554   0.960   4.352   4.728  0.4903 -0.5695 -0.2168
23038SOL    HW170555   0.998   4.413   4.664  0.3439  0.5917  0.7793
23038SOL    HW270556   1.010   4.365   4.807  0.9428 -2.3079 -0.1658
23039SOL     OW70557   6.565   2.701   3.354 -0.1713 -0.2185 -0.2066
23039SOL    HW170558   6.536   2.612   3.333 -1.0356  0.0375 -0.1167
23039SOL    HW270559   6.614   2.729   3.277  1.8699 -1.5095  0.5537
23040SOL     OW70560   2.482   1.963   3.345  0.2628  0.1484 -0.1807
23040SOL    HW170561   2.445   1.904   3.280  0.6143 -0.7598  0.4207
23040SOL    HW270562   2.476   1.914   3.427  0.0658  1.1675  0.4283
23041SOL     OW70563   5.335   1.562   7.814 -0.0653 -0.6003 -0.0169
23041SOL    HW170564   5.389   1.587   7.739 -0.4106  0.3778  0.0437
23041SOL    HW270565   5.256   1.524   7.774 -0.1059 -0.3857 -0.1439
23042SOL     OW70566   2.158   5.705   4.569  0.1801 -0.8799  0.3417
23042SOL    HW170567   2.191   5.617   4.548 -1.0140 -1.0941 -0.7795
23042SOL    HW270568   2.063   5.698   4.557  0.0588  0.5559  0.2927
23043SOL     OW70569   7.320   2.924   6.338 -0.0082  0.3577 -0.1662
23043SOL    HW170570   7.230   2.891   6.340  0.8380 -2.1255  0.4773
23043SOL    HW270571   7.357   2.888   6.257 -0.1240  3.0598 -1.5088
23044SOL     OW70572   6.290   1.857   0.944  0.1331 -0.3680 -0.1286
23044SOL    HW170573   6.341   1.937   0.955  0.0004 -0.1607 -0.9403
23044SOL    HW270574   6.355   1.789   0.926  0.2505 -0.4588  0.6243
23045SOL     OW70575   7.682   7.508   1.271 -0.0617  0.1839  0.8323
23045SOL    HW170576   7.730   7.553   1.341  1.0761  2.2777 -1.1458
23045SOL    HW270577   7.590   7.515   1.297  0.3228  0.9356  2.1114
23046SOL     OW70578   6.645   6.414  11.225 -0.0067  0.2709  0.7984
23046SOL    HW170579   6.598   6.446  11.302  0.6402  2.2146  0.4536
23046SOL    HW270580   6.734   6.448  11.236  0.6713 -1.2061  0.1999
23047SOL     OW70581   0.790   3.219   5.412  0.2409  0.0599 -0.5063
23047SOL    HW170582   0.855   3.150   5.400 -0.5639 -0.5124 -1.8881
23047SOL    HW270583   0.840   3.295   5.439  1.1376 -1.0796  1.2144
23048SOL     OW70584   2.958   2.564   8.283  0.3248  0.0701  0.1510
23048SOL    HW170585   3.000   2.624   8.345  0.7059 -0.3777  0.3278
23048SOL    HW270586   2.868   2.596   8.277  0.2291  0.0033  1.0791
23049SOL     OW70587   6.767   5.816   5.872  0.0892 -0.0337 -0.6628
23049SOL    HW170588   6.752   5.909   5.886 -0.3255 -0.0855 -0.7339
23049SOL    HW270589   6.860   5.809   5.851  0.4401  0.1974  0.7463
23050SOL     OW70590   6.282   3.364   7.890  0.2773  0.2665  0.0428
23050SOL    HW170591   6.378   3.361   7.897  0.2143 -0.5373  0.6743
23050SOL    HW270592   6.256   3.272   7.881 -0.5847  0.2630  2.1117
23051SOL     OW70593   3.473   7.370   1.149  0.1085  0.3715 -0.3801
23051SOL    HW170594   3.462   7.407   1.237 -0.6086 -2.1058  0.6574
23051SOL    HW270595   3.385   7.341   1.125  0.6991 -1.0921 -0.8837
23052SOL     OW70596   1.141   1.843   9.324 -0.5406 -0.3355  0.2305
23052SOL    HW170597   1.171   1.763   9.368  0.7334  1.1251  2.2547
23052SOL    HW270598   1.216   1.903   9.331 -1.9010  1.4867  0.0589
23053SOL     OW70599   6.377   1.304   3.973  0.1087 -0.1980  0.3191
23053SOL    HW170600   6.284   1.326   3.986 -0.1256 -1.5488  1.0340
23053SOL    HW270601   6.424   1.375   4.017 -0.5681  0.5109 -0.0635
23054SOL     OW70602   3.216   2.002  10.710  0.0927 -0.0077  0.5181
23054SOL    HW170603   3.262   1.933  10.757  0.1387 -0.9866 -0.8865
23054SOL    HW270604   3.140   1.958  10.671  1.9435 -0.2412 -3.3371
23055SOL     OW70605   6.343   3.055   1.639  0.0358 -0.0643  0.0612
23055SOL    HW170606   6.282   3.128   1.630  0.0415 -0.1480 -0.7626
23055SOL    HW270607   6.292   2.978   1.615  0.1701 -0.2694  0.4299
23056SOL     OW70608   7.202   6.176   1.858  0.3294 -0.2646  0.1280
23056SOL    HW170609   7.222   6.138   1.773  0.9028 -1.2658  0.6915
23056SOL    HW270610   7.157   6.106   1.906 -1.9147  0.9458 -0.0363
23057SOL     OW70611   2.993   2.245  11.833  0.0139 -0.3401 -0.3516
23057SOL    HW170612   3.026   2.164  11.794  1.7236  0.3705 -0.5010
23057SOL    HW270613   3.060   2.311  11.811 -0.8315  0.8934  0.6033
23058SOL     OW70614   0.486   3.042   5.066 -0.2623  1.3528 -0.6332
23058SOL    HW170615   0.395   3.027   5.091  0.2197  1.3323  1.2421
23058SOL    HW270616   0.492   3.137   5.056 -0.6099  1.3096 -1.2889
23059SOL     OW70617   4.826   2.450  12.217 -0.1390 -0.5523 -0.3566
23059SOL    HW170618   4.907   2.434  12.169  0.1084 -0.0853 -0.1007
23059SOL    HW270619   4.850   2.440  12.309 -0.7670 -2.1392 -0.3305
23060SOL     OW70620   7.675   3.336   6.584  0.3016 -0.3607 -0.0556
23060SOL    HW170621   7.581   3.344   6.601  0.0247 -0.7810 -1.2782
23060SOL    HW270622   7.707   3.279   6.653 -0.3474 -0.2623  0.3403
23061SOL     OW70623   6.996   3.482   1.224 -0.2234 -0.2835 -0.5077
23061SOL    HW170624   6.955   3.521   1.147 -0.1010 -0.5023 -0.6868
23061SOL    HW270625   7.027   3.556   1.276  2.7409 -0.1046 -2.2994
23062SOL     OW70626   7.149   4.296   6.715 -0.0499 -0.0742  0.6954
23062SOL    HW170627   7.116   4.379   6.682  0.0590  0.5301  2.0150
23062SOL    HW270628   7.243   4.298   6.695 -0.1885 -0.2467  0.0127
23063SOL     OW70629   0.173   0.242   9.788  0.6824  0.6256 -0.3353
23063SOL    HW170630   0.255   0.290   9.799  0.2724  1.3672 -0.4176
23063SOL    HW270631   0.181   0.166   9.845  1.3545  0.7840 -0.2123
23064SOL     OW70632   0.252   6.488   8.334 -0.2427  0.0518  0.6580
23064SOL    HW170633   0.198   6.427   8.385 -0.4657  1.7139  2.5102
23064SOL    HW270634   0.196   6.565   8.321 -0.2951 -0.3810 -2.4151
23065SOL     OW70635   5.582   1.784   9.099 -0.2650 -0.3394  0.5286
23065SOL    HW170636   5.535   1.790   9.183 -0.8941 -0.1801  0.1695
23065SOL    HW270637   5.617   1.872   9.086  1.2048 -0.7524  1.3905
23066SOL     OW70638   1.093   3.509   2.532  0.5701  0.2712  0.1476
23066SOL    HW170639   1.040   3.451   2.477 -2.3075  2.4976  0.3225
23066SOL    HW270640   1.052   3.503   2.619  1.6017  0.9111  0.6999
23067SOL     OW70641   0.405   1.785   0.145 -0.3284  0.1483 -0.0370
23067SOL    HW170642   0.412   1.743   0.060  1.3162 -0.3865  0.3297
23067SOL    HW270643   0.480   1.844   0.150 -1.0052  0.9887  0.6225
23068SOL     OW70644   0.910   6.523  11.662  0.4039  0.1153 -0.6779
23068SOL    HW170645   0.910   6.434  11.698  0.6808  1.3830  2.8668
23068SOL    HW270646   0.983   6.523  11.600  0.0275 -2.2307 -1.2457
23069SOL     OW70647   7.828   0.352   4.690  0.6104 -0.3218  0.1379
23069SOL    HW170648   7.860   0.354   4.780 -0.8729  0.5448  0.6778
23069SOL    HW270649   7.782   0.268   4.682  0.2620 -0.1542  0.3706
23070SOL     OW70650   0.689   3.558   9.734  0.2627  0.1272  0.3443
23070SOL    HW170651   0.737   3.485   9.694  1.0672 -0.2916  1.9860
23070SOL    HW270652   0.621   3.580   9.671 -0.8736 -2.9334  0.3580
23071SOL     OW70653   3.470   2.674  11.622  0.1124  0.5244 -0.2207
23071SOL    HW170654   3.564   2.690  11.630 -0.0827  1.7495 -0.1431
23071SOL    HW270655   3.452   2.678  11.528  0.2271 -0.3530 -0.2901
23072SOL     OW70656   5.747   0.177   6.634 -0.5665 -0.6840  0.1146
23072SOL    HW170657   5.720   0.240   6.567  0.2492 -0.7753 -0.3050
23072SOL    HW270658   5.664   0.141   6.666 -0.9699 -2.4217 -2.5450
23073SOL     OW70659   2.018   6.017   8.084 -0.3613 -0.1000  0.5423
23073SOL    HW170660   2.048   5.926   8.075  0.5699  0.2910 -0.6004
23073SOL    HW270661   1.958   6.015   8.158 -1.1863 -1.8561 -0.1239
23074SOL     OW70662   2.971   5.166   2.108 -0.3060 -0.4028  0.1853
23074SOL    HW170663   2.996   5.156   2.200  0.5057 -0.6740 -0.0500
23074SOL    HW270664   3.048   5.207   2.067 -0.4420 -0.7952 -0.4761
23075SOL     OW70665   0.605   7.094   8.429 -0.3917 -0.1191  0.1717
23075SOL    HW170666   0.544   7.028   8.395 -0.4628 -0.0292  0.1225
23075SOL    HW270667   0.687   7.046   8.443  0.2330  0.2294 -1.9468
23076SOL     OW70668   6.662   1.815  11.297  0.0109  0.4093  0.0342
23076SOL    HW170669   6.601   1.807  11.371 -0.6721  0.4307 -0.5204
23076SOL    HW270670   6.747   1.795  11.335 -0.6877 -2.8015  0.2333
23077SOL     OW70671   7.081   5.159   3.896  0.4353 -0.4712 -0.0815
23077SOL    HW170672   7.160   5.128   3.853  0.4139 -0.2116 -0.3133
23077SOL    HW270673   7.105   5.167   3.989  0.9499  0.4495 -0.2791
23078SOL     OW70674   1.337   5.360   8.375  0.1342 -0.3818 -0.3696
23078SOL    HW170675   1.255   5.322   8.344 -0.4841  1.7789 -1.6565
23078SOL    HW270676   1.315   5.398   8.460 -0.3106  0.4659 -0.8526
23079SOL     OW70677   2.779   3.102   0.633  0.7295  0.2067 -0.1729
23079SOL    HW170678   2.818   3.141   0.555 -2.1158  2.6912 -0.4926
23079SOL    HW270679   2.721   3.169   0.668 -2.5151 -2.7955  0.7855
23080SOL     OW70680   7.068   0.245   5.713  0.1965  0.5363  0.3939
23080SOL    HW170681   7.099   0.328   5.676 -1.0089  0.1946 -1.5472
23080SOL    HW270682   6.982   0.232   5.673  0.2308 -1.5059  0.8800
23081SOL     OW70683   0.151   6.045   1.901 -0.3124 -0.6356  0.0638
23081SOL    HW170684   0.197   6.126   1.880  0.2904 -0.4957  1.7535
23081SOL    HW270685   0.062   6.072   1.920 -0.5122 -0.5885 -0.9262
23082SOL     OW70686   2.708   3.890   1.611  0.8676  0.1468 -0.1083
23082SOL    HW170687   2.647   3.952   1.651  0.5383 -0.9085  1.0930
23082SOL    HW270688   2.795   3.923   1.635  0.7067  0.3910  0.1394
23083SOL     OW70689   7.488   5.371   0.874 -0.3319  0.2309  0.2323
23083SOL    HW170690   7.557   5.315   0.839 -0.4440  0.6338 -0.6675
23083SOL    HW270691   7.532   5.453   0.896 -0.7452  1.0411 -1.7674
23084SOL     OW70692   6.812   4.884   8.431 -0.4559 -0.4062 -0.0990
23084SOL    HW170693   6.778   4.807   8.387 -0.6426 -0.1287 -0.4520
23084SOL    HW270694   6.799   4.955   8.368  0.5829 -0.2535 -0.1715
23085SOL     OW70695   3.202   2.830   0.852 -0.3808  0.0150  0.1494
23085SOL    HW170696   3.160   2.915   0.837 -1.9081 -0.6789  0.2831
23085SOL    HW270697   3.167   2.774   0.783 -2.4579 -1.4981  2.2483
23086SOL     OW70698   7.457   3.439   2.184  0.4167 -0.4337  0.2338
23086SOL    HW170699   7.362   3.444   2.174  0.3682 -0.7423  0.4956
23086SOL    HW270700   7.480   3.520   2.229  0.3022 -0.2745  0.0105
23087SOL     OW70701   1.384   7.983   4.216  0.3218  0.1551  0.1450
23087SOL    HW170702   1.358   7.980   4.308  0.2251  0.2711  0.1218
23087SOL    HW270703   1.306   7.957   4.168  0.6308 -0.7780  0.1366
23088SOL     OW70704   7.438   0.111   0.637 -0.0998 -0.6353  0.7892
23088SOL    HW170705   7.471   0.187   0.685 -1.0036 -1.6773  3.2268
23088SOL    HW270706   7.345   0.128   0.627 -0.4106 -1.6178  1.8313
23089SOL     OW70707   5.490   7.978   2.838 -0.5965 -0.6564 -0.4103
23089SOL    HW170708   5.498   7.997   2.745  2.1328 -0.9343 -0.3388
23089SOL    HW270709   5.499   8.063   2.881 -1.4495 -0.5783 -0.3722
23090SOL     OW70710   0.299   4.454  11.379 -0.7834 -0.2636  0.2856
23090SOL    HW170711   0.341   4.382  11.333 -1.4772  0.5302 -1.7216
23090SOL    HW270712   0.371   4.504  11.417 -0.1814 -1.0341  0.1774
23091SOL     OW70713   6.585   7.447   4.666 -0.5218 -0.2947  0.0354
23091SOL    HW170714   6.506   7.479   4.710 -1.3580 -1.6200 -0.4462
23091SOL    HW270715   6.579   7.481   4.577 -0.0886  0.3425  0.2468
23092SOL     OW70716   3.190   3.635   5.894 -0.4611  0.5532  0.5265
23092SOL    HW170717   3.252   3.669   5.959  1.4475 -1.7273  0.0603
23092SOL    HW270718   3.239   3.636   5.812 -1.0928 -1.1328  0.0984
23093SOL     OW70719   5.681   4.186   1.814 -0.2366 -0.2879 -0.2941
23093SOL    HW170720   5.662   4.225   1.729 -0.2590  1.5536  0.5040
23093SOL    HW270721   5.777   4.190   1.821 -0.2271 -0.5449 -0.2841
23094SOL     OW70722   2.260   0.967   9.947 -0.2275 -1.0393  0.5884
23094SOL    HW170723   2.218   0.909  10.011 -2.6308 -0.2719 -0.1774
23094SOL    HW270724   2.346   0.928   9.933 -0.6072 -2.6923  2.3303
23095SOL     OW70725   1.784   1.524   2.762  0.5699 -0.0113  0.1525
23095SOL    HW170726   1.779   1.615   2.789  0.7671 -0.1176  0.5603
23095SOL    HW270727   1.742   1.475   2.833  0.7648 -0.2643  0.0962
23096SOL     OW70728   1.363   4.525   9.125  0.3670 -0.0929  0.2870
23096SOL    HW170729   1.285   4.556   9.078  1.0375  0.6213 -0.3617
23096SOL    HW270730   1.337   4.528   9.217 -1.2549 -2.2810 -0.0016
23097SOL     OW70731   2.656   5.724  11.350 -0.7403  0.1067  0.0657
23097SOL    HW170732   2.734   5.718  11.405 -1.8716  0.2700  1.7501
23097SOL    HW270733   2.633   5.633  11.330 -2.2052 -0.2119  2.7224
23098SOL     OW70734   4.630   5.986   4.896 -0.2761 -0.5851 -0.7823
23098SOL    HW170735   4.683   5.906   4.887 -0.4383 -0.5859 -1.8792
23098SOL    HW270736   4.624   6.000   4.990  4.3226  1.1485 -0.5163
23099SOL     OW70737   2.305   1.786   1.328  0.5375  0.2949 -0.3490
23099SOL    HW170738   2.253   1.717   1.369  0.0231  1.2215  0.5988
23099SOL    HW270739   2.370   1.810   1.394  0.0039  1.4800 -0.2346
23100SOL     OW70740   6.015   5.696  10.651 -0.0197  0.3535  0.3702
23100SOL    HW170741   6.077   5.658  10.714 -0.0304 -0.8395 -0.3039
23100SOL    HW270742   6.061   5.770  10.612 -0.0187  1.1226  1.7721
23101SOL     OW70743   4.527   4.067   0.230 -0.1879 -0.0448  0.1100
23101SOL    HW170744   4.486   4.129   0.170  0.6354  0.2940 -0.1212
23101SOL    HW270745   4.552   3.993   0.174  1.2348  0.5785 -0.1398
23102SOL     OW70746   4.316   0.638  10.249 -0.5271  0.3916  0.2284
23102SOL    HW170747   4.340   0.557  10.294 -2.0299 -0.5793 -0.6263
23102SOL    HW270748   4.372   0.640  10.172  0.5250  0.9460  0.9752
23103SOL     OW70749   1.158   2.089   8.623 -0.3704  0.0009  0.3613
23103SOL    HW170750   1.172   2.028   8.550  2.9522 -0.0186  0.8287
23103SOL    HW270751   1.169   2.176   8.584 -0.7703  0.0920  0.4537
23104SOL     OW70752   5.572   3.107   6.075 -0.2940  0.1742  0.1079
23104SOL    HW170753   5.654   3.118   6.124 -0.5936  0.6768  0.5071
23104SOL    HW270754   5.535   3.025   6.109 -0.8583  0.8824  1.2837
23105SOL     OW70755   6.784   5.125   6.249 -0.1100  0.3890  0.6544
23105SOL    HW170756   6.730   5.053   6.282  0.5676 -2.6861 -3.8768
23105SOL    HW270757   6.721   5.186   6.211 -0.6256 -0.4364  0.1329
23106SOL     OW70758   2.058   6.523   9.370  0.3279  0.3773  0.4437
23106SOL    HW170759   2.011   6.606   9.381  1.0676  0.9289 -0.4314
23106SOL    HW270760   2.051   6.504   9.277 -1.8214 -1.7768  0.9357
23107SOL     OW70761   2.278   2.068   9.791 -0.4247  0.2230  0.3293
23107SOL    HW170762   2.332   2.012   9.846  0.9634  2.4128  1.3603
23107SOL    HW270763   2.243   2.010   9.724  0.6280 -1.8906  1.5064
23108SOL     OW70764   2.912   1.920   8.108  0.2641  0.2388 -0.3104
23108SOL    HW170765   2.978   1.965   8.055  0.4714 -0.3861 -0.5795
23108SOL    HW270766   2.873   1.856   8.049  0.5547 -0.5205  0.3133
23109SOL     OW70767   6.925   2.705   9.885 -0.1215 -0.1024  0.3383
23109SOL    HW170768   6.970   2.699   9.970  0.6082 -1.9744 -0.1192
23109SOL    HW270769   6.842   2.659   9.899 -0.1351 -0.1428  0.1193
23110SOL     OW70770   6.566   6.280   7.494 -0.1125 -0.8248  0.3708
23110SOL    HW170771   6.511   6.275   7.572 -0.2048 -0.5036  0.3297
23110SOL    HW270772   6.530   6.213   7.435 -0.2540 -0.8395  0.4731
23111SOL     OW70773   7.590   2.005   5.816  0.2699  0.5570  0.3027
23111SOL    HW170774   7.587   1.921   5.770  0.8922 -0.8608  2.6429
23111SOL    HW270775   7.636   2.064   5.757  1.7273 -1.3646 -0.5795
23112SOL     OW70776   5.537   6.887   0.844  0.3233  0.3517  0.0565
23112SOL    HW170777   5.618   6.848   0.876  0.2830  1.0508  1.0474
23112SOL    HW270778   5.565   6.970   0.805  0.3105 -0.2672 -1.3252
23113SOL     OW70779   1.256   7.567   8.562 -0.2821  0.3186 -0.1388
23113SOL    HW170780   1.186   7.523   8.611 -1.4933 -0.7467 -2.5943
23113SOL    HW270781   1.299   7.497   8.514  0.9846  1.2645 -0.4302
23114SOL     OW70782   7.247   6.494   5.597 -0.3229  0.4885  0.1194
23114SOL    HW170783   7.336   6.528   5.598  0.3434 -1.0112  3.3750
23114SOL    HW270784   7.194   6.563   5.638 -0.1745  0.3429  0.5616
23115SOL     OW70785   6.866   6.096   4.509 -0.4903  0.2144  0.1291
23115SOL    HW170786   6.801   6.061   4.448 -0.0624 -0.9006  0.2825
23115SOL    HW270787   6.873   6.189   4.486 -0.8009 -0.0444 -1.0972
23116SOL     OW70788   4.730   3.094  10.018 -0.7658 -0.2240  0.5160
23116SOL    HW170789   4.655   3.150  10.038 -0.5009  0.1366  0.5169
23116SOL    HW270790   4.775   3.138   9.946 -1.2321 -1.0774 -0.3221
23117SOL     OW70791   2.765   3.970   8.752 -0.4271 -0.0017  0.0100
23117SOL    HW170792   2.823   3.895   8.765 -1.2807 -0.5471  0.8435
23117SOL    HW270793   2.790   4.032   8.820 -0.7096 -0.1711  0.2706
23118SOL     OW70794   6.501   1.649   1.597 -0.9736 -0.3699 -0.0544
23118SOL    HW170795   6.569   1.674   1.660  0.3500 -1.9282 -0.7819
23118SOL    HW270796   6.419   1.673   1.640 -0.1167 -1.0469  2.1262
23119SOL     OW70797   3.607   7.790   0.392 -0.1490  0.1530 -0.3007
23119SOL    HW170798   3.643   7.823   0.475 -0.5405 -1.2265  0.4371
23119SOL    HW270799   3.539   7.853   0.369 -0.9873 -0.1797  1.1594
23120SOL     OW70800   4.130   6.743   3.749 -0.0699  0.1633 -0.1294
23120SOL    HW170801   4.051   6.787   3.781 -1.5396 -2.6647  0.4966
23120SOL    HW270802   4.200   6.808   3.759 -2.1088  2.4331  0.2712
23121SOL     OW70803   4.305   1.380   2.755 -0.3398  0.2614  0.2837
23121SOL    HW170804   4.235   1.386   2.690  0.6630  0.7157 -0.8104
23121SOL    HW270805   4.327   1.286   2.757 -0.5892  0.2002  0.1992
23122SOL     OW70806   1.755   2.006   3.811  0.1592 -0.3039  0.4457
23122SOL    HW170807   1.815   2.064   3.764  1.5260 -0.5315  1.7874
23122SOL    HW270808   1.789   1.918   3.795 -0.2631 -0.4994  0.6148
23123SOL     OW70809   2.148   7.187  10.056 -0.0369  0.8394  0.0843
23123SOL    HW170810   2.122   7.105  10.098 -0.5903  1.0108  0.0811
23123SOL    HW270811   2.203   7.161   9.982  0.1897  0.4957  0.3738
23124SOL     OW70812   0.798   5.816   8.955 -0.3241 -0.2275  0.0557
23124SOL    HW170813   0.750   5.890   8.992 -1.0251 -1.3714  1.5520
23124SOL    HW270814   0.778   5.743   9.014  1.2197 -1.3541 -0.7564
23125SOL     OW70815   0.746   3.674   9.172  0.3625  0.8036 -0.4768
23125SOL    HW170816   0.702   3.755   9.145  1.0927  0.9795 -1.1804
23125SOL    HW270817   0.762   3.627   9.090  0.0462 -0.0032 -0.0794
23126SOL     OW70818   7.718   3.926   3.715  0.0812  0.1950  0.0261
23126SOL    HW170819   7.758   3.876   3.787 -1.3212 -0.4973  0.3544
23126SOL    HW270820   7.767   4.008   3.714  0.1409  0.2329  1.7961
23127SOL     OW70821   4.494   0.068   9.498 -0.1593  0.1018  0.4043
23127SOL    HW170822   4.549   0.125   9.552 -1.5106  1.3087  0.5517
23127SOL    HW270823   4.543  -0.014   9.492  2.4598  1.6326 -0.8766
23128SOL     OW70824   6.852   0.778  10.729  0.3934 -0.2169 -0.0228
23128SOL    HW170825   6.788   0.706  10.726 -0.3202  0.3924  0.1011
23128SOL    HW270826   6.936   0.735  10.740  0.0873 -1.0925 -0.9450
23129SOL     OW70827   1.604   6.830   1.147  0.3234  0.1078  0.2003
23129SOL    HW170828   1.669   6.875   1.093  1.0063  0.2773  1.1332
23129SOL    HW270829   1.552   6.901   1.185  1.4285  0.1539  1.7073
23130SOL     OW70830   6.440   6.640  11.704  0.2705  0.1612 -0.3435
23130SOL    HW170831   6.481   6.682  11.629 -0.7615  1.4044 -0.2516
23130SOL    HW270832   6.491   6.670  11.779 -0.4767  1.3441 -0.2746
23131SOL     OW70833   6.447   2.875   7.976  0.2748 -0.3290  0.6120
23131SOL    HW170834   6.370   2.867   8.032 -1.7184 -1.4227 -2.0722
23131SOL    HW270835   6.442   2.964   7.941  0.4108 -0.2919  0.6873
23132SOL     OW70836   6.782   2.168   1.538 -0.4052  0.0039 -0.0066
23132SOL    HW170837   6.823   2.090   1.500 -0.5759  0.1793 -0.5553
23132SOL    HW270838   6.827   2.241   1.496  0.3531  0.2270  1.1289
23133SOL     OW70839   2.674   7.157   6.667  0.8265 -0.1864  0.6795
23133SOL    HW170840   2.691   7.063   6.664  0.3882 -0.3062  1.5641
23133SOL    HW270841   2.619   7.174   6.591 -0.7053 -1.0079  1.5530
23134SOL     OW70842   5.898   4.410  10.322 -0.3625  0.8543  0.4154
23134SOL    HW170843   5.923   4.352  10.250  0.1165  2.0067 -0.3663
23134SOL    HW270844   5.811   4.442  10.299 -0.1797  1.2805  0.3027
23135SOL     OW70845   4.600   1.214  11.708 -0.5337  0.9597 -0.4998
23135SOL    HW170846   4.519   1.171  11.736 -0.8154  0.9113 -1.3808
23135SOL    HW270847   4.571   1.288  11.655 -0.0687  2.4466  1.1936
23136SOL     OW70848   1.738   1.207   3.483  0.0464 -0.1964  0.7761
23136SOL    HW170849   1.699   1.231   3.399  0.7031  1.1985  0.8397
23136SOL    HW270850   1.755   1.113   3.476 -2.2946 -0.6393  0.3569
23137SOL     OW70851   1.030   6.278   6.404  0.1134 -0.3943 -0.3939
23137SOL    HW170852   0.961   6.309   6.344  0.3817  0.1650 -0.4204
23137SOL    HW270853   1.010   6.186   6.416 -0.8083 -0.1842 -0.1856
23138SOL     OW70854   7.071   4.202   6.953  0.6652 -0.6556 -0.0134
23138SOL    HW170855   7.126   4.220   6.877 -0.5627  2.2381 -0.3370
23138SOL    HW270856   6.988   4.245   6.933 -0.2904 -1.3165  2.2284
23139SOL     OW70857   5.966   7.578   7.164  0.1922  0.3649  0.6818
23139SOL    HW170858   5.879   7.565   7.202  0.3912  2.0602  1.8406
23139SOL    HW270859   6.026   7.575   7.238  0.9314  0.8867  0.1236
23140SOL     OW70860   0.448   5.058  11.916  0.3535  0.3585 -0.4455
23140SOL    HW170861   0.473   5.104  11.836 -1.0581  0.2012 -1.0105
23140SOL    HW270862   0.519   5.075  11.977  0.7712  1.6855 -1.2682
23141SOL     OW70863   7.690   3.498   5.152 -1.0911 -0.0092 -0.6509
23141SOL    HW170864   7.677   3.518   5.245  1.0554  1.2604 -0.5567
23141SOL    HW270865   7.654   3.574   5.106  0.6497  0.8728 -0.6473
23142SOL     OW70866   4.311   7.477   2.321  0.2748 -0.7076 -0.3389
23142SOL    HW170867   4.289   7.429   2.401 -0.1957 -1.5272 -0.9552
23142SOL    HW270868   4.407   7.479   2.320  0.2830  0.2049  0.7679
23143SOL     OW70869   0.062   1.952   9.427 -0.3872 -0.1590  0.2275
23143SOL    HW170870   0.012   2.028   9.457 -2.5447 -1.7943  0.9567
23143SOL    HW270871   0.132   1.943   9.492  3.1949  4.0192 -2.4290
23144SOL     OW70872   6.464   5.380   8.883  0.3160 -0.3972 -0.6968
23144SOL    HW170873   6.490   5.341   8.966  1.6206  1.0064 -0.3987
23144SOL    HW270874   6.528   5.348   8.820  0.8107  0.4496 -0.6442
23145SOL     OW70875   3.976   3.594  11.966  0.1575 -0.1735  0.5288
23145SOL    HW170876   4.035   3.603  11.891  1.7559  2.1893  1.9456
23145SOL    HW270877   4.020   3.531  12.024  0.3229  0.1309  0.7335
23146SOL     OW70878   7.838   5.405   4.336  0.2780  0.0281 -0.2570
23146SOL    HW170879   7.777   5.382   4.407 -0.5868  2.0621 -0.2801
23146SOL    HW270880   7.912   5.446   4.380  0.3584  0.0884 -0.4472
23147SOL     OW70881   7.199   7.125   0.295 -0.6248  0.2721  0.0717
23147SOL    HW170882   7.255   7.052   0.270  0.9357  1.5206 -0.2973
23147SOL    HW270883   7.182   7.171   0.213  0.1921  1.4762  0.5399
23148SOL     OW70884   6.184   6.507  11.333 -0.3162 -0.5884 -0.5004
23148SOL    HW170885   6.130   6.572  11.288 -0.0389 -0.8608 -1.2377
23148SOL    HW270886   6.220   6.554  11.408 -2.2213 -0.6059  0.4995
23149SOL     OW70887   6.097   7.568   4.532  0.2103 -0.4871  0.3350
23149SOL    HW170888   6.011   7.600   4.560  0.2220 -0.2522  0.1040
23149SOL    HW270889   6.121   7.624   4.459  0.8484 -0.1442  0.8030
23150SOL     OW70890   4.623   2.479   7.467 -0.1168 -0.4536 -0.1115
23150SOL    HW170891   4.633   2.410   7.401  0.5616 -0.1342 -0.3506
23150SOL    HW270892   4.668   2.555   7.429 -1.8880  0.5076 -0.4105
23151SOL     OW70893   3.572   1.962  11.490  0.1393 -0.3509  0.3562
23151SOL    HW170894   3.550   2.052  11.511  1.3768  0.4402 -1.4593
23151SOL    HW270895   3.645   1.941  11.549 -0.8826 -0.5940  1.5703
23152SOL     OW70896   2.969   7.501   7.324 -0.4838 -0.3971 -0.4750
23152SOL    HW170897   3.029   7.445   7.277  0.5155 -1.1722  1.5881
23152SOL    HW270898   3.014   7.585   7.331 -0.6214 -0.2906 -0.8774
23153SOL     OW70899   0.187   3.575  11.943 -0.2850  0.2120  0.3663
23153SOL    HW170900   0.245   3.530  11.881 -0.5007  0.9791 -0.4244
23153SOL    HW270901   0.244   3.641  11.984 -0.3262  0.2255  0.4014
23154SOL     OW70902   4.941   7.858   3.784 -0.0183  0.2772 -0.2654
23154SOL    HW170903   5.032   7.847   3.754 -0.6000  0.7074 -2.3417
23154SOL    HW270904   4.930   7.790   3.850  2.0891  0.8213  0.7638
23155SOL     OW70905   4.584   6.623   5.909  0.1814  0.5287  0.3709
23155SOL    HW170906   4.650   6.693   5.910  0.8546 -0.0809  1.8169
23155SOL    HW270907   4.633   6.543   5.889 -0.3941  0.2883 -0.1231
23156SOL     OW70908   5.308   5.306   0.210 -0.1075  0.1862  0.2214
23156SOL    HW170909   5.268   5.365   0.146 -1.2069 -1.1228 -0.3521
23156SOL    HW270910   5.234   5.274   0.262  0.5323 -0.3172  0.8394
23157SOL     OW70911   3.445   7.693   0.656  0.2598 -0.3904 -0.4400
23157SOL    HW170912   3.499   7.772   0.662 -0.9948  0.4018  1.7666
23157SOL    HW270913   3.400   7.700   0.572  0.8513  0.7741 -0.6707
23158SOL     OW70914   0.609   4.226  10.604 -0.7696  0.0499  0.4488
23158SOL    HW170915   0.687   4.179  10.634 -1.8528 -1.3010  1.2509
23158SOL    HW270916   0.604   4.206  10.511  1.4494  2.5810 -0.3546
23159SOL     OW70917   5.302   1.231  10.244 -0.1412 -0.2432 -0.0334
23159SOL    HW170918   5.377   1.214  10.302  0.3323  0.0470 -0.5482
23159SOL    HW270919   5.269   1.316  10.272  0.3264  0.0743 -0.4345
23160SOL     OW70920   1.766   1.277   2.973  0.2873 -0.1155 -0.4895
23160SOL    HW170921   1.835   1.308   3.031  0.1210 -0.0241 -0.3404
23160SOL    HW270922   1.807   1.206   2.923  0.2177 -0.7037  0.2745
23161SOL     OW70923   1.911   6.605  10.821  0.1791  0.3339 -0.2800
23161SOL    HW170924   1.965   6.551  10.763  0.1281 -0.2007  0.1708
23161SOL    HW270925   1.838   6.549  10.845  0.1102  0.6116  0.1697
23162SOL     OW70926   5.128   0.640   0.212  0.0063 -0.0321 -0.8112
23162SOL    HW170927   5.206   0.684   0.176  0.2195  0.4411  0.1975
23162SOL    HW270928   5.076   0.618   0.135  0.0675  1.6777 -1.3956
23163SOL     OW70929   6.876   5.737  12.172 -0.4346 -0.3754  0.4360
23163SOL    HW170930   6.820   5.687  12.113  1.6115 -0.4878 -1.5104
23163SOL    HW270931   6.951   5.680  12.189  0.1696  0.6054  1.1806
23164SOL     OW70932   3.914   0.666   9.106  0.4984 -0.1058  0.5139
23164SOL    HW170933   3.909   0.679   9.200 -0.2643 -0.2870  0.5081
23164SOL    HW270934   3.896   0.752   9.068 -1.0496 -0.3976  0.5221
23165SOL     OW70935   5.727   7.059  12.459 -0.2831 -0.2365 -0.2264
23165SOL    HW170936   5.664   7.121  12.496  0.7493  0.5058  0.3667
23165SOL    HW270937   5.772   7.023  12.535 -0.0921 -0.8700 -0.6340
23166SOL     OW70938   3.859   1.555   1.718  0.3058 -0.0535  1.1254
23166SOL    HW170939   3.875   1.532   1.626  1.0099 -0.1619  1.2668
23166SOL    HW270940   3.863   1.471   1.764  1.0088  0.1147  1.3880
23167SOL     OW70941   7.776   4.266   4.837 -0.3891  0.8566 -0.1011
23167SOL    HW170942   7.800   4.263   4.744 -2.0196 -0.9080 -0.5298
23167SOL    HW270943   7.683   4.243   4.838 -0.8320  2.4622  1.8645
23168SOL     OW70944   0.754   6.431   8.670 -0.4221  0.2977 -0.5627
23168SOL    HW170945   0.701   6.498   8.627 -1.0536 -0.1474 -0.4825
23168SOL    HW270946   0.759   6.360   8.606 -0.0317  0.2815 -0.5168
23169SOL     OW70947   6.903   1.669   1.067  0.2330  0.1053  0.6874
23169SOL    HW170948   6.995   1.673   1.041  1.3966 -2.0579  3.8159
23169SOL    HW270949   6.890   1.748   1.119 -0.8820  2.2709 -2.5976
23170SOL     OW70950   6.386   2.869   9.257 -0.4750  0.4520  0.4074
23170SOL    HW170951   6.459   2.905   9.307  0.2169 -0.6833  0.2444
23170SOL    HW270952   6.311   2.923   9.282  0.0009  0.3907  2.0783
23171SOL     OW70953   2.919   3.387   0.057  0.0012 -0.1638  0.2609
23171SOL    HW170954   2.967   3.459   0.016 -2.0975  1.2887  0.1694
23171SOL    HW270955   2.883   3.337  -0.016 -0.1172 -0.1618  0.3165
23172SOL     OW70956   6.143   1.586   6.326 -0.3287  0.0999 -0.1062
23172SOL    HW170957   6.069   1.528   6.345 -1.3265  1.3066 -0.1892
23172SOL    HW270958   6.143   1.594   6.231 -1.3618  1.6677 -0.0044
23173SOL     OW70959   6.350   4.104   4.830 -0.1649 -0.4215  0.0470
23173SOL    HW170960   6.266   4.078   4.792  0.2467 -1.3434 -0.2778
23173SOL    HW270961   6.398   4.022   4.839  0.8008  0.1247 -0.0164
23174SOL     OW70962   0.796   1.297  11.509  0.5583 -0.1500 -0.0028
23174SOL    HW170963   0.869   1.353  11.483 -0.7201  1.7446  0.3164
23174SOL    HW270964   0.737   1.298  11.434 -0.0186 -0.1310  0.4433
23175SOL     OW70965   6.896   6.288   9.515 -0.0325 -0.2382  0.1014
23175SOL    HW170966   6.805   6.317   9.506  0.0603  0.2459  0.6498
23175SOL    HW270967   6.891   6.215   9.577 -0.1945 -1.0480 -0.8379
23176SOL     OW70968   6.819   0.669   0.399 -0.5251 -0.1768  1.1539
23176SOL    HW170969   6.731   0.692   0.429 -0.3707  1.3432  0.5560
23176SOL    HW270970   6.865   0.753   0.394 -0.5523 -0.1760 -3.2781
23177SOL     OW70971   7.421   6.184   8.976 -0.0067  0.4336  0.5333
23177SOL    HW170972   7.413   6.278   8.996  0.0650 -0.3039  5.0641
23177SOL    HW270973   7.511   6.163   8.998 -0.0499 -0.7618 -0.3673
23178SOL     OW70974   3.955   1.902   4.749  0.2589 -0.0342  0.0998
23178SOL    HW170975   4.023   1.876   4.687  0.8787 -1.5610  1.3380
23178SOL    HW270976   3.990   1.981   4.791  2.2897 -1.8398  2.0980
23179SOL     OW70977   4.647   3.486  12.028 -0.4059 -0.0604 -0.3907
23179SOL    HW170978   4.608   3.572  12.016 -2.0649 -0.8243 -0.8303
23179SOL    HW270979   4.706   3.476  11.954 -0.8730  0.3651 -0.8317
23180SOL     OW70980   7.351   5.410   8.531 -0.2710  0.6314  0.7483
23180SOL    HW170981   7.439   5.429   8.565 -0.2746  1.1298  0.4784
23180SOL    HW270982   7.360   5.415   8.436 -0.2267 -0.9068  0.6356
23181SOL     OW70983   2.837   6.346   0.280  0.0297  0.2407 -0.1010
23181SOL    HW170984   2.785   6.418   0.317 -0.9825 -0.2392 -0.5646
23181SOL    HW270985   2.777   6.300   0.222  1.4373  0.6944 -2.0218
23182SOL     OW70986   2.227   1.797   8.394 -0.2400  0.1546 -0.0700
23182SOL    HW170987   2.190   1.779   8.308  0.6859  2.3999 -1.0187
23182SOL    HW270988   2.204   1.889   8.411  0.1319 -0.0650  1.8130
23183SOL     OW70989   3.413   5.975  11.435  0.0199  0.4938  0.1654
23183SOL    HW170990   3.428   5.988  11.529  1.5684  0.1820 -0.0094
23183SOL    HW270991   3.331   6.020  11.417 -0.7773 -0.2361  1.8396
23184SOL     OW70992   1.526   0.487   1.090  0.2343 -0.5519  0.2385
23184SOL    HW170993   1.610   0.456   1.126 -0.3235 -1.7481  0.5438
23184SOL    HW270994   1.537   0.479   0.995  0.0723 -1.8289  0.3084
23185SOL     OW70995   4.855   0.646   5.407 -0.2492 -0.1440  0.1982
23185SOL    HW170996   4.910   0.642   5.329  0.2225  1.7585  0.3962
23185SOL    HW270997   4.794   0.572   5.397  0.4854 -0.5679 -1.4233
23186SOL     OW70998   2.428   4.793   2.702  0.1482  0.4268  0.1051
23186SOL    HW170999   2.361   4.781   2.634 -1.4158 -2.0117  1.9031
23186SOL    HW271000   2.384   4.843   2.771  0.3913 -0.5359  0.9818
23187SOL     OW71001   4.377   1.691   4.754 -0.5355  0.0550  0.5732
23187SOL    HW171002   4.318   1.692   4.830  1.3428  0.3567  2.0946
23187SOL    HW271003   4.396   1.783   4.737  1.4496 -0.0821  1.7530
23188SOL     OW71004   5.203   3.606   0.251 -0.0889  0.3867 -0.0312
23188SOL    HW171005   5.112   3.574   0.250 -0.1314  0.4659  0.5470
23188SOL    HW271006   5.203   3.682   0.193 -0.0539 -0.4855 -1.2071
23189SOL     OW71007   7.442   5.393   4.596 -0.0475  0.8398  0.0641
23189SOL    HW171008   7.397   5.470   4.631 -1.8113 -0.0521 -0.1083
23189SOL    HW271009   7.535   5.413   4.605 -0.4398  3.2566 -0.5792
23190SOL     OW71010   4.044   7.584   9.714 -0.3604  0.4847  0.2703
23190SOL    HW171011   3.956   7.561   9.744  0.4587 -3.6618  0.1490
23190SOL    HW271012   4.102   7.543   9.778  1.4488  0.8953 -1.0382
23191SOL     OW71013   1.993   1.735   4.425 -0.4899  0.6109  0.6100
23191SOL    HW171014   1.937   1.663   4.452  0.2000 -1.5552 -3.1181
23191SOL    HW271015   2.051   1.750   4.500 -0.0471 -3.3827  1.2700
23192SOL     OW71016   0.641   4.395  12.254 -0.4548 -0.2804  0.1373
23192SOL    HW171017   0.630   4.442  12.337  1.3870 -0.0084  0.2802
23192SOL    HW271018   0.689   4.315  12.278 -0.3039 -0.4187 -0.6011
23193SOL     OW71019   0.418   0.442  10.314 -0.1756  0.1729  0.1930
23193SOL    HW171020   0.492   0.496  10.340  0.2287 -0.6659  0.8585
23193SOL    HW271021   0.368   0.431  10.395 -0.8320  0.4281 -0.1719
23194SOL     OW71022   5.495   3.555   0.877  0.3700 -0.4298 -0.2762
23194SOL    HW171023   5.463   3.506   0.953 -1.6739 -1.4179 -1.6770
23194SOL    HW271024   5.453   3.640   0.883  0.4322 -0.4073 -0.1575
23195SOL     OW71025   1.270   1.674   2.072  0.7168 -0.0806  0.2141
23195SOL    HW171026   1.303   1.754   2.032  0.9793  0.3750  1.3279
23195SOL    HW271027   1.175   1.682   2.066  0.7373  0.3843  0.4375
23196SOL     OW71028   2.383   7.419   2.556 -0.7536  0.7662 -0.3379
23196SOL    HW171029   2.398   7.512   2.571 -0.6641  0.7463 -0.3026
23196SOL    HW271030   2.332   7.415   2.475  1.1145  0.7433 -1.5821
23197SOL     OW71031   0.547   2.751   7.822 -0.0541 -0.1914  0.4336
23197SOL    HW171032   0.522   2.668   7.782 -0.9020 -0.7109  1.9572
23197SOL    HW271033   0.638   2.765   7.795 -0.4124 -0.7788 -1.1671
23198SOL     OW71034   3.230   1.408   2.303  0.6148 -0.1950  0.1739
23198SOL    HW171035   3.283   1.364   2.370  0.4900 -0.4214  0.1237
23198SOL    HW271036   3.235   1.501   2.326 -0.4527 -0.3811  1.2294
23199SOL     OW71037   5.836   5.307   4.910  0.2126  0.9677  1.2215
23199SOL    HW171038   5.930   5.291   4.900 -0.1707 -1.4017  0.7248
23199SOL    HW271039   5.826   5.337   5.000  1.5818  2.8433  0.7964
23200SOL     OW71040   5.626   3.137   3.781  0.0054 -0.6144  0.6366
23200SOL    HW171041   5.594   3.050   3.805 -1.0456 -1.0353 -1.9529
23200SOL    HW271042   5.560   3.198   3.815 -0.9920 -1.1082 -0.3844
23201SOL     OW71043   4.322   1.482   3.446  0.1910 -0.0968 -0.5952
23201SOL    HW171044   4.404   1.436   3.459 -0.5262 -1.8212 -1.8728
23201SOL    HW271045   4.332   1.527   3.362  0.1282  0.4266 -0.3314
23202SOL     OW71046   6.561   4.323   4.811 -0.4141 -0.0278 -0.3325
23202SOL    HW171047   6.501   4.248   4.811 -1.0169  0.4339  1.0112
23202SOL    HW271048   6.640   4.290   4.855 -0.1533 -0.2600 -0.9625
23203SOL     OW71049   0.497   1.199   2.541  0.0882 -0.1863  0.2337
23203SOL    HW171050   0.476   1.228   2.629  0.2716 -0.1899  0.2789
23203SOL    HW271051   0.576   1.247   2.517 -0.2303  0.1740 -0.1126
23204SOL     OW71052   6.391   3.501   4.474 -0.0253  0.2714  0.2885
23204SOL    HW171053   6.388   3.408   4.497  0.5631  0.3926  0.8469
23204SOL    HW271054   6.484   3.524   4.475 -0.1461  0.8050 -0.1085
23205SOL     OW71055   7.885   2.776   2.203  0.5549 -0.0222  0.9153
23205SOL    HW171056   7.962   2.802   2.153  1.4957 -0.9557  1.8300
23205SOL    HW271057   7.875   2.683   2.184 -1.5337  0.4589 -0.7073
23206SOL     OW71058   3.644   3.222   0.575 -0.0204  0.5059  0.3815
23206SOL    HW171059   3.730   3.190   0.603  0.0245 -0.1730 -0.4912
23206SOL    HW271060   3.663   3.300   0.524  0.0465  0.6151  0.5741
23207SOL     OW71061   2.949   4.363  10.492  0.0846 -0.5799 -0.7925
23207SOL    HW171062   3.034   4.328  10.465  0.8950  0.0612  0.7785
23207SOL    HW271063   2.946   4.451  10.456  1.4437  0.5150  1.5562
23208SOL     OW71064   6.645   7.120   7.353  0.0644 -0.8253  0.6903
23208SOL    HW171065   6.652   7.118   7.448  0.6557  0.3047  0.6918
23208SOL    HW271066   6.551   7.112   7.335 -0.0337 -1.1924  1.3571
23209SOL     OW71067   6.494   0.442   5.770  0.0555 -0.0809 -0.1762
23209SOL    HW171068   6.554   0.381   5.726  1.0299  0.6484  0.0880
23209SOL    HW271069   6.539   0.464   5.851 -0.7241  0.2675  0.1676
23210SOL     OW71070   3.598   0.367   1.045 -0.5692 -0.1316  0.5114
23210SOL    HW171071   3.563   0.358   0.956 -1.2382  0.4510  0.7042
23210SOL    HW271072   3.636   0.455   1.047  0.7192 -0.6560  0.3861
23211SOL     OW71073   5.159   5.561   4.167  0.2261  0.0457 -0.8575
23211SOL    HW171074   5.118   5.569   4.253  2.0899 -1.4037  0.2613
23211SOL    HW271075   5.086   5.553   4.106 -1.2323  3.7323  0.1600
23212SOL     OW71076   3.703   4.511   9.086 -0.2919  0.5041  0.1328
23212SOL    HW171077   3.785   4.479   9.048 -0.2305  0.3055  0.4283
23212SOL    HW271078   3.693   4.600   9.052 -1.0795 -0.2329 -1.6815
23213SOL     OW71079   7.935   7.904   9.928 -0.3460  0.2148 -0.6292
23213SOL    HW171080   7.843   7.918   9.905 -0.1309  0.8854 -1.0933
23213SOL    HW271081   7.962   7.830   9.873 -0.3598  0.6022 -1.1682
23214SOL     OW71082   6.712   7.311   2.088 -0.3119 -0.5758  0.2609
23214SOL    HW171083   6.795   7.270   2.112  0.7307  1.5850  0.5461
23214SOL    HW271084   6.647   7.243   2.102  1.3934 -2.3376  0.0318
23215SOL     OW71085   3.392   3.467   7.871  0.0441  0.1004 -0.3821
23215SOL    HW171086   3.317   3.525   7.877  0.0855  0.1082  0.0714
23215SOL    HW271087   3.403   3.432   7.959  1.0616  0.7073 -0.2503
23216SOL     OW71088   3.195   5.381   1.156  0.0650  0.2138  0.1995
23216SOL    HW171089   3.264   5.318   1.136  0.7531  0.8048  0.6662
23216SOL    HW271090   3.118   5.347   1.111 -0.6969 -3.1615  3.5177
23217SOL     OW71091   6.090   0.246   5.364 -0.0640 -0.1870  0.0109
23217SOL    HW171092   6.048   0.165   5.336 -0.8423 -0.0175  0.6399
23217SOL    HW271093   6.144   0.273   5.290 -1.1679 -0.3477 -0.8779
23218SOL     OW71094   2.620   0.787   3.056 -0.0889 -0.3149  0.0302
23218SOL    HW171095   2.547   0.758   3.001  1.4667 -1.1097 -1.7446
23218SOL    HW271096   2.670   0.708   3.074  2.7012  0.6848 -2.5275
23219SOL     OW71097   0.390   7.882   3.201 -0.1316 -0.3030  0.0456
23219SOL    HW171098   0.458   7.827   3.241  0.6547  0.4602 -0.1903
23219SOL    HW271099   0.343   7.824   3.142  2.6475 -0.1475 -2.5653
23220SOL     OW71100   3.023   2.649   0.711  0.5958 -0.6188 -0.5896
23220SOL    HW171101   2.969   2.664   0.633 -0.0575 -0.0869 -0.0468
23220SOL    HW271102   3.058   2.561   0.700 -0.4320 -0.9955 -0.9323
23221SOL     OW71103   1.417   3.932   4.575 -0.0214  0.2260 -0.0098
23221SOL    HW171104   1.500   3.969   4.604  0.6628 -0.4005 -1.1012
23221SOL    HW271105   1.359   3.941   4.651  1.8781 -2.0056  1.8995
23222SOL     OW71106   1.227   3.171   3.178 -0.5224  0.1573  0.2479
23222SOL    HW171107   1.263   3.248   3.134 -0.6560 -0.1408 -0.3942
23222SOL    HW271108   1.250   3.183   3.270  0.8368  0.1820 -0.0809
23223SOL     OW71109   7.770   1.700   8.013 -0.1615 -0.2881  0.5381
23223SOL    HW171110   7.800   1.628   7.958 -1.1812 -0.9544  0.8169
23223SOL    HW271111   7.840   1.714   8.077 -0.3669 -1.7227  1.1131
23224SOL     OW71112   7.584   7.682   7.433 -0.2021 -0.0966 -0.2936
23224SOL    HW171113   7.633   7.737   7.372  1.1979 -1.5340 -0.5192
23224SOL    HW271114   7.632   7.690   7.516  0.0194 -0.9596 -0.3328
23225SOL     OW71115   3.247   4.375   7.318  0.4961  0.0771 -0.1113
23225SOL    HW171116   3.224   4.373   7.411  0.4820  1.5098 -0.0578
23225SOL    HW271117   3.294   4.458   7.307  0.3360  0.0178 -1.4116
23226SOL     OW71118   2.073   1.354   5.106 -0.1903 -0.2916  0.2106
23226SOL    HW171119   2.150   1.371   5.052  0.2626  0.1673  0.9972
23226SOL    HW271120   2.068   1.259   5.112 -2.0811 -0.6104 -3.2710
23227SOL     OW71121   4.895   1.047   4.908  0.1139 -0.2189  0.0277
23227SOL    HW171122   4.987   1.034   4.883  0.1575 -0.5114  0.3372
23227SOL    HW271123   4.873   0.970   4.960  0.0711  0.4307  1.0100
23228SOL     OW71124   5.454   3.145   9.499  0.5703 -0.2523  0.8182
23228SOL    HW171125   5.461   3.070   9.439 -0.3824 -0.4554  0.9495
23228SOL    HW271126   5.421   3.216   9.444  1.5265  0.1115  0.6811
23229SOL     OW71127   7.377   7.786  10.061 -0.2036 -0.3739 -0.7174
23229SOL    HW171128   7.290   7.750  10.041 -0.4067 -0.3029  0.0183
23229SOL    HW271129   7.414   7.808   9.975 -0.8081 -0.6389 -1.0533
23230SOL     OW71130   6.767   7.858   4.187  0.3240 -0.0116  0.7328
23230SOL    HW171131   6.764   7.863   4.091 -1.3702 -1.2484  0.6894
23230SOL    HW271132   6.845   7.805   4.206  0.6154  0.1585  0.0499
23231SOL     OW71133   5.053   1.243   9.530  0.2067  0.3880 -0.1162
23231SOL    HW171134   5.132   1.242   9.476  1.4026 -1.4393  1.5461
23231SOL    HW271135   5.071   1.308   9.598  0.5053 -0.3950  0.5605
23232SOL     OW71136   2.845   1.949   0.729  0.2540 -0.2495  0.3089
23232SOL    HW171137   2.920   1.942   0.671 -0.0366 -1.3088  0.0298
23232SOL    HW271138   2.819   1.858   0.746 -1.2078  0.0868  0.0664
23233SOL     OW71139   6.127   6.245   3.146  0.4095 -0.5940  0.0922
23233SOL    HW171140   6.085   6.261   3.062  0.3588 -0.3879  0.1571
23233SOL    HW271141   6.114   6.326   3.195  0.9562 -0.4944  0.0792
23234SOL     OW71142   1.845   0.150   4.651 -0.3428 -0.0982  0.0478
23234SOL    HW171143   1.768   0.093   4.660 -1.3947  0.9758 -1.6520
23234SOL    HW271144   1.812   0.229   4.607  1.8308  0.1940 -1.2182
23235SOL     OW71145   5.364   6.360   9.936  0.3852 -0.7995  0.2118
23235SOL    HW171146   5.386   6.403  10.019  0.5510 -2.7860  1.2494
23235SOL    HW271147   5.270   6.343   9.941  0.2945 -0.4897 -0.2595
23236SOL     OW71148   1.963   6.172  11.862 -0.4589  0.4590 -0.0116
23236SOL    HW171149   1.898   6.161  11.931 -1.1542 -1.6682 -0.9104
23236SOL    HW271150   1.983   6.082  11.834  0.4541  1.2143 -1.9364
23237SOL     OW71151   3.416   2.485   4.042  0.2932 -0.0929 -0.4891
23237SOL    HW171152   3.391   2.393   4.031  0.6985 -0.2364 -0.2087
23237SOL    HW271153   3.360   2.517   4.113  0.1671 -0.1221 -0.5731
23238SOL     OW71154   1.790   3.540   4.029 -0.1566 -0.1322  0.3865
23238SOL    HW171155   1.859   3.587   4.077 -1.1871  1.2071  0.6376
23238SOL    HW271156   1.752   3.607   3.971 -1.0610 -0.9042  0.0713
23239SOL     OW71157   1.455   6.962  12.292 -0.2994 -0.0529 -0.5370
23239SOL    HW171158   1.390   7.030  12.277 -1.7000 -0.5209  2.5773
23239SOL    HW271159   1.533   7.009  12.321 -2.1715  0.5183  4.7811
23240SOL     OW71160   2.616   1.849  12.168 -0.1223 -0.5300  0.3517
23240SOL    HW171161   2.647   1.916  12.229  0.7362  0.1914 -0.8191
23240SOL    HW271162   2.566   1.789  12.222 -0.3010  0.6588  1.5749
23241SOL     OW71163   6.865   2.790  10.594 -0.2324  0.4278  0.4595
23241SOL    HW171164   6.846   2.705  10.634  1.9272 -0.7631 -0.8945
23241SOL    HW271165   6.780   2.822  10.564 -0.9791 -1.6213  0.2719
23242SOL     OW71166   5.867   7.278   9.639  0.0350  0.2844 -0.0847
23242SOL    HW171167   5.807   7.207   9.616 -0.5141  0.0280  1.9106
23242SOL    HW271168   5.854   7.344   9.571 -2.4612  0.1937  0.2000
23243SOL     OW71169   1.797   1.211   0.381 -0.2304 -0.1633  0.1095
23243SOL    HW171170   1.727   1.269   0.411 -1.2189 -1.4156  0.3190
23243SOL    HW271171   1.765   1.176   0.298 -0.8227 -2.2943  1.1605
23244SOL     OW71172   1.252   2.196   1.422 -0.0773  0.5940  0.1108
23244SOL    HW171173   1.238   2.209   1.516  0.7359  0.4827  0.2560
23244SOL    HW271174   1.249   2.101   1.411 -0.6805  0.6270 -0.0690
23245SOL     OW71175   2.656   4.222   8.672  0.0801  0.2788  0.3283
23245SOL    HW171176   2.738   4.223   8.722  0.2355  1.3934  0.0706
23245SOL    HW271177   2.652   4.134   8.635  0.9053  0.0468  0.7586
23246SOL     OW71178   7.558   2.131   2.792  0.1958  0.1177 -0.4020
23246SOL    HW171179   7.487   2.149   2.853  0.6300  1.0193 -0.1523
23246SOL    HW271180   7.619   2.076   2.841  0.5734  0.8917  0.0154
23247SOL     OW71181   2.598   2.129   4.045  0.3220  0.2771  0.4949
23247SOL    HW171182   2.546   2.113   4.124  0.0570 -0.9917  0.0957
23247SOL    HW271183   2.677   2.172   4.076 -0.6049  1.5272  1.2167
23248SOL     OW71184   5.834   7.497   0.138 -0.0248  0.1677 -0.5191
23248SOL    HW171185   5.861   7.444   0.213 -1.0482  0.7350  0.2751
23248SOL    HW271186   5.828   7.586   0.173  0.2751  0.5821 -1.4817
23249SOL     OW71187   0.380   4.986   9.579  0.6243  0.7265  0.2748
23249SOL    HW171188   0.308   4.975   9.640 -0.5348  1.8078 -0.8277
23249SOL    HW271189   0.435   4.908   9.591  0.1237  0.6333  2.2152
23250SOL     OW71190   3.894   1.764   8.737  0.0484 -0.2192  0.2756
23250SOL    HW171191   3.826   1.784   8.673  0.1653  1.7157  0.7144
23250SOL    HW271192   3.856   1.694   8.790 -0.6188 -0.8499 -0.9741
23251SOL     OW71193   4.393   1.424   2.336  0.4060  0.5293  0.0582
23251SOL    HW171194   4.354   1.346   2.376 -0.6262  1.3256  0.6586
23251SOL    HW271195   4.319   1.471   2.296  0.8692  1.6004  0.4054
23252SOL     OW71196   6.571   2.795   1.547 -0.4864  0.5172 -0.0175
23252SOL    HW171197   6.617   2.872   1.581 -0.8772  0.9325 -0.3961
23252SOL    HW271198   6.619   2.771   1.468 -0.3202  0.3268  0.1421
23253SOL     OW71199   2.131   4.986   7.980  0.1028  0.0171 -0.0354
23253SOL    HW171200   2.223   5.003   7.961  0.1002  0.3051  0.2145
23253SOL    HW271201   2.082   5.042   7.919  0.0798 -0.8326 -0.8303
23254SOL     OW71202   0.492   3.872   9.141  0.0671 -0.2697 -0.4903
23254SOL    HW171203   0.469   3.899   9.052 -0.6333  0.2422 -0.1678
23254SOL    HW271204   0.421   3.813   9.167 -1.9143  2.5612  1.1032
23255SOL     OW71205   1.110   6.502   5.511  0.1999  0.0279 -0.0758
23255SOL    HW171206   1.132   6.417   5.473  0.8421  0.0722  0.1869
23255SOL    HW271207   1.190   6.553   5.503 -0.6246  1.1474 -1.6770
23256SOL     OW71208   1.895   3.072  10.068  0.0371  0.5137 -0.0275
23256SOL    HW171209   1.979   3.104  10.035  0.2079  0.1367  0.0358
23256SOL    HW271210   1.863   3.013  10.000 -0.5084  1.1810 -0.3651
23257SOL     OW71211   1.820   2.165   7.958  0.8079  0.0385 -0.1831
23257SOL    HW171212   1.797   2.194   8.046  1.5157  1.3917 -0.4063
23257SOL    HW271213   1.776   2.081   7.947  2.8057 -1.5234  2.4608
23258SOL     OW71214   1.260   0.277   4.181  0.4327  0.3973 -0.0601
23258SOL    HW171215   1.274   0.359   4.229 -0.4848 -0.3935  1.6527
23258SOL    HW271216   1.328   0.218   4.214  1.0257  0.4154 -1.2153
23259SOL     OW71217   3.864   0.273   2.075  0.3666  0.5609 -0.4321
23259SOL    HW171218   3.896   0.205   2.015 -0.2861  0.9743 -1.2881
23259SOL    HW271219   3.865   0.232   2.161  0.3511 -0.4084 -0.8757
23260SOL     OW71220   2.321   2.940   4.375 -0.0752  0.5758 -0.0551
23260SOL    HW171221   2.298   2.860   4.421 -1.7793  1.0402 -0.0326
23260SOL    HW271222   2.417   2.940   4.372 -0.0115 -0.7026  1.2490
23261SOL     OW71223   0.038   3.963   0.378  1.1300  0.1337 -0.0337
23261SOL    HW171224   0.053   3.875   0.342 -0.1125  0.3119 -1.0111
23261SOL    HW271225   0.126   4.000   0.385  1.4924 -0.1599 -2.2827
23262SOL     OW71226   4.947   6.335   4.126 -0.1438 -0.0891  0.0403
23262SOL    HW171227   5.006   6.296   4.061 -0.4320  0.6287 -0.6758
23262SOL    HW271228   4.972   6.294   4.209 -0.0205 -1.3086 -0.5767
23263SOL     OW71229   7.876   2.288   9.606 -0.2180  0.2088  0.2722
23263SOL    HW171230   7.968   2.299   9.584  0.1259  0.8840  1.9395
23263SOL    HW271231   7.838   2.376   9.594 -0.5220  0.0603  0.1285
23264SOL     OW71232   0.256   5.831   1.536  0.4562  0.1794 -0.2607
23264SOL    HW171233   0.319   5.902   1.527 -0.5744  1.4891  1.9820
23264SOL    HW271234   0.299   5.767   1.592  0.9340 -0.4326 -1.3036
23265SOL     OW71235   1.109   4.491   5.493  0.3782 -0.0960  0.1577
23265SOL    HW171236   1.131   4.529   5.408  1.6473  1.0764  0.9734
23265SOL    HW271237   1.192   4.456   5.526 -0.1691 -0.8610  0.7677
23266SOL     OW71238   0.101   4.400   5.798  0.2124  0.4227 -0.1508
23266SOL    HW171239   0.127   4.476   5.745  0.1118  0.9908  0.6063
23266SOL    HW271240   0.090   4.329   5.734  1.6561  0.6799 -0.7240
23267SOL     OW71241   7.487   5.616   6.695  0.2759 -0.1274  0.0159
23267SOL    HW171242   7.469   5.709   6.683 -1.0814 -0.2029  1.1997
23267SOL    HW271243   7.573   5.603   6.655  0.1537  1.4692 -0.8399
23268SOL     OW71244   5.001   6.104   8.802 -0.0054 -0.1015  0.1727
23268SOL    HW171245   4.990   6.009   8.806  1.3998 -0.4455 -2.3150
23268SOL    HW271246   5.095   6.117   8.794 -0.2494  1.4467 -0.5570
23269SOL     OW71247   1.773   7.239  11.403  0.4996 -0.5956  0.0456
23269SOL    HW171248   1.825   7.305  11.357  0.9819 -0.4456  0.7881
23269SOL    HW271249   1.686   7.278  11.410  0.5426 -0.4238 -0.3132
23270SOL     OW71250   0.445   0.478  10.675 -0.0903 -0.4337  0.4240
23270SOL    HW171251   0.388   0.418  10.724 -0.7112 -0.5896 -0.4713
23270SOL    HW271252   0.484   0.424  10.607  1.4980 -0.4282  1.2947
23271SOL     OW71253   1.471   6.260   2.805  0.1967 -0.2569  0.3256
23271SOL    HW171254   1.429   6.175   2.797 -1.5356  0.6797 -1.0501
23271SOL    HW271255   1.534   6.263   2.733  0.8992 -0.6893  0.9054
23272SOL     OW71256   7.477   0.370   5.170  0.3483 -0.2738 -0.3728
23272SOL    HW171257   7.488   0.276   5.186  4.7575  0.0836  0.1036
23272SOL    HW271258   7.465   0.408   5.257  0.4495 -0.2573 -0.3658
23273SOL     OW71259   7.463   4.517   6.679  0.2880 -0.2892  0.4744
23273SOL    HW171260   7.433   4.429   6.698 -1.5659  0.1219 -0.3179
23273SOL    HW271261   7.558   4.513   6.687  0.3417 -2.6338 -0.7096
23274SOL     OW71262   6.053   3.912   7.468  0.1460  0.2854 -0.0196
23274SOL    HW171263   6.096   3.831   7.492  0.8176  0.7237  0.2921
23274SOL    HW271264   5.970   3.885   7.428 -0.6499 -0.4908  2.0344
23275SOL     OW71265   3.959   1.312   7.147 -0.4025  0.4441 -0.2623
23275SOL    HW171266   3.898   1.259   7.097 -1.0503  0.3114  0.6381
23275SOL    HW271267   3.931   1.402   7.131 -0.8376  0.3835  0.1459
23276SOL     OW71268   5.410   2.074  12.331  0.2382  0.4928  0.2073
23276SOL    HW171269   5.416   2.107  12.421  1.3499  0.9278 -0.0209
23276SOL    HW271270   5.390   1.981  12.341  0.2697  0.5563  0.9009
23277SOL     OW71271   6.963   7.949  12.029  0.2198 -0.1303  0.4239
23277SOL    HW171272   6.918   7.893  11.966 -0.1046  0.6432 -0.0380
23277SOL    HW271273   6.896   8.009  12.062  1.0529  1.6234 -0.9259
23278SOL     OW71274   4.884   6.157  11.023  0.0634  0.0086 -0.1121
23278SOL    HW171275   4.895   6.235  11.078 -1.4583  0.5829 -0.5698
23278SOL    HW271276   4.869   6.192  10.935  0.5547 -0.8513 -0.5535
23279SOL     OW71277   6.857   0.047   0.731  0.5125  0.0340 -0.3858
23279SOL    HW171278   6.930   0.041   0.794 -0.6101 -0.0996  0.9584
23279SOL    HW271279   6.839   0.141   0.724  0.8388  0.0696 -0.7480
23280SOL     OW71280   6.017   2.435   5.994  0.0129 -0.2487  0.0090
23280SOL    HW171281   6.088   2.375   5.972  1.0311  0.8760  0.1357
23280SOL    HW271282   6.054   2.523   5.981 -1.4254  0.3732 -0.1531
23281SOL     OW71283   5.756   2.776   7.195  0.0200 -1.0262 -0.2011
23281SOL    HW171284   5.711   2.825   7.126  0.1105 -0.6757 -0.0129
23281SOL    HW271285   5.787   2.696   7.151 -0.7395 -1.2541 -0.3425
23282SOL     OW71286   3.148   6.921   6.126  0.2197 -0.1802  0.0758
23282SOL    HW171287   3.218   6.885   6.072  0.0175 -0.1459 -0.2127
23282SOL    HW271288   3.174   6.901   6.216 -0.4070 -2.0054 -0.1054
23283SOL     OW71289   6.385   7.788   0.484 -0.2056  0.2248 -0.6266
23283SOL    HW171290   6.364   7.785   0.390 -0.0397  0.9835 -0.6945
23283SOL    HW271291   6.302   7.765   0.527  0.2969 -2.5757 -0.9593
23284SOL     OW71292   7.246   2.217   2.404  1.1870 -0.7103 -0.0424
23284SOL    HW171293   7.246   2.273   2.326 -1.5115 -0.1272  0.2575
23284SOL    HW271294   7.189   2.143   2.380  1.6502 -1.3654  0.8417
23285SOL     OW71295   3.504   2.604   8.566  0.2578 -0.0051  0.1589
23285SOL    HW171296   3.579   2.664   8.568  0.1356  0.1206  0.9059
23285SOL    HW271297   3.487   2.592   8.472 -1.4032  3.2402 -0.1110
23286SOL     OW71298   1.543   7.147   9.082  0.0573  0.1290 -0.1832
23286SOL    HW171299   1.459   7.190   9.071  0.1502  0.1182 -0.9600
23286SOL    HW271300   1.522   7.054   9.095 -0.3172  0.5803  3.8872
23287SOL     OW71301   3.764   5.644   1.924  0.0242 -0.2910 -0.1113
23287SOL    HW171302   3.844   5.620   1.878 -0.8119  0.7984 -2.2794
23287SOL    HW271303   3.700   5.579   1.895 -0.5661  0.5353 -0.7180
23288SOL     OW71304   6.071   0.109  10.133 -0.0427  0.6439 -0.4235
23288SOL    HW171305   6.043   0.199  10.149 -2.5083 -0.0914 -0.2033
23288SOL    HW271306   5.990   0.058  10.136  0.9823 -1.2954 -2.7251
23289SOL     OW71307   7.687   6.593   9.616 -0.3198  0.3324 -0.2426
23289SOL    HW171308   7.610   6.571   9.667  0.4053  1.5266  1.4711
23289SOL    HW271309   7.761   6.573   9.673  0.5871  0.4471 -1.3352
23290SOL     OW71310   5.663   5.173   3.590 -0.1842 -0.7046 -0.5035
23290SOL    HW171311   5.690   5.107   3.654  0.5104 -0.5610 -0.6503
23290SOL    HW271312   5.720   5.159   3.515 -0.3789 -0.2690 -0.7337
23291SOL     OW71313   2.385   5.890  11.492 -1.0795 -0.0446 -0.0162
23291SOL    HW171314   2.387   5.794  11.491 -0.5575 -0.0407  0.2453
23291SOL    HW271315   2.365   5.912  11.582 -0.2390  0.0979  0.1456
23292SOL     OW71316   0.116   5.922  11.836  0.0389  0.2001 -0.0358
23292SOL    HW171317   0.151   5.833  11.841  0.5604  0.4757  2.0980
23292SOL    HW271318   0.050   5.918  11.767  1.4823 -1.3120 -1.4125
23293SOL     OW71319   0.700   2.403  10.039  0.1835 -0.3366 -0.9660
23293SOL    HW171320   0.774   2.432   9.986  0.8287 -0.1087  0.0276
23293SOL    HW271321   0.739   2.345  10.105 -0.4839 -0.0361 -0.2894
23294SOL     OW71322   5.858   7.441   9.346  0.2653 -0.8187  0.1168
23294SOL    HW171323   5.808   7.441   9.265  0.6903  0.0057 -0.1559
23294SOL    HW271324   5.912   7.362   9.342  0.3126 -0.7581 -0.4195
23295SOL     OW71325   4.628   2.021   8.549  0.2940 -0.1165  0.8157
23295SOL    HW171326   4.675   2.104   8.539  1.4529 -0.4057  3.1102
23295SOL    HW271327   4.536   2.046   8.550  0.6174  1.1793  1.4202
23296SOL     OW71328   5.227   1.009  11.546  0.4032 -0.4201  0.0469
23296SOL    HW171329   5.258   1.032  11.634  1.9782  1.1381 -0.8311
23296SOL    HW271330   5.308   0.996  11.496 -0.4294  0.4685 -1.5817
23297SOL     OW71331   0.927   3.340   2.901 -0.1315  0.0054 -0.5970
23297SOL    HW171332   1.010   3.377   2.931 -0.0676 -0.7080  0.1412
23297SOL    HW271333   0.864   3.411   2.912 -0.0547 -0.1344  0.9976
23298SOL     OW71334   0.721   2.480   5.093 -0.4669  0.0756 -0.2151
23298SOL    HW171335   0.673   2.423   5.033 -0.4447  0.2827 -0.4305
23298SOL    HW271336   0.666   2.558   5.101 -1.0644 -0.4310  0.9750
23299SOL     OW71337   5.725   1.015   0.628  0.2607  0.6867 -0.0844
23299SOL    HW171338   5.680   1.051   0.551  1.7968  0.6629 -1.0367
23299SOL    HW271339   5.725   1.087   0.692 -1.5815  0.5047  0.1577
23300SOL     OW71340   6.399   1.109   5.475 -0.2045  1.0879  0.0559
23300SOL    HW171341   6.376   1.026   5.434 -0.1503  0.3098  1.5512
23300SOL    HW271342   6.315   1.154   5.485 -0.6467 -0.0606  1.8935
23301SOL     OW71343   1.895   1.477   9.737 -0.2390 -0.1467  0.2637
23301SOL    HW171344   1.896   1.421   9.660 -1.2161  0.6614 -0.3564
23301SOL    HW271345   1.970   1.536   9.724  1.3889 -1.8326  1.3819
23302SOL     OW71346   6.123   6.168   9.953  0.7526 -0.4685  0.1394
23302SOL    HW171347   6.072   6.139   9.878 -0.2312 -0.7410  0.8949
23302SOL    HW271348   6.094   6.258   9.970  0.6242 -0.5704  0.4757
23303SOL     OW71349   6.127   6.707   1.786  0.0370 -0.2922  0.6084
23303SOL    HW171350   6.099   6.735   1.873  1.8594  0.5543  0.9672
23303SOL    HW271351   6.154   6.616   1.797 -0.7323 -0.5182  0.6731
23304SOL     OW71352   1.634   3.969   9.164 -0.3671  0.0263  0.9734
23304SOL    HW171353   1.693   3.936   9.096 -2.4246 -0.8734 -0.4734
23304SOL    HW271354   1.683   4.040   9.205  2.1799 -1.4595  0.7057
23305SOL     OW71355   0.409   5.469   2.841 -0.2725 -0.1906 -0.4675
23305SOL    HW171356   0.428   5.452   2.749 -0.5365 -1.8887 -0.2300
23305SOL    HW271357   0.432   5.388   2.887  0.9186  0.9798  1.1489
23306SOL     OW71358   5.239   4.194   9.946  0.2402  0.3137  0.4270
23306SOL    HW171359   5.300   4.169   9.877  0.9429  0.0182  1.1491
23306SOL    HW271360   5.257   4.134  10.018 -0.6218  0.4865  0.8015
23307SOL     OW71361   2.527   6.180   3.681  0.4177 -0.3170 -0.7216
23307SOL    HW171362   2.524   6.090   3.715  0.1631 -0.9110 -2.2270
23307SOL    HW271363   2.601   6.220   3.727 -0.5642 -0.7143  1.2961
23308SOL     OW71364   5.406   3.333  10.424  0.7738  0.0454  0.1761
23308SOL    HW171365   5.440   3.281  10.497  0.3433  0.0147  0.3557
23308SOL    HW271366   5.469   3.404  10.414  1.5293 -0.6626 -0.2620
23309SOL     OW71367   6.475   5.855  12.422  0.1558  0.1251 -0.5240
23309SOL    HW171368   6.488   5.781  12.363  0.2793 -1.3923  1.3223
23309SOL    HW271369   6.396   5.833  12.472 -0.0828  1.4733 -0.2755
23310SOL     OW71370   6.163   5.418   2.634  0.1806 -0.0329 -0.1816
23310SOL    HW171371   6.209   5.380   2.560  0.2087 -0.5865  0.1121
23310SOL    HW271372   6.071   5.417   2.609  0.0495 -1.3698  0.2668
23311SOL     OW71373   1.500   6.957  11.927  0.1918 -0.3964 -0.0312
23311SOL    HW171374   1.583   6.919  11.899  0.1631 -0.2580 -0.3129
23311SOL    HW271375   1.523   7.038  11.971  0.2801 -0.9275  0.9252
23312SOL     OW71376   2.652   4.153   6.969  0.0837  0.0786 -0.1641
23312SOL    HW171377   2.732   4.160   7.021  0.0303 -0.5513  0.0093
23312SOL    HW271378   2.681   4.122   6.884  0.1034  0.5509 -0.3330
23313SOL     OW71379   6.568   7.304  12.049  0.0102 -0.5371 -0.7045
23313SOL    HW171380   6.551   7.390  12.087 -1.0029 -0.8736 -0.3710
23313SOL    HW271381   6.491   7.251  12.071  1.2808 -2.0014  0.4445
23314SOL     OW71382   1.890   6.606  11.977  0.0963 -0.0468 -0.2960
23314SOL    HW171383   1.840   6.678  12.016 -0.7185  0.5241 -2.2458
23314SOL    HW271384   1.982   6.632  11.989  0.0561 -0.9922  3.1012
23315SOL     OW71385   6.951   4.594   1.134  0.2772  0.2170  0.2510
23315SOL    HW171386   6.906   4.652   1.195 -1.8984  0.4255 -1.4125
23315SOL    HW271387   6.890   4.521   1.121  1.4966 -0.7483 -0.2590
23316SOL     OW71388   3.730   6.996   0.030  0.2778 -0.0939  0.0661
23316SOL    HW171389   3.644   7.037   0.037 -0.4563 -1.6695  0.9209
23316SOL    HW271390   3.752   7.001  -0.062 -2.0521 -2.1244 -0.7117
23317SOL     OW71391   5.021   0.347   9.349  0.5868  0.4213 -0.1936
23317SOL    HW171392   4.962   0.275   9.327  0.7164 -0.7777  2.8928
23317SOL    HW271393   5.015   0.406   9.274 -0.7041 -2.0235 -2.1876
23318SOL     OW71394   2.232   0.154   1.126  0.3180 -0.2701 -0.2969
23318SOL    HW171395   2.302   0.185   1.183  0.7992 -2.0030  0.1247
23318SOL    HW271396   2.272   0.151   1.039  1.2927 -2.6130  0.1638
23319SOL     OW71397   1.650   7.196   1.173 -0.8259  0.0787 -0.4743
23319SOL    HW171398   1.633   7.145   1.094  2.3543 -1.0040 -0.5794
23319SOL    HW271399   1.711   7.264   1.145  0.3043 -0.2811  0.9842
23320SOL     OW71400   7.513   3.484   3.064 -0.0006  0.1411  0.5724
23320SOL    HW171401   7.608   3.495   3.070  0.0527 -0.2616  0.4574
23320SOL    HW271402   7.481   3.502   3.152  0.1454  0.6359  0.5293
23321SOL     OW71403   3.963   6.557   6.563  0.2933  0.4383 -0.1798
23321SOL    HW171404   4.053   6.592   6.560  0.3963  0.1485 -0.7302
23321SOL    HW271405   3.911   6.628   6.600  0.9131  0.2409  1.1270
23322SOL     OW71406   0.600   0.179   9.244 -0.2982 -0.2832  0.2565
23322SOL    HW171407   0.604   0.205   9.152 -0.4046 -1.0583  0.0267
23322SOL    HW271408   0.555   0.095   9.243  1.4308 -1.2625  0.8140
23323SOL     OW71409   5.805   3.021   1.870 -0.0276  0.0322  0.2828
23323SOL    HW171410   5.861   3.052   1.799 -0.6719  1.6890  0.4489
23323SOL    HW271411   5.746   2.958   1.829 -1.0603  1.7090 -0.9229
23324SOL     OW71412   2.779   2.555   0.927 -0.6404  0.4163  0.0857
23324SOL    HW171413   2.774   2.536   1.021 -0.6552 -0.4097 -0.0771
23324SOL    HW271414   2.850   2.618   0.919 -0.2182  0.0131  0.5841
23325SOL     OW71415   7.410   6.571   4.684  0.2035 -0.3417 -0.0847
23325SOL    HW171416   7.440   6.569   4.775  0.2220  0.5638 -0.0620
23325SOL    HW271417   7.471   6.632   4.641 -1.3333  1.2413 -0.1217
23326SOL     OW71418   7.449   2.148  11.310 -0.1482  0.6516  0.0510
23326SOL    HW171419   7.429   2.165  11.218 -1.0028  0.7685  0.2460
23326SOL    HW271420   7.364   2.151  11.354  0.0095 -1.2423  0.5709
23327SOL     OW71421   2.791   2.212   6.636  0.1596 -0.1616  0.1049
23327SOL    HW171422   2.784   2.238   6.728  0.4840  0.0589  0.0689
23327SOL    HW271423   2.734   2.136   6.628 -0.2375  0.1074  0.3809
23328SOL     OW71424   5.407   4.647  11.752 -0.6084  0.1536  0.0490
23328SOL    HW171425   5.391   4.701  11.675  0.3638 -0.9532 -0.9859
23328SOL    HW271426   5.476   4.586  11.724  0.8841  0.6951  2.2655
23329SOL     OW71427   7.366   4.195  10.808 -0.1214 -0.0369  0.1706
23329SOL    HW171428   7.289   4.220  10.859  0.3210  0.8850  0.4041
23329SOL    HW271429   7.414   4.135  10.866 -1.0588 -1.2861 -0.2962
23330SOL     OW71430   7.413   4.713   8.999 -0.2808  0.5696  0.0347
23330SOL    HW171431   7.432   4.791   8.947  0.9046  0.3277  0.0923
23330SOL    HW271432   7.409   4.642   8.936 -2.1498  0.7521 -0.1274
23331SOL     OW71433   7.294   2.072   7.482  0.7739  0.1739 -0.0292
23331SOL    HW171434   7.328   2.033   7.401 -1.5651 -0.1923 -0.9390
23331SOL    HW271435   7.361   2.055   7.548  1.8818 -1.2751 -1.4621
23332SOL     OW71436   2.821   7.487   0.556  0.0939  0.2562  0.4550
23332SOL    HW171437   2.831   7.538   0.636 -0.2998  2.4910 -0.8293
23332SOL    HW271438   2.865   7.539   0.488 -1.4399 -0.4469 -1.1834
23333SOL     OW71439   5.242   0.503  11.063 -0.2525  0.0327  0.0638
23333SOL    HW171440   5.170   0.511  11.127 -0.4484 -1.3734  0.0436
23333SOL    HW271441   5.232   0.580  11.007 -2.0214 -0.3401 -0.2020
23334SOL     OW71442   4.186   0.242   8.850 -0.5079 -0.1965  0.5394
23334SOL    HW171443   4.142   0.169   8.806  0.3539  0.1515 -0.9885
23334SOL    HW271444   4.187   0.312   8.785  1.9335 -0.0838  0.6069
23335SOL     OW71445   6.041   6.525  10.257 -0.0395 -0.0494 -0.5484
23335SOL    HW171446   5.971   6.463  10.238 -0.2139  0.1066 -0.4099
23335SOL    HW271447   5.996   6.606  10.279  0.1681 -0.1919  0.4301
23336SOL     OW71448   1.675   1.572   7.336 -0.4467 -0.0933 -0.1461
23336SOL    HW171449   1.730   1.620   7.275  2.0701 -1.9359  0.5157
23336SOL    HW271450   1.661   1.633   7.409  0.4553  0.5177 -0.4668
23337SOL     OW71451   5.355   5.788   3.049 -0.4349 -0.2933 -0.2383
23337SOL    HW171452   5.381   5.834   2.969  0.2589  0.4259  0.3808
23337SOL    HW271453   5.436   5.778   3.098 -0.7241 -1.4365  0.0310
23338SOL     OW71454   5.154   0.421   0.476  0.0273 -0.0643  0.2536
23338SOL    HW171455   5.085   0.488   0.475 -0.3342 -0.3958  1.5135
23338SOL    HW271456   5.234   0.470   0.494  0.6448  0.7003 -3.6005
23339SOL     OW71457   6.056   1.090   1.497 -0.3828  0.2371  0.4827
23339SOL    HW171458   6.139   1.072   1.542  0.3671  0.1285 -0.8885
23339SOL    HW271459   6.076   1.161   1.437 -1.2567  0.1390  0.0614
23340SOL     OW71460   1.404   1.346   3.882 -0.1346 -0.1729  0.3873
23340SOL    HW171461   1.454   1.371   3.804  0.9846 -2.0518  0.4405
23340SOL    HW271462   1.347   1.421   3.899  2.2341  1.8674 -0.0415
23341SOL     OW71463   3.605   1.824   6.187 -0.3527  0.0557 -0.3080
23341SOL    HW171464   3.584   1.907   6.231 -0.1584 -0.3305  0.5402
23341SOL    HW271465   3.526   1.771   6.197 -0.8074  0.4493 -1.6435
23342SOL     OW71466   7.476   1.811   3.090  0.4030 -0.0594  0.3874
23342SOL    HW171467   7.528   1.741   3.050  0.7283  0.5199 -0.2318
23342SOL    HW271468   7.449   1.776   3.174 -1.3494 -1.8349 -0.8151
23343SOL     OW71469   7.266   5.042   9.255 -0.1187 -0.2932  0.0139
23343SOL    HW171470   7.228   4.954   9.252 -0.6431 -0.0906  0.4965
23343SOL    HW271471   7.356   5.030   9.226  0.6627 -1.4605  2.6039
23344SOL     OW71472   3.423   4.060  11.223 -0.0800  0.4654  0.6926
23344SOL    HW171473   3.470   4.131  11.268  3.0590 -2.1411  2.0027
23344SOL    HW271474   3.441   4.074  11.130  0.6651  1.3224  0.9491
23345SOL     OW71475   0.780   6.707   7.052  0.0092  0.1585 -0.0635
23345SOL    HW171476   0.732   6.787   7.030  0.3964  0.6981  1.0218
23345SOL    HW271477   0.872   6.729   7.035  0.1210 -0.0463  0.2766
23346SOL     OW71478   5.513   4.515   1.961  0.4254 -0.2151  0.3226
23346SOL    HW171479   5.509   4.535   2.055  1.6310 -0.9613  0.5466
23346SOL    HW271480   5.595   4.554   1.931 -0.8739  1.7575 -0.8885
23347SOL     OW71481   6.827   7.051   9.800  0.0582 -0.1216  0.2831
23347SOL    HW171482   6.746   7.045   9.851 -0.7961  2.9670 -0.5150
23347SOL    HW271483   6.799   7.033   9.710  0.1616  1.2960 -0.0423
23348SOL     OW71484   5.784   0.266  10.147 -0.2333  0.4133  0.2889
23348SOL    HW171485   5.752   0.348  10.184 -0.3137  0.2872  0.5013
23348SOL    HW271486   5.737   0.198  10.194 -1.9063  0.2673 -1.4847
23349SOL     OW71487   2.304   2.097   7.378  0.1469 -0.0285 -0.5206
23349SOL    HW171488   2.294   2.082   7.472  2.1993  0.5799 -0.1433
23349SOL    HW271489   2.265   2.183   7.363 -1.3987 -0.6960 -0.5217
23350SOL     OW71490   3.446   1.873   3.561 -0.2005  0.0974  0.0553
23350SOL    HW171491   3.476   1.965   3.564  1.1161 -0.3164  0.3129
23350SOL    HW271492   3.418   1.861   3.471  1.0588  0.3475 -0.3967
23351SOL     OW71493   4.884   2.393   9.614 -0.5297 -0.0348 -0.5245
23351SOL    HW171494   4.859   2.333   9.543 -1.9033  0.4919 -0.4989
23351SOL    HW271495   4.864   2.480   9.580 -0.9176  0.2439  0.3964
23352SOL     OW71496   3.883   6.298  12.154  0.0554  0.1753 -0.1236
23352SOL    HW171497   3.907   6.346  12.232  0.5456 -1.9582  1.1225
23352SOL    HW271498   3.939   6.335  12.085  1.1969  0.6408  1.0117
23353SOL     OW71499   3.714   3.042  10.884 -0.2566  0.1823 -0.4053
23353SOL    HW171500   3.772   2.994  10.944 -1.5352  1.7132  2.2077
23353SOL    HW271501   3.738   3.134  10.895 -1.9662  0.6847 -0.6215
23354SOL     OW71502   7.693   6.553   2.443 -0.0745 -0.4671  0.3018
23354SOL    HW171503   7.664   6.464   2.422 -1.0145 -0.7138  2.3950
23354SOL    HW271504   7.618   6.608   2.421 -0.3055 -0.4809  1.0224
23355SOL     OW71505   2.131   4.234   4.881 -0.8836  0.0157 -0.5532
23355SOL    HW171506   2.057   4.179   4.855 -1.5262  1.6256 -2.3084
23355SOL    HW271507   2.098   4.285   4.955 -0.8552 -0.6520 -0.0637
23356SOL     OW71508   7.948   2.223   4.495  0.2299 -0.5045 -0.7838
23356SOL    HW171509   7.928   2.274   4.416 -1.9883  1.6462  0.9971
23356SOL    HW271510   8.043   2.222   4.500  0.3876  1.3861 -2.2414
23357SOL     OW71511   7.633   0.079   6.123 -0.5066  0.4575  0.3489
23357SOL    HW171512   7.705   0.142   6.119  0.3183 -0.3659  1.3501
23357SOL    HW271513   7.674  -0.001   6.157 -1.6124 -0.4738 -0.4259
23358SOL     OW71514   5.327   3.415  10.181 -0.3066 -0.4461  0.0648
23358SOL    HW171515   5.331   3.356  10.257 -0.7295  0.9805  1.2523
23358SOL    HW271516   5.389   3.484  10.201 -1.4069  0.6704 -0.2365
23359SOL     OW71517   7.461   5.998   5.905 -0.0759 -0.4829 -0.1395
23359SOL    HW171518   7.474   5.980   5.998  0.5601 -1.5689 -0.4216
23359SOL    HW271519   7.448   6.092   5.900  0.1218 -0.3851  1.0236
23360SOL     OW71520   4.543   4.288   2.071 -0.3572  0.0714 -0.0216
23360SOL    HW171521   4.504   4.345   2.138 -2.5212 -0.4363 -0.7650
23360SOL    HW271522   4.590   4.221   2.121 -0.1830  0.8711  0.9240
23361SOL     OW71523   1.936   4.920  10.079  0.2430  0.3299  0.0875
23361SOL    HW171524   1.923   4.998  10.024 -0.5733 -1.0357 -1.7347
23361SOL    HW271525   2.016   4.880  10.045 -0.7428 -0.9982 -0.7333
23362SOL     OW71526   3.488   0.361   5.293 -0.3446  0.5516  0.5030
23362SOL    HW171527   3.425   0.301   5.332 -0.0369  0.3321  0.6692
23362SOL    HW271528   3.552   0.304   5.250 -0.6792  0.7877 -0.3314
23363SOL     OW71529   4.017   1.016  12.360  0.0112  0.1707 -0.2762
23363SOL    HW171530   3.945   0.953  12.365  1.2619 -1.2380  3.3952
23363SOL    HW271531   3.973   1.102  12.361 -1.7423 -0.6419  2.0264
23364SOL     OW71532   1.723   0.829   3.525  0.0146 -0.6784 -0.2805
23364SOL    HW171533   1.785   0.880   3.577  0.0417 -1.5212  0.5336
23364SOL    HW271534   1.766   0.744   3.512  1.1875  0.2697 -3.9240
23365SOL     OW71535   2.341   6.741   0.233  0.5302  0.3667  0.2507
23365SOL    HW171536   2.363   6.711   0.145  1.4317  0.0146  0.5856
23365SOL    HW271537   2.335   6.660   0.285  0.5384  0.6032  0.6258
23366SOL     OW71538   4.664   5.626  10.632  0.0374 -0.5604  0.1286
23366SOL    HW171539   4.642   5.638  10.724  1.3011  3.0670  0.1100
23366SOL    HW271540   4.588   5.660  10.584  0.9486  1.4709 -0.0139
23367SOL     OW71541   5.142   0.857   2.307 -0.1642  0.5726 -0.3706
23367SOL    HW171542   5.215   0.824   2.255  0.1019  1.9275 -0.8958
23367SOL    HW271543   5.086   0.903   2.244 -2.4578 -1.9233 -0.3208
23368SOL     OW71544   5.939   3.096   9.203  0.1354 -0.4743 -0.2475
23368SOL    HW171545   5.924   3.173   9.259 -1.8884 -0.3755 -0.8477
23368SOL    HW271546   5.853   3.077   9.166  1.1583 -1.3770 -2.2647
23369SOL     OW71547   0.687   2.385  10.821 -0.5897 -0.7429 -0.5055
23369SOL    HW171548   0.674   2.419  10.732 -2.5657  1.7454  0.6200
23369SOL    HW271549   0.747   2.448  10.861  0.6404 -2.0945 -0.1474
23370SOL     OW71550   1.998   0.388  12.442 -0.4514 -0.3129 -0.1420
23370SOL    HW171551   1.925   0.358  12.388 -1.0527 -0.0681  0.5205
23370SOL    HW271552   2.040   0.308  12.473 -1.9471 -0.5240  1.4839
23371SOL     OW71553   6.206   3.000   1.255 -0.3252  0.6626 -0.6566
23371SOL    HW171554   6.242   2.915   1.229  0.4235  0.0099  2.1945
23371SOL    HW271555   6.127   3.011   1.202 -0.6946 -2.0320 -0.7673
23372SOL     OW71556   4.128   4.075   1.411 -0.3798  0.8649  0.6167
23372SOL    HW171557   4.124   4.100   1.318  0.2283 -0.4361  0.2088
23372SOL    HW271558   4.037   4.074   1.439 -0.8316 -1.0759 -0.6733
23373SOL     OW71559   5.472   4.806   3.340  0.2267  0.2234  0.1041
23373SOL    HW171560   5.563   4.828   3.320 -0.2827  2.6125  0.0273
23373SOL    HW271561   5.422   4.884   3.314 -1.7763 -0.7832  0.6902
23374SOL     OW71562   2.294   4.458  12.035  0.2138  0.1208  0.1644
23374SOL    HW171563   2.363   4.524  12.038 -0.8629  1.2978 -0.2889
23374SOL    HW271564   2.239   4.477  12.111 -0.1363 -0.2214 -0.0000
23375SOL     OW71565   5.217   7.359   1.214  0.1543 -0.1129 -0.3282
23375SOL    HW171566   5.306   7.394   1.225  0.8976 -2.0098  0.1142
23375SOL    HW271567   5.179   7.366   1.302 -0.7720  2.1570 -0.8327
23376SOL     OW71568   0.760   0.572   3.768 -0.0964 -0.2759  0.0320
23376SOL    HW171569   0.824   0.530   3.825  0.5140 -0.4425 -0.7562
23376SOL    HW271570   0.677   0.529   3.789  0.0402 -0.0692  1.0489
23377SOL     OW71571   1.460   4.116   0.444 -0.5815 -0.1383  0.2272
23377SOL    HW171572   1.486   4.103   0.353  1.3981 -0.0030  0.7164
23377SOL    HW271573   1.381   4.063   0.454  1.2831 -3.3649 -0.6120
23378SOL     OW71574   2.726   0.498   4.060  0.3839 -0.2748 -1.2679
23378SOL    HW171575   2.690   0.434   4.121 -0.2150 -0.8114 -2.1713
23378SOL    HW271576   2.804   0.457   4.025  0.4119 -0.1971 -1.2970
23379SOL     OW71577   0.868   3.069   1.924 -0.1878  0.6398 -0.5428
23379SOL    HW171578   0.948   3.100   1.880 -0.5827 -0.2341 -1.9326
23379SOL    HW271579   0.811   3.041   1.853 -0.2881 -2.2485  0.5497
23380SOL     OW71580   5.610   5.284   2.676 -0.4661  0.4311  0.2005
23380SOL    HW171581   5.570   5.348   2.618 -0.3539  0.4226  0.1131
23380SOL    HW271582   5.561   5.292   2.758 -1.2835 -0.2591 -0.2076
23381SOL     OW71583   3.556   4.738  10.854  0.4236 -0.4235 -0.1026
23381SOL    HW171584   3.568   4.781  10.769 -0.4558  0.0724  0.0083
23381SOL    HW271585   3.515   4.805  10.909  1.5453 -0.5488  0.9041
23382SOL     OW71586   4.884   6.652   3.664  0.7889 -0.0414 -0.5726
23382SOL    HW171587   4.971   6.630   3.632  1.2231  1.5343 -0.5446
23382SOL    HW271588   4.827   6.645   3.587  0.8515 -1.3202 -0.5391
23383SOL     OW71589   3.340   4.281   2.179  0.1751  0.1228  0.3688
23383SOL    HW171590   3.292   4.295   2.097  0.0065 -0.3879  0.3830
23383SOL    HW271591   3.423   4.328   2.166 -0.8563  2.2138  0.8716
23384SOL     OW71592   1.556   7.061   3.599 -0.1702  0.3423 -0.1130
23384SOL    HW171593   1.534   7.152   3.581  0.7436  0.3070 -1.5089
23384SOL    HW271594   1.499   7.010   3.541 -0.8746 -0.0264  0.8526
23385SOL     OW71595   7.062   1.323  10.799 -0.8588 -0.2799 -1.1241
23385SOL    HW171596   6.975   1.357  10.781 -0.4950  1.8382  0.6486
23385SOL    HW271597   7.064   1.310  10.893  1.1266  1.0861 -0.9126
23386SOL     OW71598   0.640   2.754   2.529 -0.1998  0.3858 -0.9454
23386SOL    HW171599   0.563   2.798   2.495 -0.3483 -0.3634 -1.5985
23386SOL    HW271600   0.695   2.738   2.452  0.0215 -0.2211 -0.6711
23387SOL     OW71601   5.335   2.853  11.285 -0.4157 -0.2024  0.5391
23387SOL    HW171602   5.384   2.770  11.282 -0.3881 -0.2005  0.8321
23387SOL    HW271603   5.339   2.887  11.196 -1.0473 -0.8796  0.2326
23388SOL     OW71604   4.946   5.500   6.015  0.0138  0.2593  0.1380
23388SOL    HW171605   4.936   5.457   5.930 -1.4523  1.5865 -0.4233
23388SOL    HW271606   4.867   5.477   6.063 -1.1133  2.6733 -0.4018
23389SOL     OW71607   0.219   6.238   8.640 -0.3352  0.1536  0.8452
23389SOL    HW171608   0.152   6.277   8.695 -1.5181 -0.3007 -0.2203
23389SOL    HW271609   0.173   6.212   8.560  1.0579 -0.4062  0.1785
23390SOL     OW71610   0.989   7.649   3.342 -0.1797  0.1448 -0.1354
23390SOL    HW171611   0.909   7.595   3.347 -0.4769  0.4516 -1.2826
23390SOL    HW271612   1.006   7.657   3.248  1.8230 -0.8058  0.0958
23391SOL     OW71613   6.409   2.621   1.298  0.1492  0.2297  0.7486
23391SOL    HW171614   6.499   2.646   1.317  0.3974 -0.1757  0.1297
23391SOL    HW271615   6.358   2.656   1.371  0.8120  0.4213  1.1213
23392SOL     OW71616   5.290   1.275   8.845  0.3352  0.2794  0.1678
23392SOL    HW171617   5.267   1.348   8.903 -0.7668 -1.3606  1.9477
23392SOL    HW271618   5.205   1.242   8.814  0.8866  0.7678 -2.0200
23393SOL     OW71619   5.505   5.602  11.639  0.0956  0.1216  0.1879
23393SOL    HW171620   5.500   5.596  11.544  1.3186 -1.1661  0.1635
23393SOL    HW271621   5.584   5.552  11.662 -0.4875 -0.0742  1.9258
23394SOL     OW71622   1.023   6.880   0.570 -0.2834 -0.5027 -0.0032
23394SOL    HW171623   1.038   6.952   0.632  0.6430  0.2510 -1.0725
23394SOL    HW271624   0.934   6.895   0.537 -0.5205 -0.5120  0.6123
23395SOL     OW71625   4.491   1.992   5.887  0.1095  0.0673 -0.1236
23395SOL    HW171626   4.509   2.066   5.828 -2.4129  1.0263  0.1773
23395SOL    HW271627   4.532   2.018   5.970 -0.3897  0.9527 -0.1395
23396SOL     OW71628   7.232   0.186  10.845 -0.2794 -0.1494  0.2042
23396SOL    HW171629   7.143   0.199  10.877 -1.1220  1.2764 -2.4140
23396SOL    HW271630   7.238   0.093  10.825 -1.1700 -0.2583  0.4182
23397SOL     OW71631   7.759   3.331  10.624  0.3902 -0.0711 -0.3509
23397SOL    HW171632   7.782   3.320  10.532  4.3338  0.7159  0.3757
23397SOL    HW271633   7.682   3.388  10.623  0.3398 -0.0769 -3.1411
23398SOL     OW71634   0.145   6.999   1.634 -0.3938  0.1155 -0.1710
23398SOL    HW171635   0.207   7.034   1.571 -2.2660  2.4963 -0.8297
23398SOL    HW271636   0.083   6.948   1.582 -0.6995  0.2768  0.0261
23399SOL     OW71637   5.403   5.776   4.239  0.4234  0.5514  0.1173
23399SOL    HW171638   5.391   5.863   4.201  2.0324  0.4254 -0.7879
23399SOL    HW271639   5.320   5.731   4.222 -0.6669  2.0794  1.1725
23400SOL     OW71640   1.122   4.157   8.267 -0.4108 -0.1532  0.0868
23400SOL    HW171641   1.213   4.153   8.238 -0.3704 -0.6813  0.2783
23400SOL    HW271642   1.102   4.251   8.267  0.0531 -0.0468 -0.1930
23401SOL     OW71643   6.505   6.928   1.118  0.2121  0.0789  0.8371
23401SOL    HW171644   6.548   7.012   1.127 -0.6138  0.4444  1.4385
23401SOL    HW271645   6.577   6.865   1.107  0.8199  0.8758  0.1439
23402SOL     OW71646   2.858   4.604   0.173  0.1071  0.0508  0.3087
23402SOL    HW171647   2.905   4.670   0.122 -0.7531 -0.4390 -1.1800
23402SOL    HW271648   2.836   4.648   0.255  2.1153  0.6520  0.5895
23403SOL     OW71649   6.766   6.041   0.203 -0.4341  0.0688 -0.1460
23403SOL    HW171650   6.810   6.023   0.120  1.4904 -0.4058  0.9278
23403SOL    HW271651   6.708   5.966   0.216 -0.9011  0.2356 -1.1231
23404SOL     OW71652   1.225   4.126   2.116  0.2621  0.1254 -0.1891
23404SOL    HW171653   1.151   4.156   2.168 -0.0093 -0.2676 -0.3455
23404SOL    HW271654   1.239   4.196   2.052 -1.2781 -0.6813 -1.4737
23405SOL     OW71655   6.152   5.223   1.561  0.2084 -0.2547 -0.2512
23405SOL    HW171656   6.127   5.175   1.483  0.9858  0.8765 -1.2414
23405SOL    HW271657   6.091   5.297   1.564 -0.5865 -0.9297  0.9067
23406SOL     OW71658   0.281   3.493   1.849  0.6334  0.1095  0.3563
23406SOL    HW171659   0.295   3.526   1.760  0.9450  0.1701  0.4284
23406SOL    HW271660   0.363   3.452   1.873  0.6163  0.2667  0.6910
23407SOL     OW71661   6.045   1.220   2.549 -0.0718 -0.4459 -0.6165
23407SOL    HW171662   6.091   1.236   2.632 -2.5019  2.9615  0.2460
23407SOL    HW271663   6.074   1.291   2.492 -0.5117 -1.1828 -1.7809
23408SOL     OW71664   1.767   3.622   3.667  0.2447 -0.1006  0.1712
23408SOL    HW171665   1.756   3.673   3.746  2.0678  0.4520  0.1130
23408SOL    HW271666   1.805   3.539   3.697 -0.0903 -0.3303 -0.0271
23409SOL     OW71667   4.592   7.321   7.139  0.0663  0.2708  0.5946
23409SOL    HW171668   4.636   7.274   7.211 -1.0687 -0.5957  0.7472
23409SOL    HW271669   4.500   7.322   7.163 -0.1470  1.1928 -0.2018
23410SOL     OW71670   7.141   2.725  11.459  0.2761  0.1771 -0.1197
23410SOL    HW171671   7.055   2.690  11.482  0.3031 -0.6979 -1.2785
23410SOL    HW271672   7.131   2.755  11.369  1.5141 -1.0603 -0.6897
23411SOL     OW71673   2.123   0.561   4.143  0.3251 -0.2820 -0.2026
23411SOL    HW171674   2.193   0.515   4.190  1.5702  1.8030  0.1208
23411SOL    HW271675   2.043   0.518   4.172  1.2811 -1.0746  1.4567
23412SOL     OW71676   4.570   0.113   1.100 -0.4807 -0.4511 -0.3551
23412SOL    HW171677   4.627   0.111   1.023  0.6200 -2.4204  0.4519
23412SOL    HW271678   4.628   0.136   1.173 -0.8107 -1.7528  0.3614
23413SOL     OW71679   1.546   0.431   5.464  0.7775  0.2005 -0.6882
23413SOL    HW171680   1.616   0.427   5.528 -0.3973 -1.0942  0.5912
23413SOL    HW271681   1.535   0.341   5.434 -0.6358  0.2772 -0.4926
23414SOL     OW71682   2.058   1.482   2.650  0.3650  0.3701 -0.3072
23414SOL    HW171683   2.099   1.437   2.724 -0.1775 -0.5707 -0.5489
23414SOL    HW271684   1.964   1.474   2.666  0.2468  2.5446  0.2674
23415SOL     OW71685   0.089   1.330   6.879  0.4427 -0.1665 -0.4226
23415SOL    HW171686   0.164   1.272   6.869 -1.0151 -1.9554 -1.6958
23415SOL    HW271687   0.045   1.299   6.958  0.5421  0.2792 -0.1900
23416SOL     OW71688   0.837   5.589   0.922 -0.1677  0.1796  0.0855
23416SOL    HW171689   0.785   5.582   1.002 -0.6160 -2.4809 -0.3415
23416SOL    HW271690   0.775   5.619   0.856 -0.5836 -0.5921  0.1119
23417SOL     OW71691   7.525   1.341  11.714 -0.2756  0.3421  0.4785
23417SOL    HW171692   7.620   1.348  11.703 -0.0503 -1.6271  0.7447
23417SOL    HW271693   7.489   1.412  11.662  1.3884  2.4420  2.0058
23418SOL     OW71694   3.856   4.553   9.434  0.2450  0.2115 -0.5558
23418SOL    HW171695   3.919   4.482   9.431 -0.4702 -0.4258 -0.8423
23418SOL    HW271696   3.781   4.521   9.384  0.0434  1.2953 -0.9797
23419SOL     OW71697   4.726   3.289   5.260 -0.0773 -0.4393 -0.3724
23419SOL    HW171698   4.708   3.300   5.353  0.0751  1.3472 -0.5201
23419SOL    HW271699   4.820   3.271   5.255  0.1432  0.6206 -0.2353
23420SOL     OW71700   4.950   5.475   7.207  0.1683 -0.0621  0.1708
23420SOL    HW171701   4.955   5.410   7.277 -0.6639 -0.5273 -0.1977
23420SOL    HW271702   4.887   5.440   7.145  0.6772  0.4881 -0.6804
23421SOL     OW71703   4.977   2.200   7.282 -0.4152  0.1691 -0.0617
23421SOL    HW171704   5.035   2.144   7.333 -1.6822  0.0015  1.2591
23421SOL    HW271705   4.940   2.260   7.345 -1.1768  0.7054 -0.9932
23422SOL     OW71706   6.042   0.567   7.579 -0.7235 -0.1360 -0.0079
23422SOL    HW171707   6.050   0.521   7.496 -1.0636 -0.7619  0.3026
23422SOL    HW271708   6.021   0.499   7.643 -0.3357  0.3201  0.6162
23423SOL     OW71709   0.408   4.453   0.923  0.0440  0.2954 -0.3638
23423SOL    HW171710   0.431   4.392   0.853  2.1914  1.3496 -0.6570
23423SOL    HW271711   0.440   4.411   1.002 -0.0811  0.2632 -0.3290
23424SOL     OW71712   7.059   6.531   6.993  0.1091 -0.3717  0.2891
23424SOL    HW171713   7.029   6.620   6.975  0.4638 -0.6284 -1.8165
23424SOL    HW271714   7.030   6.480   6.918  3.8321 -1.0531 -0.9061
23425SOL     OW71715   4.324   3.535   1.961 -0.2018  0.3512 -0.0824
23425SOL    HW171716   4.309   3.560   1.870  0.4651  1.2689  0.0456
23425SOL    HW271717   4.237   3.514   1.995 -0.6968  1.7426 -0.4338
23426SOL     OW71718   6.713   3.205   8.580 -0.0780  0.0676  0.2032
23426SOL    HW171719   6.720   3.136   8.513 -0.2047  0.3924 -0.1510
23426SOL    HW271720   6.767   3.276   8.545 -1.1256  0.7054 -0.1492
23427SOL     OW71721   3.229   6.321  10.801 -0.0764 -0.1402  0.0468
23427SOL    HW171722   3.213   6.308  10.707  1.9454 -0.3929 -0.2980
23427SOL    HW271723   3.235   6.233  10.837  2.3780 -0.1254 -0.2154
23428SOL     OW71724   5.845   1.994  11.658 -0.5229  0.5582 -0.0401
23428SOL    HW171725   5.816   1.953  11.740  2.1561 -0.0216  0.7462
23428SOL    HW271726   5.875   1.920  11.604 -3.5018  0.7800 -2.2231
23429SOL     OW71727   5.131   1.781   9.062  0.0845 -0.3005  0.2313
23429SOL    HW171728   5.137   1.710   9.125 -2.0685  0.4678  1.4260
23429SOL    HW271729   5.043   1.772   9.024 -0.0215  1.3592 -0.0083
23430SOL     OW71730   2.338   6.607   6.915 -0.4767  0.6935  0.5096
23430SOL    HW171731   2.244   6.602   6.935 -0.6682 -0.9970 -0.5763
23430SOL    HW271732   2.351   6.540   6.847  1.9265 -0.6153  2.1390
23431SOL     OW71733   2.894   6.692   0.189 -0.0496 -0.2581  0.6608
23431SOL    HW171734   2.883   6.671   0.096 -0.9120  1.7073  0.2674
23431SOL    HW271735   2.821   6.648   0.232  1.0779 -2.2626  0.6536
23432SOL     OW71736   7.366   2.892   4.706  0.3176  0.1959 -0.9402
23432SOL    HW171737   7.277   2.857   4.695 -0.2187  1.7557 -1.9350
23432SOL    HW271738   7.377   2.951   4.632  2.2292 -0.0141 -0.8559
23433SOL     OW71739   6.068   6.938   2.240 -0.7559 -0.1114  0.8148
23433SOL    HW171740   6.149   6.926   2.189  1.4417 -2.3978  4.4293
23433SOL    HW271741   6.063   7.033   2.254  1.3972  0.0984  0.5801
23434SOL     OW71742   6.501   0.595  10.902 -0.4241 -0.4339  0.2371
23434SOL    HW171743   6.442   0.536  10.949 -0.1482 -0.1115  1.0032
23434SOL    HW271744   6.501   0.675  10.955 -1.0875  0.3977 -0.9718
23435SOL     OW71745   4.418   3.054   0.319  0.4542  0.3083 -0.4552
23435SOL    HW171746   4.467   3.010   0.249  1.0292  1.3279 -0.7116
23435SOL    HW271747   4.337   3.082   0.276 -0.2961 -1.1894 -0.0845
23436SOL     OW71748   3.504   3.853   7.078  0.6084 -0.4990  0.6372
23436SOL    HW171749   3.529   3.770   7.037 -0.7246 -0.0476 -1.1859
23436SOL    HW271750   3.489   3.830   7.170 -0.8089 -2.5555 -0.0266
23437SOL     OW71751   0.516   4.484  10.695  0.1111  0.3025  0.0591
23437SOL    HW171752   0.540   4.396  10.668  0.8965  1.0899 -2.1238
23437SOL    HW271753   0.422   4.490  10.677  0.3669  0.3787 -1.4668
23438SOL     OW71754   7.572   0.300   3.952  0.3681 -0.1981  0.3781
23438SOL    HW171755   7.479   0.310   3.934  0.5275 -0.1141 -0.4803
23438SOL    HW271756   7.615   0.326   3.870  1.1007 -1.1069  0.4489
23439SOL     OW71757   2.096   4.508  10.559 -0.2624  0.4559  0.5109
23439SOL    HW171758   2.117   4.506  10.653  1.1668  0.8837  0.2341
23439SOL    HW271759   2.103   4.600  10.535  2.3268  0.0819 -0.5704
23440SOL     OW71760   3.768   5.332   4.253 -0.1003 -0.1585  0.1372
23440SOL    HW171761   3.707   5.384   4.201 -0.3514 -0.2601  0.3334
23440SOL    HW271762   3.735   5.243   4.248  0.0632 -0.2241  0.1982
23441SOL     OW71763   0.991   7.683   1.946  0.0775 -0.0623 -0.6159
23441SOL    HW171764   0.957   7.768   1.973 -0.6519 -0.1563 -1.2110
23441SOL    HW271765   1.001   7.690   1.851  2.4132  0.1935 -0.4071
23442SOL     OW71766   4.816   4.489  10.281  0.0355 -0.2868  0.6334
23442SOL    HW171767   4.758   4.503  10.356  1.3191  1.4910  1.3740
23442SOL    HW271768   4.784   4.550  10.214  0.7375  0.3648  0.8787
23443SOL     OW71769   0.684   2.663   8.457 -0.6567  0.5774 -0.0431
23443SOL    HW171770   0.688   2.622   8.543  1.1820  0.8284  0.0455
23443SOL    HW271771   0.672   2.756   8.475 -1.4703  0.4928 -0.1176
23444SOL     OW71772   0.781   2.856   4.244  0.7451  0.0646  0.0955
23444SOL    HW171773   0.759   2.762   4.245  0.2991  0.1618 -0.0444
23444SOL    HW271774   0.853   2.865   4.305 -0.7169 -0.0145  1.9230
23445SOL     OW71775   2.760   1.934   6.148  0.1255  0.1022 -0.7287
23445SOL    HW171776   2.748   1.848   6.108  1.2468  0.9707 -3.1358
23445SOL    HW271777   2.850   1.958   6.126  0.4772  1.1028  1.5807
23446SOL     OW71778   6.904   7.031  11.496 -0.7116  0.1678  0.3059
23446SOL    HW171779   6.975   7.037  11.432 -0.2145  0.0751  0.8365
23446SOL    HW271780   6.920   7.104  11.556 -0.5082 -0.4110  0.9730
23447SOL     OW71781   7.557   6.118  10.857 -0.0172  0.1824  0.4073
23447SOL    HW171782   7.471   6.077  10.849  0.0289  0.1225  0.2187
23447SOL    HW271783   7.591   6.085  10.939  0.4243 -0.9154 -0.2043
23448SOL     OW71784   2.358   0.705   6.435 -0.1043  0.1707 -0.1119
23448SOL    HW171785   2.316   0.629   6.475  1.2613  0.7447  2.6519
23448SOL    HW271786   2.291   0.773   6.436 -1.1508 -0.7307 -2.0876
23449SOL     OW71787   5.654   3.354   3.461  0.2701 -0.0915  0.1505
23449SOL    HW171788   5.652   3.259   3.467 -0.2473 -0.0234  1.3997
23449SOL    HW271789   5.688   3.382   3.546 -0.2569  0.8504  0.0625
23450SOL     OW71790   6.935   0.848   4.630 -0.3960 -0.5028  0.5481
23450SOL    HW171791   6.943   0.773   4.690  2.2720 -0.5796  0.1952
23450SOL    HW271792   7.025   0.878   4.616 -0.6340 -1.3103 -4.4701
23451SOL     OW71793   7.119   6.124   1.087  0.1971 -0.2753  0.5421
23451SOL    HW171794   7.050   6.128   1.154 -0.7201 -2.5512 -0.1774
23451SOL    HW271795   7.075   6.088   1.010  1.1782  2.4216 -1.4482
23452SOL     OW71796   1.319   0.555   4.261 -0.3513 -0.0709 -0.0555
23452SOL    HW171797   1.320   0.651   4.265 -2.2935 -0.0194  0.1923
23452SOL    HW271798   1.399   0.529   4.305 -0.0246  1.4337  0.3118
23453SOL     OW71799   1.918   7.643   1.814 -0.5340 -0.3774  0.1225
23453SOL    HW171800   1.826   7.663   1.794  0.1733  0.9654 -2.1569
23453SOL    HW271801   1.958   7.728   1.829  0.4198 -0.9278  0.7746
23454SOL     OW71802   4.702   4.779   5.940 -0.5259  0.2510  0.2890
23454SOL    HW171803   4.688   4.739   5.854  0.8632 -0.4319  0.3571
23454SOL    HW271804   4.795   4.799   5.943 -0.9364  2.4294  0.7511
23455SOL     OW71805   7.158   1.695   0.951 -0.2283  0.4429 -0.0871
23455SOL    HW171806   7.188   1.653   0.871 -1.5384 -1.5347  0.3747
23455SOL    HW271807   7.152   1.788   0.929  0.7441  0.1262 -1.8414
23456SOL     OW71808   3.092   3.136   2.209  0.1417  0.5286  0.1884
23456SOL    HW171809   3.142   3.061   2.177 -1.4430 -0.6816  0.3736
23456SOL    HW271810   3.101   3.132   2.305  1.8365  1.9302  0.1389
23457SOL     OW71811   3.624   0.198   2.976  0.3389 -0.0172 -0.1885
23457SOL    HW171812   3.691   0.164   2.916 -0.5481 -1.3528 -0.4865
23457SOL    HW271813   3.551   0.136   2.967 -0.0155  0.0256  1.9199
23458SOL     OW71814   0.179   5.103   7.764 -0.5411  0.5131  0.4154
23458SOL    HW171815   0.226   5.144   7.692  0.3147 -0.7797  0.2017
23458SOL    HW271816   0.121   5.040   7.722 -1.0014  0.6756  0.7980
23459SOL     OW71817   0.585   5.797   3.582  0.1359  0.4505  0.0545
23459SOL    HW171818   0.550   5.776   3.495 -0.7592  2.6807 -0.2009
23459SOL    HW271819   0.674   5.761   3.582  0.0971  0.2688 -1.7482
23460SOL     OW71820   7.006   6.934  11.953  0.2112 -0.2984  0.1391
23460SOL    HW171821   6.967   6.907  12.036 -1.1241  0.2575 -0.2793
23460SOL    HW271822   7.001   7.030  11.955  0.3320 -0.2799 -0.4994
23461SOL     OW71823   7.662   7.608   2.653 -0.0957  0.1814  0.1267
23461SOL    HW171824   7.746   7.569   2.629  0.4227  0.8873  0.7608
23461SOL    HW271825   7.621   7.544   2.710 -0.3954 -0.5616 -0.8928
23462SOL     OW71826   0.120   1.466   9.367 -0.1469 -0.4768  0.1721
23462SOL    HW171827   0.132   1.486   9.460 -0.0100 -1.0495  0.2812
23462SOL    HW271828   0.025   1.459   9.356 -0.2458  0.8258 -0.0057
23463SOL     OW71829   6.910   1.421   3.931  0.3698  0.8754  0.1461
23463SOL    HW171830   6.994   1.459   3.905  0.2788  1.2142  0.3415
23463SOL    HW271831   6.844   1.478   3.890  0.2283  1.2880  0.9226
23464SOL     OW71832   0.586   1.773   1.483  0.1840  0.4352  0.7838
23464SOL    HW171833   0.551   1.685   1.469  0.1211  0.5438  0.2354
23464SOL    HW271834   0.523   1.815   1.541 -0.6381  0.6483 -0.2388
23465SOL     OW71835   3.388   2.341   2.442  0.2442  0.3260  0.2926
23465SOL    HW171836   3.373   2.252   2.409 -0.6238  0.6727 -0.2795
23465SOL    HW271837   3.301   2.374   2.466  0.4388  1.3005 -0.2634
23466SOL     OW71838   1.239   7.761   0.257 -0.0878  0.5456  0.0977
23466SOL    HW171839   1.303   7.747   0.188 -0.4090  0.8870 -0.2798
23466SOL    HW271840   1.270   7.839   0.304  1.1322 -0.7344  1.5331
23467SOL     OW71841   2.259   3.271   1.796  0.0777  0.1250  0.4842
23467SOL    HW171842   2.201   3.337   1.758  0.1466 -0.7761 -1.3211
23467SOL    HW271843   2.201   3.215   1.849 -0.6633 -0.4676 -0.8950
23468SOL     OW71844   5.995   4.802   4.150 -0.2936 -0.4201  0.4411
23468SOL    HW171845   6.078   4.757   4.161 -0.4104 -0.8824 -0.4989
23468SOL    HW271846   5.971   4.830   4.239  0.8680 -0.2467  0.7109
23469SOL     OW71847   2.506   1.629   7.268  0.3531 -0.2427 -0.4852
23469SOL    HW171848   2.428   1.664   7.311 -1.4895 -1.7849 -2.3820
23469SOL    HW271849   2.577   1.686   7.298 -1.2428  0.5164  2.2656
23470SOL     OW71850   7.911   2.916   6.118  0.0502 -0.2083  0.1958
23470SOL    HW171851   7.955   2.862   6.052 -0.5530 -2.4672  1.5453
23470SOL    HW271852   7.836   2.954   6.072  0.5695 -0.3895 -0.8229
23471SOL     OW71853   1.534   5.809  11.420 -0.2752 -0.1461 -0.0232
23471SOL    HW171854   1.583   5.870  11.366  1.0300 -0.4383  0.7729
23471SOL    HW271855   1.463   5.778  11.364 -0.5532  1.5611 -0.6614
23472SOL     OW71856   7.798   0.215   0.123 -0.0588  0.2183 -0.4600
23472SOL    HW171857   7.735   0.184   0.188  2.6464 -0.4167  2.0752
23472SOL    HW271858   7.815   0.139   0.067 -1.3700  0.3613 -1.0845
23473SOL     OW71859   2.193   0.843   7.266 -0.2898 -0.3849  0.3465
23473SOL    HW171860   2.205   0.752   7.240 -0.1178  0.0635 -1.2301
23473SOL    HW271861   2.228   0.894   7.193 -0.1869  0.9575  1.2897
23474SOL     OW71862   3.432   6.262   7.820 -0.5337 -0.3031 -0.2590
23474SOL    HW171863   3.343   6.274   7.854 -0.6286  0.2435 -0.6992
23474SOL    HW271864   3.422   6.196   7.752 -1.1166  1.7695 -2.2996
23475SOL     OW71865   1.254   0.223   5.861 -0.0512  0.7974 -0.1178
23475SOL    HW171866   1.202   0.268   5.794 -1.9980  0.4530  1.0829
23475SOL    HW271867   1.275   0.291   5.924  0.0355  0.7121 -0.0551
23476SOL     OW71868   2.401   6.569  12.157 -0.2407  0.0058 -0.1247
23476SOL    HW171869   2.484   6.553  12.112  0.4912  1.0718  0.7871
23476SOL    HW271870   2.336   6.577  12.087  0.1233 -2.2389 -0.8098
23477SOL     OW71871   0.017   0.917   0.985 -0.3985 -0.3276  0.3967
23477SOL    HW171872  -0.028   1.000   0.968 -0.5346 -0.7287 -1.3385
23477SOL    HW271873   0.107   0.941   1.005 -0.3488  0.2253 -0.4703
23478SOL     OW71874   5.271   3.269   2.403 -0.7366  0.1328  0.3060
23478SOL    HW171875   5.297   3.234   2.318 -1.3924  1.8776 -0.6676
23478SOL    HW271876   5.350   3.310   2.438 -1.0006  1.5063 -0.6048
23479SOL     OW71877   0.062   2.342  10.658 -0.3242 -0.1072 -0.4821
23479SOL    HW171878   0.087   2.269  10.714  0.9602  0.7703  0.1129
23479SOL    HW271879   0.114   2.416  10.689  0.0467  0.5335 -2.4893
23480SOL     OW71880   0.715   2.310   3.608 -0.0982  0.2196  0.7368
23480SOL    HW171881   0.765   2.261   3.673  0.0566  1.9339  1.9800
23480SOL    HW271882   0.781   2.357   3.557 -0.2374 -0.8781 -0.5345
23481SOL     OW71883   1.220   2.806   7.256  0.4159 -1.1345 -0.3112
23481SOL    HW171884   1.202   2.892   7.218 -0.7125 -1.0080  0.4628
23481SOL    HW271885   1.245   2.752   7.182  3.2279  0.3525 -0.5684
23482SOL     OW71886   3.620   6.662   9.269 -0.2284  0.1679  0.6398
23482SOL    HW171887   3.563   6.674   9.193  0.0666 -0.1570  0.3664
23482SOL    HW271888   3.675   6.741   9.270  1.8263 -1.1291 -1.2554
23483SOL     OW71889   3.649   1.685   2.029  0.2328 -0.4073  0.0741
23483SOL    HW171890   3.649   1.717   1.938 -1.0004 -0.3843  0.0568
23483SOL    HW271891   3.688   1.756   2.079 -1.6247  0.8297 -0.0899
23484SOL     OW71892   1.015   2.599   1.956  0.0045 -0.0060  0.7670
23484SOL    HW171893   1.038   2.690   1.939  0.6571 -0.1703  0.7329
23484SOL    HW271894   1.099   2.556   1.973 -0.2195 -0.7583  0.0386
23485SOL     OW71895   2.891   1.640   2.830 -0.2455  0.0365 -0.1291
23485SOL    HW171896   2.964   1.625   2.890 -0.3538  0.0782  0.0136
23485SOL    HW271897   2.924   1.705   2.768  0.1814 -0.6781 -0.6701
23486SOL     OW71898   4.097   3.656   2.236  0.2304 -0.0821  0.4473
23486SOL    HW171899   4.049   3.585   2.278  0.9958  0.1725  1.7968
23486SOL    HW271900   4.048   3.673   2.155 -0.7665 -1.1810  0.7885
23487SOL     OW71901   7.587   3.148   6.218 -0.5416 -0.5027  0.0390
23487SOL    HW171902   7.525   3.219   6.229 -1.8783 -1.8749  2.1680
23487SOL    HW271903   7.658   3.168   6.279 -0.4130 -0.4694 -0.1227
23488SOL     OW71904   0.904   0.749   7.693 -0.0796  0.1372 -0.4486
23488SOL    HW171905   0.832   0.804   7.663  0.5024  0.2694 -1.6708
23488SOL    HW271906   0.866   0.695   7.763 -1.0972  0.8858 -0.4049
23489SOL     OW71907   4.465   1.573   1.967  0.4850 -0.0722 -0.3595
23489SOL    HW171908   4.438   1.501   1.911 -0.9365 -0.9730  1.3832
23489SOL    HW271909   4.540   1.538   2.016  0.7238  0.1574 -0.5585
23490SOL     OW71910   6.882   4.509   5.620 -0.1439 -0.2795 -0.0493
23490SOL    HW171911   6.854   4.424   5.653  0.0748 -0.1822  0.3852
23490SOL    HW271912   6.946   4.540   5.683  0.7133 -0.3450 -0.8579
23491SOL     OW71913   1.463   0.441  10.206  0.0300 -0.0794  0.5801
23491SOL    HW171914   1.489   0.533  10.211  0.1977 -0.1954  3.1789
23491SOL    HW271915   1.546   0.393  10.211 -0.1307 -0.3881  0.2839
23492SOL     OW71916   5.281   7.601   5.999 -0.5786  0.3009  0.2575
23492SOL    HW171917   5.295   7.690   5.966 -0.6287  0.3503  0.3681
23492SOL    HW271918   5.342   7.594   6.073 -0.5464  0.2298  0.2247
23493SOL     OW71919   2.764   1.082   8.937 -0.4498  0.2866  0.2448
23493SOL    HW171920   2.672   1.080   8.965 -1.0221 -1.3509 -1.5014
23493SOL    HW271921   2.797   0.994   8.957  0.3442  0.4479 -0.3100
23494SOL     OW71922   1.555   0.824   4.301  0.2108  0.7265  0.0396
23494SOL    HW171923   1.568   0.878   4.222 -1.0044 -0.7831 -1.2679
23494SOL    HW271924   1.460   0.822   4.313  0.3667  0.7186  1.4345
23495SOL     OW71925   1.795   1.190   1.228 -0.1000 -0.0464 -0.1758
23495SOL    HW171926   1.853   1.249   1.180  0.1383 -0.8030 -0.8323
23495SOL    HW271927   1.749   1.247   1.290  0.9908  0.6364  0.0300
23496SOL     OW71928   2.810   6.414   4.478  0.4063 -0.0174  0.2113
23496SOL    HW171929   2.831   6.328   4.514 -2.0183 -0.2616  1.2625
23496SOL    HW271930   2.781   6.396   4.389  1.7005 -0.0302 -0.2206
23497SOL     OW71931   0.260   5.719   2.709 -0.1111  0.1519  0.0653
23497SOL    HW171932   0.212   5.681   2.635  1.0074  0.3803 -0.8051
23497SOL    HW271933   0.281   5.645   2.765  1.2587 -0.4523 -1.1655
23498SOL     OW71934   1.891   3.220  11.342 -0.2940  0.3920  0.1937
23498SOL    HW171935   1.987   3.216  11.341 -0.3289 -1.3048  0.1978
23498SOL    HW271936   1.864   3.129  11.334 -1.9409  0.9820 -1.8401
23499SOL     OW71937   1.590   3.265   9.296  0.5168  0.2352 -0.0964
23499SOL    HW171938   1.499   3.249   9.318  0.1858  1.6776 -0.2914
23499SOL    HW271939   1.590   3.278   9.201  0.9112  0.3025 -0.0905
23500SOL     OW71940   3.583   6.719  11.563  0.2968 -0.6453  0.1821
23500SOL    HW171941   3.578   6.809  11.534  1.7061 -0.6903 -0.2523
23500SOL    HW271942   3.492   6.688  11.562  0.0356  0.0760 -1.8226
23501SOL     OW71943   5.957   2.940   6.426 -0.1485  0.1917 -0.1836
23501SOL    HW171944   6.009   3.020   6.428  1.2672 -0.6871  1.0343
23501SOL    HW271945   5.887   2.955   6.490 -1.1758  1.2071 -1.4904
23502SOL     OW71946   0.655   3.934   1.065  0.5458 -0.1160 -0.2112
23502SOL    HW171947   0.659   4.019   1.022  0.4078 -0.2890 -0.5690
23502SOL    HW271948   0.687   3.950   1.154 -0.2785  0.4756 -0.0173
23503SOL     OW71949   0.565   0.138  12.247  0.0335 -0.5020  0.3923
23503SOL    HW171950   0.657   0.112  12.252  0.4993  0.7450 -0.8668
23503SOL    HW271951   0.549   0.152  12.154 -2.3072 -3.5006  0.2258
23504SOL     OW71952   5.905   0.202   1.112  0.0856  0.3158 -0.0358
23504SOL    HW171953   5.857   0.244   1.183 -0.9713  0.1198 -0.6115
23504SOL    HW271954   5.852   0.126   1.088  0.6670  0.1045 -0.7167
23505SOL     OW71955   7.330   0.761   5.014  0.4176 -0.1081 -0.0227
23505SOL    HW171956   7.349   0.781   5.106  0.6797  0.9067 -0.2932
23505SOL    HW271957   7.340   0.844   4.968  1.0767 -0.7677 -1.1069
23506SOL     OW71958   4.751   3.646   9.768 -0.2661 -0.1148 -0.2611
23506SOL    HW171959   4.676   3.682   9.720  1.1317  1.7731 -1.1829
23506SOL    HW271960   4.806   3.722   9.786  0.8704 -1.2713  1.4665
23507SOL     OW71961   1.441   7.700   4.522  0.5674  0.3166  0.1115
23507SOL    HW171962   1.372   7.750   4.565  0.1443 -1.4512  1.6070
23507SOL    HW271963   1.518   7.712   4.577  0.9649  0.7699 -0.5265
23508SOL     OW71964   2.636   2.926  12.224  0.3228  0.5256 -0.2894
23508SOL    HW171965   2.632   2.831  12.231 -4.4846  0.3805 -1.3777
23508SOL    HW271966   2.684   2.943  12.143  2.2032 -0.7756  0.4745
23509SOL     OW71967   5.883   1.965  12.128  0.0089 -0.8322  0.5944
23509SOL    HW171968   5.813   1.997  12.183 -0.5901 -1.6300  0.3190
23509SOL    HW271969   5.945   2.038  12.121 -0.3095 -0.4588  1.6355
23510SOL     OW71970   4.332   6.583   2.387  0.3047 -0.3301 -0.1289
23510SOL    HW171971   4.319   6.605   2.295  0.0653  1.4123  0.2895
23510SOL    HW271972   4.427   6.586   2.399  0.4375 -1.8828 -0.5975
23511SOL     OW71973   5.701   5.678   0.344 -0.1323  0.5087 -0.2469
23511SOL    HW171974   5.648   5.756   0.361 -0.2824  0.4341 -0.3697
23511SOL    HW271975   5.767   5.678   0.413 -0.8896  0.0715  0.4906
23512SOL     OW71976   5.742   0.894   9.060 -0.2057  0.2043 -0.0508
23512SOL    HW171977   5.653   0.913   9.088 -0.4968 -0.2512 -0.6357
23512SOL    HW271978   5.789   0.871   9.140 -0.6314  0.3698  0.2482
23513SOL     OW71979   7.848   3.659   5.703 -0.1491  0.0419  0.0494
23513SOL    HW171980   7.840   3.707   5.621 -0.2198  1.5589  0.9018
23513SOL    HW271981   7.828   3.568   5.680  0.8019  0.2504 -1.7813
23514SOL     OW71982   5.683   3.569   7.724  0.3965 -0.2219  0.3334
23514SOL    HW171983   5.642   3.547   7.808  2.6420  1.1788  1.9377
23514SOL    HW271984   5.699   3.485   7.682 -1.3905 -0.9229  0.9746
23515SOL     OW71985   5.032   7.145   9.927  0.1233 -0.6143 -0.4120
23515SOL    HW171986   5.077   7.074   9.972  1.3566 -1.4115 -2.7041
23515SOL    HW271987   5.091   7.220   9.933 -0.0367 -0.5118 -0.1086
23516SOL     OW71988   0.428   7.570   5.314 -0.1905 -0.2005 -0.5468
23516SOL    HW171989   0.348   7.528   5.280 -1.6188  0.1833  2.0661
23516SOL    HW271990   0.402   7.605   5.399  2.8388 -0.1660  0.4827
23517SOL     OW71991   5.227   4.993   7.639  0.3976  0.2072  0.2061
23517SOL    HW171992   5.302   4.949   7.679  0.1827  0.8018  1.2743
23517SOL    HW271993   5.234   4.970   7.546  1.1558 -0.8153  0.4946
23518SOL     OW71994   3.203   1.569   0.303 -0.0569  0.1000  0.3219
23518SOL    HW171995   3.123   1.620   0.313 -0.7988 -1.0578  0.4526
23518SOL    HW271996   3.233   1.553   0.392 -0.0198  0.0087  0.2929
23519SOL     OW71997   5.326   4.743   3.838 -0.0556 -0.2810 -0.3106
23519SOL    HW171998   5.375   4.681   3.784 -0.1966  0.3112 -1.1365
23519SOL    HW271999   5.236   4.737   3.807 -0.6154 -1.5859  1.4112
23520SOL     OW72000   5.196   3.068  10.126  0.3590 -0.2144  0.4202
23520SOL    HW172001   5.191   3.013  10.048  0.3289  2.0081 -1.2454
23520SOL    HW272002   5.281   3.048  10.164  0.4510 -1.1971 -0.2564
23521SOL     OW72003   7.864   5.446   9.909 -0.3685 -0.6204  0.2572
23521SOL    HW172004   7.951   5.452   9.947 -0.4836  1.8073  0.2931
23521SOL    HW272005   7.877   5.466   9.816 -0.9805  0.8062  0.4544
23522SOL     OW72006   2.652   6.561   3.936  0.9691  0.1534  0.3702
23522SOL    HW172007   2.608   6.493   3.988  0.0007  1.1882  0.9280
23522SOL    HW272008   2.582   6.620   3.909  1.6554  0.3738 -1.0035
23523SOL     OW72009   2.731   4.573   3.901  0.0826 -0.1140  0.0806
23523SOL    HW172010   2.818   4.536   3.895  0.6120  1.1398 -0.2865
23523SOL    HW272011   2.711   4.573   3.995  0.2458 -0.9177  0.1144
23524SOL     OW72012   7.051   2.990  11.221 -0.0090  0.0666 -0.5731
23524SOL    HW172013   7.031   3.012  11.312  1.7797 -0.3489 -0.0467
23524SOL    HW272014   6.979   3.029  11.171 -1.4441 -0.3703  1.0605
23525SOL     OW72015   7.538   3.381  11.471  0.2636  0.1068 -0.1880
23525SOL    HW172016   7.468   3.348  11.414  0.5227  1.4390 -1.3410
23525SOL    HW272017   7.618   3.343  11.435  0.6159  2.2083 -1.8040
23526SOL     OW72018   7.795   0.525   3.522 -0.0893  0.3869  0.4332
23526SOL    HW172019   7.848   0.584   3.577 -3.7322  4.5386  0.0501
23526SOL    HW272020   7.748   0.470   3.584 -0.7341  1.8479  1.3007
23527SOL     OW72021   4.967   6.085  11.650 -0.2848  0.0872  0.4286
23527SOL    HW172022   4.945   6.041  11.732 -0.1930 -0.6366  0.0773
23527SOL    HW272023   4.894   6.143  11.633 -0.4725 -0.0248  0.8416
23528SOL     OW72024   5.603   0.332   9.320 -0.0243  0.0318  0.4361
23528SOL    HW172025   5.634   0.422   9.308 -0.4885  0.0228 -1.0844
23528SOL    HW272026   5.579   0.303   9.232 -1.2837 -1.0789  1.1024
23529SOL     OW72027   3.922   6.163  10.130  0.2849  0.1281 -0.3391
23529SOL    HW172028   3.922   6.258  10.117  0.7257  0.4408  1.5815
23529SOL    HW272029   3.833   6.142  10.157  0.1467 -0.0450 -0.9118
23530SOL     OW72030   2.955   4.709   9.280 -0.3628  0.2639  0.2996
23530SOL    HW172031   2.974   4.777   9.215 -0.4977 -0.7021 -0.7806
23530SOL    HW272032   3.015   4.638   9.258 -2.3254 -1.2016 -0.5871
23531SOL     OW72033   0.385   1.641   6.394  0.0222 -0.0355 -0.7230
23531SOL    HW172034   0.294   1.634   6.366 -0.8861 -0.5166  2.0235
23531SOL    HW272035   0.409   1.553   6.423 -0.9084  1.0860  4.4942
23532SOL     OW72036   2.655   6.640   5.485 -0.4955 -0.0973  0.0938
23532SOL    HW172037   2.670   6.603   5.398 -1.0109  0.7809 -0.3829
23532SOL    HW272038   2.592   6.580   5.526  0.3082 -0.9193  0.1558
23533SOL     OW72039   6.374   5.342   4.591  0.1619 -0.0262 -0.1210
23533SOL    HW172040   6.389   5.287   4.668  0.6135  0.8316  0.4139
23533SOL    HW272041   6.333   5.421   4.626  1.1556  0.7398 -0.6339
23534SOL     OW72042   2.908   6.803   0.897 -0.0374  0.3907  0.2433
23534SOL    HW172043   2.838   6.781   0.958 -1.4588  1.6251 -0.8654
23534SOL    HW272044   2.963   6.865   0.945  0.0436 -0.2303  0.9668
23535SOL     OW72045   2.616   0.953  11.297  0.4309  0.1534  0.1364
23535SOL    HW172046   2.633   0.938  11.390  1.3750 -0.9402 -0.1933
23535SOL    HW272047   2.690   0.913  11.252  0.3545  1.3017 -1.0695
23536SOL     OW72048   1.345   7.058   3.794  0.0747 -0.3858 -0.1938
23536SOL    HW172049   1.397   7.124   3.840  0.1439 -0.0015 -0.8183
23536SOL    HW272050   1.390   7.045   3.711 -1.1624  0.4260 -1.0222
23537SOL     OW72051   4.157   5.302   3.187 -0.3745  0.3025 -0.2035
23537SOL    HW172052   4.198   5.333   3.267 -0.0249  0.2507 -0.3606
23537SOL    HW272053   4.136   5.210   3.203 -0.7858  0.4325  0.0162
23538SOL     OW72054   4.876   4.906   1.852  0.4128  0.3694  0.0258
23538SOL    HW172055   4.959   4.922   1.896 -0.2344  1.6377  0.8275
23538SOL    HW272056   4.900   4.857   1.773  1.8839  0.5160  0.3543
23539SOL     OW72057   0.572   3.210   4.297  0.3394 -0.4733  0.9608
23539SOL    HW172058   0.527   3.126   4.303  0.1570 -0.4108  0.4867
23539SOL    HW272059   0.525   3.266   4.360  0.1574 -0.5886  0.9305
23540SOL     OW72060   7.150   0.895   5.508  0.0938  0.3518 -0.1133
23540SOL    HW172061   7.086   0.960   5.537 -0.1461  1.1008 -2.1497
23540SOL    HW272062   7.234   0.931   5.536 -0.1119  1.1474 -0.4817
23541SOL     OW72063   6.152   2.696   4.394 -0.2543  0.1043  0.0460
23541SOL    HW172064   6.094   2.628   4.358 -1.4540  0.3383  1.4336
23541SOL    HW272065   6.110   2.778   4.368  0.0819  0.2900  0.0905
23542SOL     OW72066   6.370   4.842   3.002  0.0999 -0.1138 -0.8739
23542SOL    HW172067   6.372   4.776   2.933  0.3898  0.8687 -1.8166
23542SOL    HW272068   6.451   4.891   2.991  0.6137 -0.5229  0.7584
23543SOL     OW72069   1.030   2.152   8.281 -0.2188 -0.0974  0.4159
23543SOL    HW172070   1.048   2.225   8.221 -1.7374  0.1551  0.2435
23543SOL    HW272071   1.040   2.074   8.226  0.7626 -0.0136  0.4428
23544SOL     OW72072   5.395   1.560   1.339  0.3457  0.2781 -0.2520
23544SOL    HW172073   5.451   1.629   1.305  0.5049  1.2880  1.9057
23544SOL    HW272074   5.310   1.601   1.350 -0.1618 -0.5229 -1.0658
23545SOL     OW72075   5.614   7.336   3.691  0.3007  0.0617  0.1952
23545SOL    HW172076   5.580   7.277   3.623 -1.8958  0.7813  0.5649
23545SOL    HW272077   5.616   7.422   3.648 -1.2913  0.5569  1.0420
23546SOL     OW72078   2.261   0.155   2.439  0.9235  0.6513 -0.1551
23546SOL    HW172079   2.220   0.151   2.353  0.0402  2.1531  0.1626
23546SOL    HW272080   2.187   0.159   2.500  1.5256 -0.6900  0.7258
23547SOL     OW72081   3.843   4.234   4.310 -0.4096 -0.2099 -0.0845
23547SOL    HW172082   3.923   4.269   4.350 -0.6615 -1.2894  1.4590
23547SOL    HW272083   3.869   4.151   4.270 -0.6413 -0.3005 -0.0537
23548SOL     OW72084   4.944   5.815   8.853  0.0541  0.4242 -0.0068
23548SOL    HW172085   4.884   5.747   8.824 -0.1765  0.1994  0.9444
23548SOL    HW272086   4.983   5.780   8.934  0.9940  0.8309 -0.2642
23549SOL     OW72087   3.546   5.738   9.829  0.7882  0.2865  0.3175
23549SOL    HW172088   3.541   5.658   9.881 -0.1604  0.3042  0.2722
23549SOL    HW272089   3.611   5.720   9.762  0.4023 -0.5302  0.1592
23550SOL     OW72090   6.417   4.522  10.392 -0.0103 -0.0427 -0.1065
23550SOL    HW172091   6.338   4.564  10.358 -0.6626  1.1812  2.6268
23550SOL    HW272092   6.390   4.432  10.412 -0.4308  0.0713 -0.1526
23551SOL     OW72093   5.250   0.296   5.009 -0.2881 -0.4954  0.3632
23551SOL    HW172094   5.308   0.250   4.948 -0.4034 -0.7403  0.4374
23551SOL    HW272095   5.277   0.264   5.096 -1.4692 -1.6831  0.3165
23552SOL     OW72096   7.349   0.699   7.120 -0.4594 -0.1861  0.0408
23552SOL    HW172097   7.431   0.652   7.102 -1.1122 -1.5004  0.3491
23552SOL    HW272098   7.282   0.631   7.118 -1.1569  0.2805  2.9305
23553SOL     OW72099   4.472   3.870   0.425  0.3604 -0.5211 -0.0869
23553SOL    HW172100   4.532   3.930   0.470 -0.4358  0.2334 -0.0054
23553SOL    HW272101   4.473   3.900   0.334  1.1372 -1.3671 -0.3742
23554SOL     OW72102   7.569   1.421   7.680  0.4230 -0.2444  0.1247
23554SOL    HW172103   7.574   1.346   7.621  1.0069 -2.5792  2.8730
23554SOL    HW272104   7.480   1.419   7.714  0.0445  1.1538 -0.7506
23555SOL     OW72105   0.530   2.689   0.700  0.0439 -0.6665 -0.0172
23555SOL    HW172106   0.555   2.606   0.660 -0.6417 -1.5681  1.3444
23555SOL    HW272107   0.498   2.665   0.787  1.6890  1.2343  1.2041
23556SOL     OW72108   4.484   5.641   8.709  0.4824  0.3342 -0.0057
23556SOL    HW172109   4.551   5.622   8.643 -1.9200 -0.7783 -2.2826
23556SOL    HW272110   4.477   5.560   8.761 -0.3391 -0.2224 -0.9600
23557SOL     OW72111   5.982   7.422  12.366  0.1021  0.2644 -0.0840
23557SOL    HW172112   5.919   7.410  12.295 -0.8658  0.5643  0.7215
23557SOL    HW272113   5.930   7.445  12.442  1.1334 -0.0785  0.7494
23558SOL     OW72114   6.907   3.025   4.719  0.4442 -0.5464 -0.2858
23558SOL    HW172115   6.915   2.931   4.705 -0.3156 -0.4663 -1.4578
23558SOL    HW272116   6.920   3.063   4.632  1.0776  0.4604  0.2297
23559SOL     OW72117   6.117   4.070   7.882 -0.3496 -0.2682 -0.1506
23559SOL    HW172118   6.135   4.104   7.794  0.8366  0.6781  0.4268
23559SOL    HW272119   6.028   4.036   7.877 -0.0801 -0.8037 -1.8832
23560SOL     OW72120   4.868   1.987   2.233 -0.0743  0.1230 -0.3112
23560SOL    HW172121   4.791   1.963   2.284  0.2074 -0.0310  0.0496
23560SOL    HW272122   4.866   2.082   2.228  0.9632  0.3071  1.7181
23561SOL     OW72123   5.678   4.817   4.767  0.2049  0.2899  0.1713
23561SOL    HW172124   5.719   4.781   4.688 -0.9664  0.5031 -0.5595
23561SOL    HW272125   5.733   4.892   4.790 -0.7886  1.7789 -1.9321
23562SOL     OW72126   5.187   5.088   8.788 -0.1781 -0.2139 -0.2809
23562SOL    HW172127   5.096   5.118   8.784  0.3730  1.4483 -0.9923
23562SOL    HW272128   5.195   5.048   8.875 -1.3416  0.4492  0.1571
23563SOL     OW72129   4.822   6.068   1.116 -0.7419 -0.7873 -0.3775
23563SOL    HW172130   4.858   6.122   1.045  1.1523 -1.6060 -0.1052
23563SOL    HW272131   4.729   6.060   1.096 -0.7736  1.2752 -1.2576
23564SOL     OW72132   3.175   7.244  11.634  0.0494  0.1227 -0.1170
23564SOL    HW172133   3.146   7.225  11.723  1.4580  2.0621  0.8370
23564SOL    HW272134   3.118   7.314  11.604 -0.6098 -0.7237 -0.8841
23565SOL     OW72135   4.855   3.733   3.698  0.6032  0.3412  0.2070
23565SOL    HW172136   4.769   3.770   3.721  0.1348  1.4401 -2.8395
23565SOL    HW272137   4.916   3.777   3.757 -0.5591  2.1651  0.1468
23566SOL     OW72138   5.037   7.960   4.153 -0.2181  0.5192 -0.7569
23566SOL    HW172139   5.062   8.052   4.160 -1.2643  0.9093 -1.7467
23566SOL    HW272140   4.950   7.956   4.193  0.0595 -0.1653 -0.1995
23567SOL     OW72141   0.298   3.481   0.695 -0.3622  0.1662  0.4471
23567SOL    HW172142   0.230   3.524   0.747 -0.1242  1.2222 -0.0825
23567SOL    HW272143   0.341   3.553   0.649  1.2332 -0.4566  0.9097
23568SOL     OW72144   4.501   5.994   1.838  0.5329 -0.0318  0.3586
23568SOL    HW172145   4.485   5.905   1.869  2.7298 -0.5744  0.1055
23568SOL    HW272146   4.414   6.032   1.828 -0.4182 -1.5463  2.1919
23569SOL     OW72147   4.467   1.412   7.507 -0.2519  0.5470 -0.0427
23569SOL    HW172148   4.499   1.457   7.586 -0.4278  0.9107 -0.1775
23569SOL    HW272149   4.500   1.466   7.435  3.2096 -1.7743 -0.4437
23570SOL     OW72150   4.519   6.584   9.297  0.2604  0.5091  0.2124
23570SOL    HW172151   4.602   6.576   9.251  0.2137 -0.7662  0.2925
23570SOL    HW272152   4.457   6.536   9.242  0.1614 -0.8894  1.4594
23571SOL     OW72153   1.480   5.504   6.488  0.7199  0.1795  0.2724
23571SOL    HW172154   1.402   5.496   6.543  1.4914  1.0863  1.5691
23571SOL    HW272155   1.446   5.513   6.399 -0.6025 -0.5154  0.6777
23572SOL     OW72156   1.098   6.045   1.840 -0.1577 -0.1803  0.1746
23572SOL    HW172157   1.118   6.049   1.747 -1.7071 -0.8673 -0.2283
23572SOL    HW272158   1.089   6.137   1.867 -1.0427  0.0086 -0.6902
23573SOL     OW72159   6.275   1.360   8.761 -0.0102  0.2202  0.1134
23573SOL    HW172160   6.249   1.272   8.735 -0.8199  0.6710 -0.6475
23573SOL    HW272161   6.361   1.373   8.720 -0.8449  0.5616 -1.6079
23574SOL     OW72162   0.364   4.792   4.526  0.4495 -0.7558 -0.2255
23574SOL    HW172163   0.393   4.710   4.487  1.1207 -0.6383  0.0063
23574SOL    HW272164   0.443   4.845   4.531  0.1710 -0.3817  0.3326
23575SOL     OW72165   3.294   3.570   9.049  0.8775  0.5149  0.1846
23575SOL    HW172166   3.349   3.648   9.038  0.2904  0.8003 -0.8707
23575SOL    HW272167   3.352   3.505   9.087  1.7854  1.0013 -0.3325
23576SOL     OW72168   7.713   6.493  12.005 -0.6560  0.0959  0.1057
23576SOL    HW172169   7.715   6.523  12.096  0.7236 -0.4822  0.2986
23576SOL    HW272170   7.721   6.398  12.011 -0.1895  0.0808 -0.6253
23577SOL     OW72171   3.114   7.150  11.899 -0.1558  0.1835  0.5259
23577SOL    HW172172   3.137   7.141  11.991  1.6631 -1.3894 -0.0396
23577SOL    HW272173   3.054   7.078  11.882  0.1480 -0.0095  0.2789
23578SOL     OW72174   1.504   7.156   3.309  0.4518  0.2543  0.1515
23578SOL    HW172175   1.453   7.192   3.237  2.0633 -0.4900 -1.4345
23578SOL    HW272176   1.568   7.098   3.267  0.8639 -0.9350  2.2520
23579SOL     OW72177   4.089   6.163   9.191 -0.4288 -0.1595 -0.6518
23579SOL    HW172178   4.177   6.173   9.227 -0.5681 -1.9511  0.3149
23579SOL    HW272179   4.102   6.128   9.103 -0.0972 -2.9642  0.3822
23580SOL     OW72180   2.224   5.685  12.304  0.3359  0.0612  0.1575
23580SOL    HW172181   2.157   5.659  12.241 -2.0932 -0.2113  2.6950
23580SOL    HW272182   2.305   5.647  12.269 -1.0737 -0.9569 -2.2251
23581SOL     OW72183   4.953   5.397   2.386  0.0392  0.2725 -0.0817
23581SOL    HW172184   4.858   5.409   2.378  0.1882  0.3576 -2.3982
23581SOL    HW272185   4.990   5.483   2.363  0.6882  0.1790  0.5820
23582SOL     OW72186   0.604   5.156   3.646 -0.1347 -0.5644 -0.0733
23582SOL    HW172187   0.531   5.213   3.620 -0.3055 -0.5612  0.4054
23582SOL    HW272188   0.682   5.207   3.625 -0.2980  0.3787  1.4972
23583SOL     OW72189   5.353   1.599   4.159  0.5617  0.4569  0.2514
23583SOL    HW172190   5.303   1.652   4.221 -0.3051 -0.6956  0.5522
23583SOL    HW272191   5.287   1.546   4.114  1.4107 -0.3262 -0.0929
23584SOL     OW72192   5.949   1.185   7.380  0.4417 -0.0337 -0.4460
23584SOL    HW172193   6.033   1.160   7.419  1.0624  0.8763 -1.1699
23584SOL    HW272194   5.895   1.209   7.455  0.9854 -0.1614 -0.0024
23585SOL     OW72195   6.413   7.832   1.607  0.0717 -0.3794  0.7489
23585SOL    HW172196   6.438   7.842   1.515 -0.6455 -1.5434  0.4067
23585SOL    HW272197   6.436   7.916   1.647 -0.7504  0.6265 -0.7645
23586SOL     OW72198   4.943   5.993  10.736 -0.1869  0.0805  0.4085
23586SOL    HW172199   4.876   6.023  10.675  0.2327  1.7668  0.7080
23586SOL    HW272200   4.987   5.921  10.691 -1.0131  0.1608 -0.5485
23587SOL     OW72201   6.038   2.286   7.058  0.0544 -0.1884 -0.0854
23587SOL    HW172202   6.010   2.252   7.143 -1.0647  1.2609  0.1502
23587SOL    HW272203   6.068   2.208   7.011 -0.5914 -1.2206  1.1319
23588SOL     OW72204   5.437   5.218   5.661  0.3782  0.5343  0.4435
23588SOL    HW172205   5.439   5.135   5.612 -1.1828  0.7758 -0.0925
23588SOL    HW272206   5.489   5.200   5.740 -0.9265 -1.3749  0.9566
23589SOL     OW72207   5.896   4.121   0.320  0.1727 -0.3620 -0.0635
23589SOL    HW172208   5.966   4.057   0.303  0.0344 -0.2426 -1.1379
23589SOL    HW272209   5.825   4.095   0.262 -0.1144  0.4118 -0.0693
23590SOL     OW72210   2.419   7.179   1.829  0.1488 -0.5492  0.5257
23590SOL    HW172211   2.403   7.109   1.765  0.5310 -0.1050 -0.0686
23590SOL    HW272212   2.331   7.203   1.860 -0.5314  1.9124 -2.7643
23591SOL     OW72213   6.897   1.668  12.469  0.3780  0.7360 -0.6191
23591SOL    HW172214   6.892   1.760  12.444  0.8852  1.2934  1.1941
23591SOL    HW272215   6.923   1.669  12.561 -2.1140 -1.1382  0.2335
23592SOL     OW72216   7.312   1.958  12.335  0.0594  0.7225 -0.3400
23592SOL    HW172217   7.271   1.879  12.371  2.7787 -0.8258 -0.3966
23592SOL    HW272218   7.385   1.976  12.394  0.1427  2.6031 -0.9515
23593SOL     OW72219   2.451   6.435  11.718  0.2642 -0.1647  0.3748
23593SOL    HW172220   2.452   6.432  11.814  1.4317 -0.1744  0.3791
23593SOL    HW272221   2.366   6.473  11.696  0.7107  1.6031  1.4821
23594SOL     OW72222   1.892   1.862  11.423 -0.3811  0.6002  0.0876
23594SOL    HW172223   1.833   1.868  11.498  0.3848 -0.7641  0.8210
23594SOL    HW272224   1.916   1.769  11.418  2.2388  1.2125  0.2185
23595SOL     OW72225   6.232   2.929   0.359  0.3622 -0.0374  0.1786
23595SOL    HW172226   6.211   2.948   0.450  0.5688 -0.1592  0.2515
23595SOL    HW272227   6.148   2.935   0.313 -0.1298 -2.0953  0.7179
23596SOL     OW72228   5.448   5.725   9.583  0.6081  0.0616 -0.0007
23596SOL    HW172229   5.501   5.647   9.564  2.0052  0.7118  1.0196
23596SOL    HW272230   5.469   5.786   9.513 -0.3862 -0.4068 -0.7272
23597SOL     OW72231   3.905   4.125   2.613 -0.6434  0.1273  0.0501
23597SOL    HW172232   3.843   4.126   2.686 -0.8863 -1.9590 -0.0448
23597SOL    HW272233   3.991   4.128   2.654 -0.7942 -0.1783  0.3980
23598SOL     OW72234   0.622   3.635   0.391  0.1606  0.2824 -0.2258
23598SOL    HW172235   0.705   3.615   0.346 -0.4640 -0.9241 -0.8890
23598SOL    HW272236   0.631   3.592   0.477  0.6927  1.1968  0.1958
23599SOL     OW72237   6.368   3.329  11.291  0.0742  0.1051  0.4202
23599SOL    HW172238   6.295   3.345  11.351 -0.4528 -1.0642  0.1105
23599SOL    HW272239   6.446   3.346  11.344 -0.3901 -0.6873  1.3904
23600SOL     OW72240   4.672   2.832   0.733  0.0897 -0.6278  0.1955
23600SOL    HW172241   4.631   2.905   0.686 -0.2719 -1.7268 -1.2608
23600SOL    HW272242   4.600   2.788   0.776  0.4588  0.5830  2.1948
23601SOL     OW72243   5.230   6.294   8.007  0.3342 -0.1078  0.3234
23601SOL    HW172244   5.191   6.309   7.921  1.0658 -0.5966 -0.1084
23601SOL    HW272245   5.198   6.208   8.033 -1.3826  0.8156  1.4020
23602SOL     OW72246   3.781   5.298   3.201  0.2905 -0.3285 -0.1887
23602SOL    HW172247   3.795   5.381   3.154  3.3900  0.3195  1.5541
23602SOL    HW272248   3.729   5.322   3.277 -0.9931 -0.5296 -0.9779
23603SOL     OW72249   4.948   2.643   7.156  0.4401  0.0520  0.1359
23603SOL    HW172250   4.950   2.714   7.091 -1.7358 -0.2010 -0.2999
23603SOL    HW272251   4.855   2.625   7.168  0.8865 -1.5001  1.6158
23604SOL     OW72252   3.116   3.198   7.978 -0.4663  0.1556  0.7936
23604SOL    HW172253   3.202   3.183   8.019 -1.4827 -0.8171  2.7399
23604SOL    HW272254   3.097   3.116   7.933 -0.7316  0.0487  1.0952
23605SOL     OW72255   4.144   4.808   2.839  0.0575  0.3630 -0.2496
23605SOL    HW172256   4.149   4.740   2.906  0.6479 -0.0061 -0.6559
23605SOL    HW272257   4.050   4.819   2.823 -0.0745 -2.4403 -2.2217
23606SOL     OW72258   5.563   5.961   4.442  0.3396  0.6524  0.7249
23606SOL    HW172259   5.552   5.870   4.468 -0.5769  0.2934 -0.8142
23606SOL    HW272260   5.480   6.003   4.464  0.2759  0.8021  0.2066
23607SOL     OW72261   2.964   1.729   4.280 -0.0181 -0.0070 -0.1182
23607SOL    HW172262   2.879   1.715   4.321  0.2015 -1.8522 -0.2201
23607SOL    HW272263   3.027   1.725   4.351 -0.0297  2.2536  0.0927
23608SOL     OW72264   1.933   7.236   8.975  0.2681 -0.3327 -0.6276
23608SOL    HW172265   1.971   7.203   9.057 -0.8231  0.1830  0.0988
23608SOL    HW272266   2.004   7.286   8.935  0.7919 -0.5194  0.0350
23609SOL     OW72267   3.078   4.959  10.067  0.4282 -0.2147 -0.0513
23609SOL    HW172268   3.145   4.956  10.135 -0.0264 -0.2655  0.4030
23609SOL    HW272269   3.058   4.868  10.048  0.4962 -0.1999 -0.1954
23610SOL     OW72270   6.597   5.125   0.295 -0.0630  0.2318 -0.2357
23610SOL    HW172271   6.639   5.172   0.367 -1.1982 -1.5561  1.6910
23610SOL    HW272272   6.517   5.176   0.278 -0.5078 -0.0886  0.7805
23611SOL     OW72273   0.859   6.085   7.494  0.3300  0.1219  0.7262
23611SOL    HW172274   0.940   6.133   7.481  0.2067  0.2258  0.3190
23611SOL    HW272275   0.822   6.076   7.406  1.3742 -2.5343  0.4506
23612SOL     OW72276   4.668   3.488  12.301  0.1940  0.1150 -0.1460
23612SOL    HW172277   4.715   3.410  12.329 -0.7315 -1.2807 -2.2243
23612SOL    HW272278   4.660   3.478  12.206 -2.3082  1.4045 -0.1581
23613SOL     OW72279   4.330   0.781   5.087 -0.2339 -0.1613  0.3827
23613SOL    HW172280   4.404   0.842   5.097 -0.8243  0.3809  1.7336
23613SOL    HW272281   4.345   0.739   5.003  0.9183  0.8836  0.0305
23614SOL     OW72282   2.632   3.170   6.016 -0.5739 -0.4455  0.4368
23614SOL    HW172283   2.699   3.238   6.026 -0.5726 -0.3068 -0.4151
23614SOL    HW272284   2.549   3.218   6.013 -0.5292 -0.4067 -0.7628
23615SOL     OW72285   4.326   4.474   0.013  0.1723  0.4248 -0.1276
23615SOL    HW172286   4.342   4.556   0.060 -0.5900  0.1753  0.5854
23615SOL    HW272287   4.294   4.413   0.080 -0.7144 -0.0117 -0.9316
23616SOL     OW72288   0.308   5.947   5.684 -0.0701 -0.3115  0.3986
23616SOL    HW172289   0.213   5.956   5.697  0.0468 -1.1294  2.1255
23616SOL    HW272290   0.346   6.005   5.750  0.6251 -1.3413  0.9194
23617SOL     OW72291   2.082   7.664   9.955  0.0359  0.2299 -0.0022
23617SOL    HW172292   2.036   7.727   9.900 -0.8195  0.9285  1.4291
23617SOL    HW272293   2.102   7.591   9.897 -2.4490  0.1162 -0.8379
23618SOL     OW72294   0.908   1.443   3.424 -0.1085  0.4846  0.0134
23618SOL    HW172295   0.839   1.398   3.375 -0.7751  1.1737  0.2942
23618SOL    HW272296   0.980   1.453   3.362 -0.8738  1.1871 -0.7803
23619SOL     OW72297   4.000   7.533   2.213 -0.4335 -0.4443  0.0608
23619SOL    HW172298   3.932   7.472   2.238 -0.4176 -0.2395  0.6208
23619SOL    HW272299   4.047   7.552   2.295 -0.2825  0.1162 -0.1493
23620SOL     OW72300   6.630   1.716   7.061  0.1325 -0.7465  0.1789
23620SOL    HW172301   6.631   1.794   7.116 -0.1550 -0.1144 -0.6923
23620SOL    HW272302   6.541   1.710   7.028  0.2203 -1.2934  0.0295
23621SOL     OW72303   2.802   7.952   0.642 -0.2273  0.5815  0.4867
23621SOL    HW172304   2.777   7.942   0.734 -2.2805  2.8714  0.2969
23621SOL    HW272305   2.846   8.038   0.639 -0.0999  0.4875 -0.6569
23622SOL     OW72306   2.093   6.070   8.503  0.6052  0.1588  0.1744
23622SOL    HW172307   2.102   6.155   8.545 -0.0848  0.0415  0.5709
23622SOL    HW272308   2.062   6.012   8.572 -1.8980  0.2541 -0.7645
23623SOL     OW72309   0.933   7.559   2.414 -0.8343 -0.1222  0.2824
23623SOL    HW172310   1.018   7.567   2.458 -0.5582  0.4870 -0.3488
23623SOL    HW272311   0.930   7.632   2.352 -1.2883 -0.8441 -0.5834
23624SOL     OW72312   5.272   3.914   5.363 -0.6898  0.2305 -0.0543
23624SOL    HW172313   5.187   3.890   5.326 -0.2345 -2.6431  0.5443
23624SOL    HW272314   5.260   3.907   5.458  0.5704 -1.8818  0.0087
23625SOL     OW72315   6.084   5.058   5.586 -0.0987  0.4143 -0.4234
23625SOL    HW172316   6.107   4.968   5.562 -1.0237 -0.1316  0.6533
23625SOL    HW272317   6.093   5.108   5.505  1.2904 -0.4659 -0.8415
23626SOL     OW72318   5.947   3.283   8.576  0.7479  0.3041  0.1117
23626SOL    HW172319   5.854   3.267   8.561  0.8434  0.7033 -1.0070
23626SOL    HW272320   5.959   3.268   8.670 -0.3097 -0.3823  0.1580
23627SOL     OW72321   2.853   7.908   8.321  0.3203 -0.2593 -0.2231
23627SOL    HW172322   2.820   7.820   8.339  0.2045 -0.3599 -0.9176
23627SOL    HW272323   2.850   7.952   8.406 -0.3650 -0.6795 -0.0166
23628SOL     OW72324   3.254   7.181   4.823 -0.0106 -0.1021 -0.4388
23628SOL    HW172325   3.212   7.099   4.796  2.8244 -1.6183 -0.7119
23628SOL    HW272326   3.312   7.202   4.750 -0.6916  2.2129 -0.3646
23629SOL     OW72327   6.031   4.530   3.730 -0.5271  0.1078 -0.4870
23629SOL    HW172328   6.039   4.560   3.639 -1.7764  2.8194  0.2211
23629SOL    HW272329   6.044   4.608   3.783 -0.4206 -1.3079  1.6978
23630SOL     OW72330   5.421   6.945  11.692  0.1638 -0.1722  0.0933
23630SOL    HW172331   5.325   6.940  11.684  0.0103  2.5092 -0.6116
23630SOL    HW272332   5.443   6.875  11.753 -2.4242  0.0585  1.4522
23631SOL     OW72333   2.756   3.044  11.297  0.0857 -0.2760 -0.6951
23631SOL    HW172334   2.725   3.134  11.305  1.1393  0.0794 -0.4954
23631SOL    HW272335   2.833   3.049  11.240  0.6038 -0.9323 -0.0780
23632SOL     OW72336   5.791   0.008  11.129  0.0046  0.0242  0.3241
23632SOL    HW172337   5.863  -0.050  11.155  1.1844  0.6356 -1.3406
23632SOL    HW272338   5.832   0.068  11.066 -1.5433  1.6352  0.7931
23633SOL     OW72339   4.163   3.658   5.226 -0.3036 -0.6725  0.0265
23633SOL    HW172340   4.085   3.680   5.175 -1.1622  2.2092  2.2716
23633SOL    HW272341   4.129   3.615   5.305  0.4502 -0.3699  0.5248
23634SOL     OW72342   0.242   0.837   2.791 -0.0337 -0.6154 -0.3733
23634SOL    HW172343   0.301   0.903   2.829  0.0002 -0.4582 -0.6939
23634SOL    HW272344   0.228   0.867   2.702  1.1263 -1.7917 -0.9954
23635SOL     OW72345   4.385   5.397   4.955  0.0828 -0.3113  0.5255
23635SOL    HW172346   4.308   5.384   5.011 -1.1684  1.1823 -0.7823
23635SOL    HW272347   4.391   5.492   4.944  0.4951 -0.5339 -1.5682
23636SOL     OW72348   3.268   4.853   8.430  0.0173  0.3168  0.3906
23636SOL    HW172349   3.286   4.825   8.340  1.0952  2.1213  0.0101
23636SOL    HW272350   3.244   4.772   8.475 -0.1781 -0.6870 -1.4214
23637SOL     OW72351   4.020   7.477   6.521 -0.3561 -0.7464 -0.2453
23637SOL    HW172352   3.953   7.432   6.471 -2.6951  2.7727 -0.6143
23637SOL    HW272353   3.975   7.509   6.599  1.4525 -0.1554  0.6265
23638SOL     OW72354   4.324   7.817   1.933  0.1974  0.6852  0.0091
23638SOL    HW172355   4.398   7.792   1.988  0.9011  3.0142  0.2382
23638SOL    HW272356   4.257   7.752   1.952  1.8741 -0.9921  0.4510
23639SOL     OW72357   5.956   0.520   2.495  0.3096  0.2619  0.4561
23639SOL    HW172358   5.899   0.448   2.469 -0.9986  0.9154  1.4041
23639SOL    HW272359   5.896   0.593   2.511  1.4491  1.0770  1.1529
23640SOL     OW72360   6.094   7.497  11.183  0.0508 -0.4526  0.7604
23640SOL    HW172361   6.144   7.576  11.162  0.4362 -0.8997 -0.0252
23640SOL    HW272362   6.047   7.476  11.103 -0.0598 -1.0124  0.9668
23641SOL     OW72363   6.883   6.542   8.316 -0.4161 -0.3425  0.1712
23641SOL    HW172364   6.841   6.494   8.387 -0.4642  1.3558  1.3595
23641SOL    HW272365   6.817   6.545   8.246 -0.7266 -1.2094  0.4184
23642SOL     OW72366   5.489   4.540   2.307  0.3437  0.0371 -0.5670
23642SOL    HW172367   5.456   4.451   2.309  0.3675  0.0250 -0.7072
23642SOL    HW272368   5.456   4.580   2.388 -0.0211  0.0262 -0.7082
23643SOL     OW72369   0.719   1.369  12.061  0.1189  0.2447 -0.4881
23643SOL    HW172370   0.673   1.339  11.982  2.0370  1.0377 -1.9941
23643SOL    HW272371   0.724   1.464  12.050 -1.3080  0.6305  1.6217
23644SOL     OW72372   3.725   7.329  11.167  0.3368 -0.1159  0.2010
23644SOL    HW172373   3.779   7.389  11.114 -0.8533 -0.1724 -1.1488
23644SOL    HW272374   3.640   7.373  11.174 -0.0750 -0.9362  0.5406
23645SOL     OW72375   7.156   4.688   3.121 -0.2009 -0.0118 -0.2559
23645SOL    HW172376   7.116   4.766   3.159  0.7960  0.1044  0.5920
23645SOL    HW272377   7.249   4.708   3.117 -0.0912 -0.6607 -1.2658
23646SOL     OW72378   7.109   5.917   7.854  0.3763 -0.4651 -0.7130
23646SOL    HW172379   7.111   5.836   7.904  0.2760 -0.1154 -0.1307
23646SOL    HW272380   7.200   5.944   7.849  0.1992  0.7832  1.4481
23647SOL     OW72381   7.889   4.088  12.288  0.0201 -0.4919 -0.2031
23647SOL    HW172382   7.891   4.066  12.195 -0.3857 -2.1708  0.1327
23647SOL    HW272383   7.796   4.093  12.309  0.1112  0.8730 -0.0831
23648SOL     OW72384   1.783   5.780  12.085  0.0633  0.1284 -0.0431
23648SOL    HW172385   1.840   5.805  12.158  0.0150  0.2202 -0.0372
23648SOL    HW272386   1.763   5.687  12.101 -0.6025  0.3587  0.5010
23649SOL     OW72387   7.730   4.689   1.981  0.4873 -0.1053 -0.3593
23649SOL    HW172388   7.699   4.745   1.909  0.1547  0.6153  0.3286
23649SOL    HW272389   7.724   4.600   1.946 -1.9428  0.0174 -0.4410
23650SOL     OW72390   6.167   5.186   8.978  0.0197 -0.0205  0.3112
23650SOL    HW172391   6.201   5.228   8.899  0.0582 -0.2741  0.1908
23650SOL    HW272392   6.239   5.130   9.007  1.1356  2.1908  2.1520
23651SOL     OW72393   1.198   7.130   6.661  0.5292  0.0992 -0.0521
23651SOL    HW172394   1.181   7.210   6.711 -2.5121  0.6371 -1.7158
23651SOL    HW272395   1.175   7.059   6.721  0.9057  0.5499  0.6393
23652SOL     OW72396   2.460   5.882   6.713 -0.3672  0.9041 -0.4297
23652SOL    HW172397   2.399   5.825   6.761  1.1906 -0.0775  0.4595
23652SOL    HW272398   2.430   5.877   6.622 -0.2807 -1.4195 -0.3914
23653SOL     OW72399   7.109   6.926   9.386 -0.7844  0.2505 -0.1477
23653SOL    HW172400   7.087   6.904   9.296  0.9231 -0.1181 -0.5166
23653SOL    HW272401   7.025   6.927   9.432 -1.3989 -3.0949 -0.9577
23654SOL     OW72402   6.790   5.536   6.764  0.2031  0.4254 -0.2142
23654SOL    HW172403   6.803   5.623   6.727 -0.3475 -0.3294 -2.3015
23654SOL    HW272404   6.733   5.551   6.840 -0.2252  1.8335 -0.7848
23655SOL     OW72405   1.358   7.748  10.090  0.0644  0.0747 -0.3226
23655SOL    HW172406   1.394   7.675  10.142 -0.6131 -0.0867 -0.0702
23655SOL    HW272407   1.384   7.728  10.000  2.4592  1.0680  0.0771
23656SOL     OW72408   6.487   3.161   5.513  0.3919 -0.5147  0.4664
23656SOL    HW172409   6.519   3.079   5.549  0.0892 -0.7019  0.3119
23656SOL    HW272410   6.397   3.168   5.544  0.7295  0.2623  1.3235
23657SOL     OW72411   4.986   1.043   4.010 -0.1122  0.5065 -0.4664
23657SOL    HW172412   4.934   0.966   3.987 -1.1538  1.3167 -0.8864
23657SOL    HW272413   4.922   1.112   4.024  0.8647  1.6726 -1.5205
23658SOL     OW72414   2.766   3.835   7.717  0.1974 -0.5168 -0.8987
23658SOL    HW172415   2.827   3.783   7.769 -1.7491 -1.2576  0.7657
23658SOL    HW272416   2.823   3.893   7.665  2.3542  0.8858  2.6217
23659SOL     OW72417   1.658   5.573   3.833  0.0565  0.1825  0.4782
23659SOL    HW172418   1.734   5.525   3.865  1.3119  2.3767  0.9354
23659SOL    HW272419   1.586   5.545   3.890  0.8416 -0.7309  1.0498
23660SOL     OW72420   7.629   5.978   6.568  0.0184 -0.2647 -0.6851
23660SOL    HW172421   7.540   5.982   6.603 -0.3249 -0.2674 -1.5517
23660SOL    HW272422   7.680   5.938   6.639 -0.4269  0.8360  0.2783
23661SOL     OW72423   3.708   0.703  11.541  0.1575 -0.0126  0.1087
23661SOL    HW172424   3.767   0.733  11.472  0.5711  0.6886  0.7425
23661SOL    HW272425   3.763   0.650  11.599 -0.0885 -0.2551  0.1262
23662SOL     OW72426   6.651   6.981  12.036  0.2038 -0.1574 -0.1242
23662SOL    HW172427   6.619   7.039  12.105 -3.4669 -1.2573 -0.6970
23662SOL    HW272428   6.619   7.020  11.955  2.8131  0.0931 -1.1245
23663SOL     OW72429   0.702   5.720   5.398 -0.3529  0.1487 -0.1240
23663SOL    HW172430   0.681   5.756   5.312  0.3898  0.9226  0.0048
23663SOL    HW272431   0.622   5.733   5.450 -1.1881 -1.2981 -0.9666
23664SOL     OW72432   2.022   7.566  10.235  0.0580 -0.2017 -0.2195
23664SOL    HW172433   2.065   7.589  10.153 -0.3448  0.1167 -0.3423
23664SOL    HW272434   1.955   7.502  10.209 -0.1347 -0.0260 -0.1501
23665SOL     OW72435   4.923   2.894  10.039  0.6934 -0.2283  0.1670
23665SOL    HW172436   4.963   2.920  10.122  1.5435 -0.0136 -0.3062
23665SOL    HW272437   4.880   2.974  10.007  1.4411  0.0250 -0.2138
23666SOL     OW72438   5.044   2.321  10.905 -0.1227 -0.2646  0.0244
23666SOL    HW172439   5.125   2.334  10.855 -0.3023 -1.7654 -0.7205
23666SOL    HW272440   5.014   2.234  10.879 -2.9235  0.9065 -1.0909
23667SOL     OW72441   3.021   6.195   6.468  0.3741  0.6622 -0.3527
23667SOL    HW172442   3.032   6.193   6.373 -1.4318 -0.5104 -0.5918
23667SOL    HW272443   2.941   6.246   6.481  0.5319  0.6875  0.5178
23668SOL     OW72444   6.962   6.337   1.875  0.0600  0.4667  0.0404
23668SOL    HW172445   7.017   6.270   1.916  0.2372  0.5952  0.0175
23668SOL    HW272446   6.928   6.295   1.796  1.9663  1.1060 -1.1889
23669SOL     OW72447   4.155   0.802  12.219 -0.2551  0.1809  0.0906
23669SOL    HW172448   4.239   0.839  12.190  0.2117 -0.3602  0.7053
23669SOL    HW272449   4.110   0.874  12.261 -0.3019  0.5971 -0.6582
23670SOL     OW72450   3.549   7.265   6.371  0.3149 -0.3358 -0.0949
23670SOL    HW172451   3.493   7.256   6.294 -0.7137 -1.5692  0.7555
23670SOL    HW272452   3.563   7.359   6.379  1.5293 -0.2375 -2.5057
23671SOL     OW72453   0.111   2.381   7.275  0.3384  0.1101 -0.2402
23671SOL    HW172454   0.126   2.327   7.197 -0.4264  0.2179 -0.4694
23671SOL    HW272455   0.016   2.382   7.286  0.4721 -0.6200  1.2042
23672SOL     OW72456   0.450   0.806   5.792 -0.3618  0.1491 -0.8301
23672SOL    HW172457   0.507   0.873   5.757 -2.0185  2.4613  0.5864
23672SOL    HW272458   0.361   0.840   5.778 -1.3153 -2.0444 -0.5762
23673SOL     OW72459   1.208   6.688  10.637  0.0252 -0.2480 -0.4576
23673SOL    HW172460   1.119   6.673  10.668 -0.4488  1.8232 -0.7178
23673SOL    HW272461   1.262   6.683  10.716 -0.6858  1.1841  0.1577
23674SOL     OW72462   3.254   6.435   7.480 -0.1074  0.4613 -0.1930
23674SOL    HW172463   3.247   6.349   7.523  0.0120  1.1325  1.2099
23674SOL    HW272464   3.321   6.481   7.531 -1.4847  2.0572  0.2311
23675SOL     OW72465   5.097   2.192   0.093  0.3380  0.1955  0.1424
23675SOL    HW172466   5.074   2.099   0.090  1.0486  0.0436 -0.9063
23675SOL    HW272467   5.163   2.203   0.025 -1.3365  1.9211 -1.3091
23676SOL     OW72468   3.485   7.671   7.731 -0.3004  0.2987  0.3483
23676SOL    HW172469   3.497   7.715   7.647  1.6541 -0.4881  0.1540
23676SOL    HW272470   3.493   7.578   7.711 -1.8826 -0.0283  1.1234
23677SOL     OW72471   5.903   0.691   4.360 -0.1309 -0.4285  0.1023
23677SOL    HW172472   5.983   0.723   4.319  0.0941 -1.8941 -0.7027
23677SOL    HW272473   5.931   0.650   4.442  0.1745 -2.0546 -0.7639
23678SOL     OW72474   7.639   4.720   7.650 -0.0063  0.3271 -0.7455
23678SOL    HW172475   7.596   4.758   7.574 -1.0903  0.0980 -0.2694
23678SOL    HW272476   7.569   4.677   7.698  0.6621  0.4399  0.3744
23679SOL     OW72477   3.655   0.183  11.795 -0.2869 -0.5832  0.1844
23679SOL    HW172478   3.743   0.197  11.760 -0.6011  1.3315  0.0766
23679SOL    HW272479   3.665   0.193  11.890 -0.2719 -1.1284  0.2463
23680SOL     OW72480   3.696   0.109   1.118  0.2934 -1.1824 -0.1578
23680SOL    HW172481   3.669   0.200   1.111  0.7208 -0.9469  1.0750
23680SOL    HW272482   3.790   0.112   1.136  0.8299 -1.9468 -2.5333
23681SOL     OW72483   2.080   1.496   9.298 -0.6391  0.2465  0.3193
23681SOL    HW172484   2.121   1.479   9.213 -1.5422  0.6510 -0.2181
23681SOL    HW272485   2.095   1.588   9.314 -1.9032  0.5755 -0.2281
23682SOL     OW72486   2.639   4.480   1.919 -0.0581  0.2160 -0.3522
23682SOL    HW172487   2.606   4.554   1.970 -1.3340 -0.2665 -0.4220
23682SOL    HW272488   2.595   4.404   1.956 -0.3597 -0.2515 -1.5975
23683SOL     OW72489   6.244   5.931  11.115  0.0489  0.5330  0.7302
23683SOL    HW172490   6.264   6.021  11.086 -1.5900  0.4470 -0.8697
23683SOL    HW272491   6.304   5.876  11.065  0.0162  0.6495  0.5621
23684SOL     OW72492   0.714   6.902  11.271 -0.6324 -0.2124  0.0034
23684SOL    HW172493   0.757   6.935  11.192  0.1243 -0.7911  0.1694
23684SOL    HW272494   0.625   6.881  11.243 -0.7939  0.8705 -0.3708
23685SOL     OW72495   2.835   4.529   1.287 -0.0179  0.3625  0.0335
23685SOL    HW172496   2.813   4.622   1.283  1.8392  0.8107 -0.6226
23685SOL    HW272497   2.864   4.515   1.378  0.6409  0.6562 -0.1308
23686SOL     OW72498   0.981   1.870   2.533  0.3643 -0.5436  0.0710
23686SOL    HW172499   1.007   1.831   2.617 -1.5981 -0.7259  0.6466
23686SOL    HW272500   0.893   1.904   2.549  1.1256  2.1590 -1.0844
23687SOL     OW72501   0.465   7.151   7.560 -0.0925 -0.0084 -0.5653
23687SOL    HW172502   0.455   7.239   7.596 -0.7919 -0.4376  0.3165
23687SOL    HW272503   0.546   7.118   7.599  0.1129  0.2042 -0.8119
23688SOL     OW72504   2.461   4.030   7.477  0.3430 -0.2467 -0.3079
23688SOL    HW172505   2.430   3.942   7.499  0.2959 -0.0800  0.3091
23688SOL    HW272506   2.521   4.017   7.404  0.7206 -0.8519  0.1037
23689SOL     OW72507   0.313   3.734  10.882  0.7553  0.4208  0.4637
23689SOL    HW172508   0.394   3.726  10.933  0.2271 -2.7991  1.0410
23689SOL    HW272509   0.341   3.731  10.791  1.3517  0.8098  0.6261
23690SOL     OW72510   2.724   0.911   8.018  0.8963 -0.5773 -0.3701
23690SOL    HW172511   2.783   0.836   8.007 -0.6469 -1.8241 -0.5564
23690SOL    HW272512   2.671   0.912   7.938  1.4227  1.2653 -0.7555
23691SOL     OW72513   0.966   7.726   0.328 -0.3635  0.0761  0.2762
23691SOL    HW172514   0.992   7.640   0.360  2.1104  0.6178 -0.0992
23691SOL    HW272515   1.043   7.760   0.282 -1.4717  2.2349 -0.1554
23692SOL     OW72516   5.856   5.113   2.707 -0.2500 -0.4113 -0.0335
23692SOL    HW172517   5.924   5.173   2.737  0.4138 -1.0227 -0.2832
23692SOL    HW272518   5.782   5.169   2.686  0.0565  0.2357  0.5692
23693SOL     OW72519   7.648   5.047   4.975 -0.3457  0.4123 -0.0753
23693SOL    HW172520   7.741   5.062   4.990  0.4229 -1.8015 -1.8610
23693SOL    HW272521   7.605   5.127   5.003  2.3154  2.3637 -1.1553
23694SOL     OW72522   3.779   2.550   2.020  0.0446 -0.1541 -0.1319
23694SOL    HW172523   3.844   2.619   2.031 -0.7680  0.4601  0.9502
23694SOL    HW272524   3.764   2.516   2.108 -2.6045  1.1437  0.0166
23695SOL     OW72525   6.116   0.488   0.774 -0.3587 -0.3545  0.3400
23695SOL    HW172526   6.084   0.401   0.799  1.2338 -0.9611  0.3960
23695SOL    HW272527   6.146   0.527   0.856 -1.1726  0.3248  0.3337
23696SOL     OW72528   0.719   3.772  10.621  0.2713  0.2570  0.7495
23696SOL    HW172529   0.723   3.849  10.679  0.4400 -0.1634  1.3062
23696SOL    HW272530   0.806   3.732  10.629  0.7809  0.9657 -0.8873
23697SOL     OW72531   5.396   7.786  10.984 -0.1984  0.6041  0.0901
23697SOL    HW172532   5.357   7.774  10.897 -0.8030  1.7138  0.1911
23697SOL    HW272533   5.324   7.772  11.045 -0.0326  0.9226  0.3615
23698SOL     OW72534   7.958   5.044   8.694  0.2710  0.0157 -0.0622
23698SOL    HW172535   7.905   5.081   8.764  0.7843 -1.4427  1.1579
23698SOL    HW272536   7.907   5.060   8.614 -0.7353  0.9501  0.7346
23699SOL     OW72537   4.370   7.424   7.576  0.3917 -0.3326  0.4013
23699SOL    HW172538   4.277   7.424   7.598  0.4868  1.4232  0.9960
23699SOL    HW272539   4.404   7.502   7.619  1.6832  0.3346 -1.6838
23700SOL     OW72540   0.331   2.195   1.785  0.3205  0.1530 -0.2031
23700SOL    HW172541   0.408   2.250   1.768  0.4103  0.0965  0.0180
23700SOL    HW272542   0.343   2.119   1.729 -0.1712  0.6949 -1.0718
23701SOL     OW72543   4.455   3.734  12.147  0.1683  0.5546  0.6746
23701SOL    HW172544   4.401   3.738  12.068  1.2790 -0.5993 -0.1805
23701SOL    HW272545   4.464   3.826  12.174  0.1478  1.0240 -0.8114
23702SOL     OW72546   1.981   2.749   2.981 -0.3918  0.3016 -0.3642
23702SOL    HW172547   2.047   2.818   2.982  0.3181 -0.3527  1.2063
23702SOL    HW272548   1.989   2.709   2.895  0.3698  1.0667 -0.6607
23703SOL     OW72549   0.604   5.694   8.763 -1.0006  0.0626 -0.4986
23703SOL    HW172550   0.623   5.627   8.828 -1.9461 -0.0537 -0.3274
23703SOL    HW272551   0.675   5.758   8.773 -0.0702 -0.9272 -0.7074
23704SOL     OW72552   4.225   2.127  10.277 -0.2074 -0.2914  0.2847
23704SOL    HW172553   4.279   2.049  10.295 -0.8949 -0.6103  1.0467
23704SOL    HW272554   4.288   2.199  10.276  0.3760 -0.7940  0.0763
23705SOL     OW72555   2.969   0.566   1.305 -0.1280 -0.3793  0.1161
23705SOL    HW172556   3.057   0.586   1.335  0.1233 -0.6980 -0.3845
23705SOL    HW272557   2.932   0.510   1.373 -0.2604  0.4491  0.7411
23706SOL     OW72558   0.639   1.449   0.929  0.0013  0.0160  0.0293
23706SOL    HW172559   0.580   1.412   0.994 -0.0825  2.4403  1.4758
23706SOL    HW272560   0.724   1.454   0.974  1.2559 -2.7189 -1.7592
23707SOL     OW72561   3.131   5.275   5.068 -0.2008  0.3852 -0.4745
23707SOL    HW172562   3.153   5.366   5.089 -0.1814  0.4859 -0.9079
23707SOL    HW272563   3.207   5.244   5.017 -0.7259  0.5066 -1.3582
23708SOL     OW72564   3.130   5.758  12.187 -0.6206  0.0301  0.4380
23708SOL    HW172565   3.168   5.692  12.245 -1.4930 -0.2964  0.6500
23708SOL    HW272566   3.042   5.725  12.167  0.1559 -0.6207 -2.2928
23709SOL     OW72567   7.581   1.067   6.662  0.4945  0.1745  0.2352
23709SOL    HW172568   7.534   0.983   6.667  0.9961 -0.1814 -0.8102
23709SOL    HW272569   7.668   1.044   6.629  0.9296  1.0071  0.7850
23710SOL     OW72570   7.632   1.853   0.249  0.0315 -0.3996 -0.2544
23710SOL    HW172571   7.626   1.948   0.252 -1.7018 -0.5014  0.3056
23710SOL    HW272572   7.693   1.830   0.319  0.6143  0.2946 -0.5242
23711SOL     OW72573   6.775   3.359   5.771  0.1015  0.2364  0.0937
23711SOL    HW172574   6.858   3.395   5.802 -0.2823  0.4424  0.8991
23711SOL    HW272575   6.801   3.286   5.714  0.9010  2.0481 -1.9865
23712SOL     OW72576   0.955   4.518   4.170  0.2473 -0.3714  0.2154
23712SOL    HW172577   0.892   4.566   4.224  1.1676 -0.0816  1.0588
23712SOL    HW272578   0.956   4.565   4.087  0.5143  0.5762  0.7447
23713SOL     OW72579   7.416   1.741   3.369 -0.0339  0.0080  0.2443
23713SOL    HW172580   7.366   1.661   3.349 -0.3077  0.5945 -1.5651
23713SOL    HW272581   7.459   1.721   3.453 -1.2812 -1.4647  0.5973
23714SOL     OW72582   7.736   0.386   7.412  0.5547 -0.0758  1.0479
23714SOL    HW172583   7.671   0.456   7.410  0.0927 -0.5004  0.8550
23714SOL    HW272584   7.688   0.308   7.382  1.5675 -0.0817 -0.6532
23715SOL     OW72585   4.080   0.910   7.598  0.3786  0.5939 -0.1646
23715SOL    HW172586   4.121   0.932   7.515  0.9608  2.5133  0.5663
23715SOL    HW272587   4.153   0.883   7.654 -0.1776 -2.2600 -0.6577
23716SOL     OW72588   1.164   0.391   2.434  0.3672 -0.6671  0.0979
23716SOL    HW172589   1.181   0.419   2.344  1.5644  0.5144  0.6698
23716SOL    HW272590   1.114   0.310   2.424 -0.7011  0.1397 -1.6235
23717SOL     OW72591   5.534   1.998  11.345 -0.5028  0.1862 -0.1528
23717SOL    HW172592   5.473   1.989  11.417 -2.4251 -0.7212 -1.8008
23717SOL    HW272593   5.544   2.093  11.333  1.3796  0.4062  2.4345
23718SOL     OW72594   3.261   5.160   1.785  0.0976  0.1815  0.1796
23718SOL    HW172595   3.199   5.208   1.839 -0.7564  0.5304 -1.0745
23718SOL    HW272596   3.207   5.120   1.716  1.1203 -0.4558 -0.2784
23719SOL     OW72597   7.673   2.042   3.331  0.4561 -0.0695  0.0923
23719SOL    HW172598   7.766   2.038   3.350  0.8099  1.0428 -1.2310
23719SOL    HW272599   7.665   2.112   3.266 -1.4057  0.4348  0.7995
23720SOL     OW72600   4.180   1.434   5.250 -0.0924  0.2683 -0.3621
23720SOL    HW172601   4.254   1.484   5.218 -0.9515  1.1721 -1.0164
23720SOL    HW272602   4.155   1.477   5.332 -1.3074  1.4821 -1.3018
23721SOL     OW72603   7.489   0.559   2.664 -0.1346  0.2984 -0.0448
23721SOL    HW172604   7.432   0.567   2.587 -0.3551 -0.8963 -0.0203
23721SOL    HW272605   7.448   0.614   2.730 -0.8714  0.0229 -0.2603
23722SOL     OW72606   4.322   2.806   4.493  0.1586  0.0030  0.0868
23722SOL    HW172607   4.242   2.758   4.511 -0.3023  1.1855  1.3373
23722SOL    HW272608   4.295   2.898   4.487  1.2502  0.3028 -0.5859
23723SOL     OW72609   0.826   7.856   2.030 -0.5289 -0.2677  0.3663
23723SOL    HW172610   0.790   7.846   1.942  1.0197 -0.8169 -0.2293
23723SOL    HW272611   0.767   7.918   2.073 -1.0988  0.2946 -1.1708
23724SOL     OW72612   6.621   2.974   4.351  0.4920 -1.0425  0.3580
23724SOL    HW172613   6.601   2.882   4.366 -1.5162 -0.8509 -0.7719
23724SOL    HW272614   6.709   2.974   4.312  0.5865 -2.4574  0.5423
23725SOL     OW72615   2.121   0.833   6.727 -0.6078  1.2923  0.0527
23725SOL    HW172616   2.175   0.909   6.745 -1.0242  1.4409  0.6761
23725SOL    HW272617   2.130   0.819   6.632  2.3992 -0.1095  0.4233
23726SOL     OW72618   1.412   5.716  10.071 -0.2589 -0.0914  0.4402
23726SOL    HW172619   1.366   5.642  10.112 -2.0670  0.6870 -0.0710
23726SOL    HW272620   1.502   5.686  10.063 -0.5489 -1.5465  1.9027
23727SOL     OW72621   0.816   7.485   4.118  0.4641  0.6707  0.4220
23727SOL    HW172622   0.896   7.531   4.093  2.3492 -1.9352  1.1035
23727SOL    HW272623   0.823   7.473   4.213 -0.4834 -0.0138  0.4302
23728SOL     OW72624   7.492   0.510   5.670 -0.4332 -0.5391  0.1109
23728SOL    HW172625   7.422   0.465   5.716 -0.7041 -0.6827 -0.4252
23728SOL    HW272626   7.557   0.442   5.652 -0.8692 -0.7517 -0.7506
23729SOL     OW72627   5.124   2.352  11.722  0.0441  0.3020 -0.0009
23729SOL    HW172628   5.150   2.305  11.802  0.2730 -0.6272 -0.6037
23729SOL    HW272629   5.178   2.313  11.653 -0.5853  0.6778 -0.7169
23730SOL     OW72630   5.221   7.013  10.823 -0.0997  0.3363  0.2583
23730SOL    HW172631   5.127   7.032  10.832 -0.3590 -0.9494  0.5369
23730SOL    HW272632   5.264   7.083  10.871 -0.9334  0.8498  0.2799
23731SOL     OW72633   3.730   6.895   5.803  0.2024  0.5050 -0.0178
23731SOL    HW172634   3.738   6.812   5.850 -1.2516  0.2095 -0.2296
23731SOL    HW272635   3.812   6.904   5.755  1.0774  0.0532  1.3403
23732SOL     OW72636   5.209   2.034   5.565  0.1660 -0.5239  0.1527
23732SOL    HW172637   5.196   2.112   5.511 -0.4339 -1.6608 -1.4409
23732SOL    HW272638   5.243   1.968   5.504  1.8235 -1.1875  1.7008
23733SOL     OW72639   5.238   3.928   3.309 -0.3553  0.0061  0.4990
23733SOL    HW172640   5.210   3.929   3.218 -2.4491  0.2289  1.0925
23733SOL    HW272641   5.256   4.020   3.329 -0.7219  0.0667  0.5483
23734SOL     OW72642   0.829   7.506   7.716 -0.3319 -0.1355 -0.1725
23734SOL    HW172643   0.783   7.472   7.792 -1.5499  1.5303 -0.1255
23734SOL    HW272644   0.912   7.538   7.750 -1.2850  1.5536  0.7041
23735SOL     OW72645   7.215   3.409   1.581 -0.1003 -0.3414 -0.6683
23735SOL    HW172646   7.260   3.375   1.658 -0.3118 -1.6681 -1.0994
23735SOL    HW272647   7.123   3.417   1.607  0.1121  1.0162 -0.2291
23736SOL     OW72648   6.051   3.078   7.297  0.5161  0.1634 -0.0215
23736SOL    HW172649   5.982   3.143   7.290  1.0371  0.9319  1.5053
23736SOL    HW272650   6.031   3.014   7.229 -2.3751 -0.2876  1.0993
23737SOL     OW72651   3.397   7.941   1.399 -0.2228  0.1745 -0.3511
23737SOL    HW172652   3.452   8.017   1.415 -0.3702  0.1739  0.1697
23737SOL    HW272653   3.434   7.900   1.321  0.7070 -0.0077  0.1768
23738SOL     OW72654   3.823   1.965   9.164  0.1672  0.1366 -0.5393
23738SOL    HW172655   3.836   2.000   9.076  2.6089 -1.9958 -1.1473
23738SOL    HW272656   3.807   1.871   9.150  1.4961 -0.4183  1.2821
23739SOL     OW72657   6.833   0.211   2.230 -0.1170 -0.0191 -0.5588
23739SOL    HW172658   6.765   0.266   2.192 -1.7250  0.6699  2.8935
23739SOL    HW272659   6.912   0.233   2.181 -1.3325  3.0463 -1.3932
23740SOL     OW72660   4.083   3.447  11.317  0.2386 -0.0972  0.4851
23740SOL    HW172661   4.072   3.499  11.237  0.2510  1.4874  1.4718
23740SOL    HW272662   4.015   3.380  11.312  1.0155 -0.8326 -1.4261
23741SOL     OW72663   6.149   5.081   3.860 -0.1946 -0.5474 -0.2485
23741SOL    HW172664   6.193   5.147   3.914 -0.3138 -0.9777  0.3853
23741SOL    HW272665   6.201   5.002   3.872 -0.3458 -0.7019 -0.5986
23742SOL     OW72666   5.939   3.963   8.161 -0.2596  0.0870  0.2831
23742SOL    HW172667   5.933   3.912   8.080 -1.2166  1.4875 -0.5866
23742SOL    HW272668   5.863   3.937   8.213  0.4896 -0.9951  0.8745
23743SOL     OW72669   4.477   4.577  11.021 -0.0894  0.2347  0.6105
23743SOL    HW172670   4.390   4.595  11.057 -0.9371 -2.1784 -0.0759
23743SOL    HW272671   4.522   4.528  11.089 -0.0944 -0.4594  0.1299
23744SOL     OW72672   7.890   1.351   2.714  0.1737  0.4981 -0.3245
23744SOL    HW172673   7.870   1.327   2.804 -2.2579 -1.1271 -1.1969
23744SOL    HW272674   7.857   1.440   2.705 -2.4831 -0.3845 -0.3329
23745SOL     OW72675   6.817   2.739   0.066 -0.1953  0.3088 -0.0300
23745SOL    HW172676   6.851   2.650   0.059 -1.3332  0.0047 -2.4282
23745SOL    HW272677   6.889   2.789   0.103  1.1075 -1.2522 -0.3577
23746SOL     OW72678   3.319   1.359  11.911  0.0568 -0.4239  0.2891
23746SOL    HW172679   3.347   1.321  11.828 -0.9139 -0.4438 -0.0342
23746SOL    HW272680   3.352   1.449  11.909 -0.3731 -0.2801 -0.3212
23747SOL     OW72681   7.544   6.623   2.075 -0.5874 -0.1869  0.3239
23747SOL    HW172682   7.455   6.590   2.085 -1.0691  1.1293  0.5993
23747SOL    HW272683   7.538   6.687   2.004  0.4752 -1.1789 -0.7010
23748SOL     OW72684   7.405   0.174   7.770  0.3787 -0.0823 -0.2695
23748SOL    HW172685   7.323   0.131   7.796 -0.7701  2.1482  0.0117
23748SOL    HW272686   7.460   0.169   7.848  0.4883 -1.4175 -0.3978
23749SOL     OW72687   4.463   7.408  10.517 -0.2486  0.0331  0.0221
23749SOL    HW172688   4.522   7.422  10.444 -1.1397  0.9280 -0.5453
23749SOL    HW272689   4.484   7.320  10.548  1.2400  0.2552 -0.2718
23750SOL     OW72690   3.919   7.728   8.126 -0.0726 -0.1895  0.0326
23750SOL    HW172691   3.918   7.699   8.035  1.3145 -0.6201  0.1275
23750SOL    HW272692   3.883   7.654   8.175 -1.1971  0.1937 -0.1802
23751SOL     OW72693   1.520   5.653   3.462 -0.0233 -0.5756  0.3805
23751SOL    HW172694   1.506   5.560   3.480 -0.1934 -0.5745  0.2523
23751SOL    HW272695   1.514   5.660   3.367 -0.2518 -0.3921  0.4081
23752SOL     OW72696   2.074   3.939  10.778 -0.1845 -0.1471 -0.2167
23752SOL    HW172697   2.154   3.917  10.729 -0.2659 -0.6846 -0.1169
23752SOL    HW272698   2.087   3.899  10.864  0.1549  1.1739  0.3800
23753SOL     OW72699   4.568   1.849   7.291  0.5993  0.1608 -0.1076
23753SOL    HW172700   4.475   1.863   7.272  0.1662 -1.4267  0.6935
23753SOL    HW272701   4.592   1.923   7.347 -0.5213 -0.0649  0.7109
23754SOL     OW72702   2.087   0.707   1.563 -0.6794  0.4253 -0.2200
23754SOL    HW172703   2.148   0.765   1.609  0.8018 -0.4833 -0.9699
23754SOL    HW272704   2.073   0.634   1.623  1.1983 -0.7252 -1.0792
23755SOL     OW72705   0.438   1.051  10.391  0.1162 -0.1222 -0.4458
23755SOL    HW172706   0.419   1.015  10.305 -1.7367  0.2617 -0.2261
23755SOL    HW272707   0.461   1.142  10.375 -0.0701 -0.0929 -0.5443
23756SOL     OW72708   2.930   4.824   2.789 -0.5707 -0.1313 -0.1044
23756SOL    HW172709   2.968   4.752   2.840 -0.8664 -0.1768  0.0520
23756SOL    HW272710   2.934   4.794   2.699 -1.5520 -0.7480  0.0403
23757SOL     OW72711   6.225   0.927   1.357  0.0914  0.3353 -0.3887
23757SOL    HW172712   6.171   1.006   1.351 -0.6044  0.0302  1.2846
23757SOL    HW272713   6.309   0.959   1.390  0.6995  0.6883 -2.1605
23758SOL     OW72714   6.927   6.781   9.603  0.2894  0.5125  0.1626
23758SOL    HW172715   6.850   6.819   9.561 -0.0816 -1.9924 -1.6692
23758SOL    HW272716   6.896   6.697   9.637  2.1419 -0.4626 -0.4404
23759SOL     OW72717   7.335   3.889   7.222 -0.2056  0.3492 -0.2788
23759SOL    HW172718   7.288   3.906   7.140  0.8242  1.7838 -0.6229
23759SOL    HW272719   7.344   3.794   7.226  0.9296  0.2950 -2.5609
23760SOL     OW72720   7.681   2.172   9.454  0.0032 -0.0405  0.1489
23760SOL    HW172721   7.747   2.218   9.505  0.7826 -0.5848 -0.3368
23760SOL    HW272722   7.665   2.228   9.378  1.0078 -0.5902 -0.4813
23761SOL     OW72723   1.687   3.096   2.161 -0.0922 -0.0900  0.3783
23761SOL    HW172724   1.754   3.042   2.202  1.2877  0.0395 -1.5965
23761SOL    HW272725   1.632   3.034   2.113 -0.0710  0.0259  0.2052
23762SOL     OW72726   2.497   5.588   7.441 -0.2430  0.4183 -0.3068
23762SOL    HW172727   2.591   5.607   7.434  0.1506 -0.7600  1.1577
23762SOL    HW272728   2.465   5.593   7.351  1.6380 -1.0716 -1.1520
23763SOL     OW72729   5.430   3.764   6.909  0.1939 -0.0225 -0.4316
23763SOL    HW172730   5.357   3.780   6.848 -0.3555 -0.7487  0.0123
23763SOL    HW272731   5.387   3.741   6.991  0.9363  0.2811  0.0455
23764SOL     OW72732   1.561   1.156  10.255 -0.4747  0.2936  0.1456
23764SOL    HW172733   1.512   1.093  10.201  1.4931  0.1302 -1.5790
23764SOL    HW272734   1.575   1.231  10.197 -0.9860  1.4823  1.5052
23765SOL     OW72735   0.576   2.695   5.065  0.4212 -0.7717 -0.0808
23765SOL    HW172736   0.565   2.661   4.976  2.9308 -1.5580 -0.1583
23765SOL    HW272737   0.576   2.790   5.054 -1.1092 -0.7915 -0.6184
23766SOL     OW72738   5.726   0.531   3.670  0.2432 -0.1793  0.2032
23766SOL    HW172739   5.710   0.484   3.752 -1.0901  0.1854  0.1805
23766SOL    HW272740   5.701   0.469   3.602  0.4611 -0.1556  0.1012
23767SOL     OW72741   2.530   0.013   3.890  0.3586  0.1777  0.4708
23767SOL    HW172742   2.491   0.100   3.886  0.7697  0.5008  2.4619
23767SOL    HW272743   2.544  -0.011   3.798  0.0865  2.1299 -0.1283
23768SOL     OW72744   5.432   5.266   6.806 -0.3778 -0.4818 -0.4847
23768SOL    HW172745   5.519   5.300   6.789 -0.3338 -0.5535 -0.4023
23768SOL    HW272746   5.403   5.313   6.885 -0.1496 -0.9397 -0.1235
23769SOL     OW72747   7.449   3.407   7.919  0.1178  0.0205 -0.2556
23769SOL    HW172748   7.382   3.411   7.851  0.4612  1.3862 -0.5584
23769SOL    HW272749   7.532   3.413   7.871  0.3443  2.8897  0.2983
23770SOL     OW72750   1.168   2.870   2.339  0.1648 -0.0706  0.1173
23770SOL    HW172751   1.228   2.923   2.286  0.1349  1.0251  1.1206
23770SOL    HW272752   1.098   2.846   2.280 -1.6164  3.9369  0.3004
23771SOL     OW72753   5.711   0.561   6.099  0.0807  1.0301 -0.4899
23771SOL    HW172754   5.733   0.493   6.163 -0.6201  1.3594  0.1098
23771SOL    HW272755   5.677   0.512   6.023 -3.4242  0.7220  1.0700
23772SOL     OW72756   2.210   4.691   6.823 -0.0772  0.4413 -0.0131
23772SOL    HW172757   2.294   4.650   6.801  0.7190  1.4011  1.1097
23772SOL    HW272758   2.215   4.778   6.783  0.4053  1.3134  1.8196
23773SOL     OW72759   5.042   2.115   8.762 -0.3480  0.0834  0.5943
23773SOL    HW172760   4.974   2.053   8.789 -1.2653  1.1355  0.7495
23773SOL    HW272761   5.069   2.158   8.843 -0.2040  0.3751  0.3933
23774SOL     OW72762   6.588   6.923   3.320 -0.4256  0.3534  0.2886
23774SOL    HW172763   6.629   7.003   3.287 -0.3744 -0.0869 -0.7501
23774SOL    HW272764   6.507   6.914   3.269 -0.3147 -0.3778  0.2266
23775SOL     OW72765   7.576   6.771   9.439 -0.0938 -0.2272 -0.0230
23775SOL    HW172766   7.611   6.711   9.505  0.9379  0.4475  0.0619
23775SOL    HW272767   7.482   6.751   9.436  0.0233 -0.9837  0.8961
23776SOL     OW72768   5.402   3.847   2.769 -0.0758 -0.2556 -1.1072
23776SOL    HW172769   5.472   3.840   2.704 -0.8032 -0.6694 -1.8637
23776SOL    HW272770   5.391   3.941   2.782 -0.0000 -0.1685 -1.6656
23777SOL     OW72771   2.065   2.852  11.714 -0.3132  0.4656  0.0056
23777SOL    HW172772   2.131   2.818  11.653  1.0307  3.5822 -0.4808
23777SOL    HW272773   2.061   2.787  11.784  0.1843 -1.8274 -1.9869
23778SOL     OW72774   2.770   1.429  10.069  0.0232 -0.0595 -0.2833
23778SOL    HW172775   2.696   1.477  10.106  0.9691 -0.0028  1.6878
23778SOL    HW272776   2.753   1.426   9.975 -0.3132  3.8179 -0.5197
23779SOL     OW72777   3.889   2.641   1.609  0.3681  0.2078  0.4137
23779SOL    HW172778   3.978   2.660   1.580  0.3574  0.5659  0.6110
23779SOL    HW272779   3.894   2.554   1.650  0.7294  0.4511  0.8877
23780SOL     OW72780   1.399   5.054  12.165  0.1651 -0.1186  0.7023
23780SOL    HW172781   1.322   5.094  12.124 -0.2935 -0.6373  1.0390
23780SOL    HW272782   1.469   5.119  12.155 -0.6155  0.8641  1.4106
23781SOL     OW72783   4.778   6.621   3.411 -0.3129  0.3628 -0.1345
23781SOL    HW172784   4.766   6.526   3.419 -0.6818  0.4466  0.3293
23781SOL    HW272785   4.860   6.630   3.363 -0.2411 -0.1918 -0.1286
23782SOL     OW72786   7.880   3.281   9.522  0.3051 -0.1462 -0.1675
23782SOL    HW172787   7.787   3.257   9.524 -0.0228  0.7710 -1.8064
23782SOL    HW272788   7.907   3.281   9.613 -1.0839 -1.2702  0.2815
23783SOL     OW72789   6.959   2.522   7.713  0.5812 -0.1863 -0.0304
23783SOL    HW172790   7.028   2.464   7.744  1.4010  0.6078 -0.3258
23783SOL    HW272791   6.985   2.545   7.623 -0.6383 -0.7417 -0.5477
23784SOL     OW72792   1.116   1.677   3.544 -0.0678  0.4593  0.4213
23784SOL    HW172793   1.076   1.760   3.519 -2.2537 -1.4114 -3.2767
23784SOL    HW272794   1.066   1.648   3.620 -0.8659  1.4971  0.3090
23785SOL     OW72795   5.563   5.306   0.078  0.5421 -0.0472 -0.5591
23785SOL    HW172796   5.483   5.297   0.129  0.3306 -0.3552 -0.9431
23785SOL    HW272797   5.580   5.400   0.075  1.0006 -0.0661  0.7667
23786SOL     OW72798   4.706   0.775   2.817 -0.0935 -0.9618  0.0720
23786SOL    HW172799   4.668   0.795   2.731 -0.1061 -0.5894  0.1658
23786SOL    HW272800   4.785   0.725   2.797  0.4492 -0.0138 -0.1937
23787SOL     OW72801   7.187   6.660  10.598 -0.0060  0.8173  0.2688
23787SOL    HW172802   7.199   6.700  10.683 -2.5397  1.0318  0.5971
23787SOL    HW272803   7.187   6.733  10.536  0.6934  0.7757  0.2172
23788SOL     OW72804   4.036   5.755   7.959 -0.3593 -0.3092  0.0492
23788SOL    HW172805   4.077   5.695   7.897 -0.6192  1.2286 -1.6841
23788SOL    HW272806   3.942   5.739   7.949 -0.6652  2.3828 -2.7334
23789SOL     OW72807   6.692   4.185   0.354 -0.4575  0.6791  0.0451
23789SOL    HW172808   6.615   4.241   0.355  0.5838  2.2146  2.2679
23789SOL    HW272809   6.742   4.211   0.431  1.1274 -1.9254  0.0197
23790SOL     OW72810   0.593   7.917   5.331  0.3666 -0.4278  0.2118
23790SOL    HW172811   0.509   7.932   5.373  0.1980 -2.9082  0.9340
23790SOL    HW272812   0.583   7.954   5.243 -0.7364  1.0963  0.9439
23791SOL     OW72813   6.312   1.855  12.459 -0.7665 -0.0071  0.0200
23791SOL    HW172814   6.353   1.877  12.375 -0.9972 -0.1775 -0.1396
23791SOL    HW272815   6.251   1.928  12.474  1.1275  1.3964  1.3299
23792SOL     OW72816   3.773   1.143   9.652 -0.3716  0.0100 -0.5405
23792SOL    HW172817   3.863   1.112   9.665 -0.6186 -1.4655 -2.0559
23792SOL    HW272818   3.739   1.155   9.741  1.5712  1.4538  0.0759
23793SOL     OW72819   7.605   4.579   3.153 -0.2993  0.1378 -0.2084
23793SOL    HW172820   7.667   4.569   3.081 -1.1463 -0.5081 -0.8678
23793SOL    HW272821   7.588   4.673   3.156  0.5021  0.2940 -0.1861
23794SOL     OW72822   4.787   3.948   0.679  0.2935  0.6031 -0.3041
23794SOL    HW172823   4.778   3.871   0.736 -1.6985 -0.0151 -1.3420
23794SOL    HW272824   4.714   4.005   0.705 -0.2767  0.5847 -1.7744
23795SOL     OW72825   6.464   1.367   1.576 -0.0128  0.4343 -0.4524
23795SOL    HW172826   6.538   1.316   1.610 -0.9532  1.1749  3.0740
23795SOL    HW272827   6.486   1.458   1.595 -2.3821  0.5768  2.1643
23796SOL     OW72828   1.239   1.211  10.865 -0.6868  0.1478 -0.1107
23796SOL    HW172829   1.300   1.144  10.836  0.4946  1.0372  0.2086
23796SOL    HW272830   1.290   1.265  10.926 -1.8332  0.8550  0.2638
23797SOL     OW72831   7.457   0.620   4.690 -0.6126 -0.3165 -0.2075
23797SOL    HW172832   7.377   0.571   4.670 -2.0191  2.6806 -2.8165
23797SOL    HW272833   7.426   0.694   4.743  0.5636  0.4378 -0.5404
23798SOL     OW72834   6.413   1.914  10.997  0.1861  0.7221 -0.1434
23798SOL    HW172835   6.439   1.996  11.038 -0.9289  0.7051  0.6616
23798SOL    HW272836   6.414   1.932  10.903  0.7333  1.4014 -0.0115
23799SOL     OW72837   4.274   4.058   5.782  0.2558 -0.1695  0.2374
23799SOL    HW172838   4.178   4.053   5.790  0.0969  1.0004 -0.6580
23799SOL    HW272839   4.293   4.012   5.701  0.4573 -0.3737  0.3992
23800SOL     OW72840   2.883   5.581   4.746  0.2957 -0.3281  0.1449
23800SOL    HW172841   2.930   5.499   4.763 -0.2522 -0.2601  2.1898
23800SOL    HW272842   2.804   5.575   4.799 -0.0422  1.2979 -0.1268
23801SOL     OW72843   3.418   6.191   1.089 -0.3733 -0.0896  0.2177
23801SOL    HW172844   3.457   6.115   1.133 -0.7488 -0.5079 -0.1663
23801SOL    HW272845   3.485   6.218   1.026 -0.4439 -0.4172 -0.0011
23802SOL     OW72846   2.354   6.190   0.757  0.4793  0.1832  0.0335
23802SOL    HW172847   2.282   6.199   0.820  0.4780 -0.5443  0.1409
23802SOL    HW272848   2.396   6.107   0.779  0.2575 -0.2667 -1.1433
23803SOL     OW72849   5.859   6.553   6.275  0.0629 -0.2703  0.0163
23803SOL    HW172850   5.947   6.572   6.241 -0.2901 -0.0738 -0.8169
23803SOL    HW272851   5.806   6.538   6.197 -0.9355  0.8542  0.4378
23804SOL     OW72852   2.154   6.073  10.548  0.3071 -0.3062  0.2594
23804SOL    HW172853   2.165   6.080  10.643  3.3518 -0.0929 -0.0263
23804SOL    HW272854   2.118   5.986  10.534  0.9515 -0.8062  1.5602
23805SOL     OW72855   5.265   5.306  10.701 -0.3811  0.2561 -0.1488
23805SOL    HW172856   5.289   5.374  10.764  0.2694  1.1080 -1.2773
23805SOL    HW272857   5.181   5.272  10.733  0.5705 -0.3005  1.9177
23806SOL     OW72858   5.220   7.893   7.872  0.6311  0.5085  0.7332
23806SOL    HW172859   5.185   7.813   7.834  0.3533  0.6358  0.7146
23806SOL    HW272860   5.185   7.895   7.961 -1.9557  2.1456 -0.2010
23807SOL     OW72861   0.351   5.492   4.726  0.0911 -0.0795  0.0201
23807SOL    HW172862   0.429   5.529   4.768  1.0957 -1.1023 -0.8442
23807SOL    HW272863   0.277   5.536   4.767  1.1712  2.2391 -0.3921
23808SOL     OW72864   5.263   3.648   2.670  0.1405 -1.0455  0.2388
23808SOL    HW172865   5.307   3.711   2.727  2.1669 -2.2168  0.0493
23808SOL    HW272866   5.274   3.564   2.714  0.3752 -1.7380 -1.0914
23809SOL     OW72867   6.189   7.786   4.335  0.1099 -0.1028  0.1836
23809SOL    HW172868   6.284   7.801   4.341 -0.0530  0.9432  0.2526
23809SOL    HW272869   6.150   7.852   4.391 -0.6662 -0.6868  0.3513
23810SOL     OW72870   2.885   2.644   9.031 -0.1006  0.5586 -0.0484
23810SOL    HW172871   2.898   2.585   9.104 -1.3280  1.3206  0.8321
23810SOL    HW272872   2.806   2.611   8.987  0.7551 -0.0388 -1.2150
23811SOL     OW72873   0.256   7.363   6.291 -0.3238 -0.5043 -0.2404
23811SOL    HW172874   0.341   7.374   6.332 -0.0913 -2.4323 -0.1306
23811SOL    HW272875   0.196   7.347   6.364 -0.8671  0.9961 -0.2995
23812SOL     OW72876   2.425   3.754   7.491 -0.4843 -0.6765 -0.3629
23812SOL    HW172877   2.361   3.731   7.423 -2.4437 -0.2962  1.2401
23812SOL    HW272878   2.470   3.672   7.509 -0.9692 -1.1210 -1.0791
23813SOL     OW72879   1.455   2.906   4.030 -0.0920  0.5274 -0.5228
23813SOL    HW172880   1.500   2.933   4.110 -1.9526 -0.2345  0.8495
23813SOL    HW272881   1.369   2.878   4.059 -0.6148 -0.3882 -2.7389
23814SOL     OW72882   2.502   1.807   8.586 -0.2748 -0.2612 -0.4738
23814SOL    HW172883   2.411   1.778   8.578 -1.3085  2.1058  1.2280
23814SOL    HW272884   2.506   1.887   8.533  1.3083 -1.2001 -1.8347
23815SOL     OW72885   0.763   2.168   9.543 -0.4312  0.0235  0.5409
23815SOL    HW172886   0.740   2.252   9.503 -0.1809  0.4009  1.1629
23815SOL    HW272887   0.814   2.123   9.477 -2.6274 -0.7134 -0.7668
23816SOL     OW72888   1.144   4.061   5.322  0.4262  0.6503 -0.3193
23816SOL    HW172889   1.096   4.134   5.361  2.1947  1.2468  0.8911
23816SOL    HW272890   1.110   3.983   5.368  0.1531  0.9744  0.0319
23817SOL     OW72891   2.947   6.169   0.934 -0.0114 -0.0826  0.1047
23817SOL    HW172892   3.006   6.172   0.858 -0.0823  1.0183  0.0745
23817SOL    HW272893   2.860   6.187   0.898 -0.2023 -0.5795  0.3076
23818SOL     OW72894   0.972   7.821   9.310 -0.1017  0.1809  0.4891
23818SOL    HW172895   0.908   7.885   9.280 -0.2157 -0.8027 -1.5012
23818SOL    HW272896   1.053   7.845   9.267  0.0231 -0.6048  0.2724
23819SOL     OW72897   0.150   4.635   7.677  0.1791  0.3797  0.2131
23819SOL    HW172898   0.064   4.594   7.687  0.2743  0.0766 -0.1862
23819SOL    HW272899   0.209   4.583   7.732 -0.2103  1.6520  1.9218
23820SOL     OW72900   3.091   5.174   6.971  0.2995 -0.2920 -0.4026
23820SOL    HW172901   3.129   5.086   6.976  1.5459  0.2133 -0.6577
23820SOL    HW272902   3.128   5.212   6.891 -0.9416  0.1527 -0.7894
23821SOL     OW72903   4.529   3.306   1.294  0.0344 -0.4084 -0.3766
23821SOL    HW172904   4.602   3.341   1.345  0.5720  1.0979 -2.0492
23821SOL    HW272905   4.527   3.213   1.314  1.4879 -0.2133  0.8094
23822SOL     OW72906   6.070   1.820   5.355 -0.5042  0.4151  0.5241
23822SOL    HW172907   6.014   1.747   5.326  0.2526 -0.1088  0.3594
23822SOL    HW272908   6.058   1.823   5.450  0.1770 -0.5477  0.6563
23823SOL     OW72909   5.070   4.507   8.493  0.2405 -0.0028  0.1800
23823SOL    HW172910   4.985   4.515   8.536 -0.5499 -1.7646 -0.8997
23823SOL    HW272911   5.049   4.511   8.399  1.1594 -1.5131 -0.1282
23824SOL     OW72912   3.168   6.903   3.555 -0.1626 -0.2465  0.0169
23824SOL    HW172913   3.114   6.932   3.628 -0.2056  0.0964 -0.1504
23824SOL    HW272914   3.121   6.828   3.518 -0.5029  0.0210 -0.0988
23825SOL     OW72915   6.448   1.731   5.051 -0.0277 -0.0175  0.1609
23825SOL    HW172916   6.413   1.801   4.997 -0.9791  0.4766  1.3697
23825SOL    HW272917   6.409   1.651   5.015 -2.2563  0.4876  1.2915
23826SOL     OW72918   1.935   0.843   9.438  0.0044  0.2839 -0.6557
23826SOL    HW172919   1.994   0.833   9.513  0.4070 -0.8443 -1.0991
23826SOL    HW272920   1.899   0.756   9.424  0.4824  0.3011 -2.2091
23827SOL     OW72921   1.675   5.436   7.336 -0.2598  0.2175 -0.2834
23827SOL    HW172922   1.714   5.470   7.417 -1.0555 -0.5037  0.4310
23827SOL    HW272923   1.736   5.462   7.267 -1.1915  3.7526  0.0442
23828SOL     OW72924   7.158   6.684   5.017 -0.1199 -0.0168  0.3716
23828SOL    HW172925   7.116   6.622   4.956 -2.3844  1.0787  0.7079
23828SOL    HW272926   7.173   6.632   5.096  0.0793 -0.6864 -0.0925
23829SOL     OW72927   7.894   4.421  10.920 -0.1759  0.0122  0.9577
23829SOL    HW172928   7.925   4.503  10.958  2.3588  0.1751 -1.1530
23829SOL    HW272929   7.974   4.375  10.894 -1.5216 -3.0463  1.7937
23830SOL     OW72930   6.517   5.115   4.438  0.1576  0.3121 -0.1217
23830SOL    HW172931   6.475   5.192   4.478  0.5944  0.7722 -0.5271
23830SOL    HW272932   6.605   5.146   4.414 -0.0851  0.0678 -1.4337
23831SOL     OW72933   5.164   1.715   2.271  0.5461  0.5768 -0.3196
23831SOL    HW172934   5.153   1.795   2.322  1.3722  0.3118  0.2856
23831SOL    HW272935   5.257   1.713   2.248  0.5192 -0.1754 -0.3893
23832SOL     OW72936   1.779   7.949   3.066 -0.6559  0.3692  0.4272
23832SOL    HW172937   1.775   8.034   3.110 -0.1103  0.4155  0.3954
23832SOL    HW272938   1.842   7.898   3.117  0.1810  0.5125 -0.4333
23833SOL     OW72939   3.406   0.676  12.242 -0.5772  0.1268  0.1157
23833SOL    HW172940   3.449   0.762  12.240  0.1871 -0.1666  1.8197
23833SOL    HW272941   3.472   0.615  12.207 -1.4303  0.2968 -1.9320
23834SOL     OW72942   3.284   4.457   0.876  0.4063 -0.3692 -0.2555
23834SOL    HW172943   3.254   4.531   0.822 -1.0089 -1.1971 -0.6522
23834SOL    HW272944   3.369   4.485   0.909 -0.9759  2.3697  1.3483
23835SOL     OW72945   0.994   5.439   8.172  0.1880  0.2652 -0.1408
23835SOL    HW172946   1.042   5.364   8.206 -1.0460 -0.1294  0.7772
23835SOL    HW272947   0.918   5.402   8.128 -0.1300  0.9518 -0.1881
23836SOL     OW72948   3.524   1.471   5.457  0.3159 -0.0400 -0.1991
23836SOL    HW172949   3.432   1.475   5.484  0.3668  1.6004 -0.1267
23836SOL    HW272950   3.571   1.447   5.537  0.0356  0.1929  0.0408
23837SOL     OW72951   2.791   2.769   5.723  0.2678 -0.0402 -0.1326
23837SOL    HW172952   2.878   2.731   5.715  0.1751 -0.2033 -0.3956
23837SOL    HW272953   2.797   2.828   5.797  0.5978 -0.0651 -0.1383
23838SOL     OW72954   6.537   5.844   4.900  0.1514  0.3822 -0.4275
23838SOL    HW172955   6.486   5.912   4.943  1.3639 -0.8791  3.4005
23838SOL    HW272956   6.480   5.766   4.903  1.1838 -0.3490  1.3704
23839SOL     OW72957   5.505   5.994   3.498 -0.2794  0.0893 -0.5407
23839SOL    HW172958   5.565   5.986   3.573 -1.2569 -0.2281  0.2304
23839SOL    HW272959   5.435   6.051   3.530 -1.5126 -1.2853 -0.6664
23840SOL     OW72960   2.488   5.646   3.493  0.0375  0.6168  0.0355
23840SOL    HW172961   2.419   5.636   3.427 -0.0251  4.2633 -0.6853
23840SOL    HW272962   2.452   5.604   3.572 -1.9325  0.2761 -0.9731
23841SOL     OW72963   2.273   5.882   3.727 -0.3634 -0.4243  0.1798
23841SOL    HW172964   2.215   5.940   3.775 -1.5182 -0.3448 -1.2321
23841SOL    HW272965   2.359   5.922   3.735 -0.8137  0.4745  0.7601
23842SOL     OW72966   2.101   3.976   3.661  0.2112 -0.1389 -0.4111
23842SOL    HW172967   2.115   4.062   3.621 -0.1175  0.6464  1.0967
23842SOL    HW272968   2.189   3.946   3.683  0.2014  0.8956  1.1872
23843SOL     OW72969   2.001   2.276  10.968 -0.2581  0.0576 -0.3802
23843SOL    HW172970   1.998   2.350  11.029 -0.0603 -0.0077 -0.2902
23843SOL    HW272971   2.072   2.297  10.908 -0.5557  0.1951 -0.6862
23844SOL     OW72972   1.732   0.516   3.105  0.1494 -0.3845  0.3223
23844SOL    HW172973   1.722   0.460   3.182 -0.0670 -0.1010  0.5012
23844SOL    HW272974   1.668   0.586   3.117  1.8198  1.0987  1.1724
23845SOL     OW72975   4.408   5.672   4.927 -0.1185  0.0641  0.0414
23845SOL    HW172976   4.369   5.758   4.906 -0.6182 -0.6067 -2.0914
23845SOL    HW272977   4.482   5.693   4.984  0.1659  2.0048 -0.9207
23846SOL     OW72978   7.379   1.489  12.204 -0.2182  0.0750 -0.2084
23846SOL    HW172979   7.411   1.422  12.264  1.5767  2.8526  2.2037
23846SOL    HW272980   7.426   1.473  12.122  1.7612 -0.3926  0.9662
23847SOL     OW72981   6.487   4.201   2.207 -0.1712  0.1906 -0.0305
23847SOL    HW172982   6.530   4.118   2.227 -0.9640 -0.2190  0.0111
23847SOL    HW272983   6.506   4.216   2.114  4.0836  2.4343  0.9373
23848SOL     OW72984   2.791   3.280  12.165 -0.3423  0.4117  0.2762
23848SOL    HW172985   2.831   3.193  12.164 -0.3577  0.3984 -1.3559
23848SOL    HW272986   2.817   3.319  12.082 -1.2910  1.5433  0.4898
23849SOL     OW72987   4.633   0.113  11.975 -0.1635  0.0982 -0.0142
23849SOL    HW172988   4.571   0.045  12.003  2.7749 -2.2460  1.3140
23849SOL    HW272989   4.652   0.091  11.883  0.3163 -0.5518  0.2305
23850SOL     OW72990   6.628   2.056   9.937 -0.3151 -0.1535 -0.1792
23850SOL    HW172991   6.550   2.045   9.883 -0.7213 -0.0559  0.3846
23850SOL    HW272992   6.605   2.019  10.022  1.1824 -2.7353 -0.7824
23851SOL     OW72993   7.573   1.420   6.029 -0.1383 -0.5344 -0.3740
23851SOL    HW172994   7.590   1.514   6.041  2.9001 -1.0515  0.2521
23851SOL    HW272995   7.651   1.377   6.063 -1.1596 -3.3060 -1.2344
23852SOL     OW72996   7.473   6.061   7.187  0.2731 -0.2381 -0.1082
23852SOL    HW172997   7.491   6.147   7.225  1.3567 -0.1137 -0.8521
23852SOL    HW272998   7.441   6.009   7.260 -0.4131  0.7961  0.3524
23853SOL     OW72999   5.200   3.216   1.063 -0.3544 -0.3290 -0.2305
23853SOL    HW173000   5.224   3.309   1.064  0.1403 -0.4246  2.0403
23853SOL    HW273001   5.280   3.170   1.038  0.3277 -0.2974  1.7627
23854SOL     OW73002   7.521   2.566   4.735 -0.2253  0.2224 -0.3770
23854SOL    HW173003   7.437   2.559   4.691 -0.6719  0.3656  0.4366
23854SOL    HW273004   7.586   2.548   4.667 -0.8847  0.7893 -1.1666
23855SOL     OW73005   5.640   3.971   5.208 -0.1385 -0.2194 -0.4089
23855SOL    HW173006   5.695   4.009   5.138  1.5656 -1.7891 -0.0015
23855SOL    HW273007   5.551   3.976   5.173  0.5803 -0.3400 -2.4218
23856SOL     OW73008   0.658   6.849   3.061 -0.0896 -0.0449  0.4123
23856SOL    HW173009   0.737   6.835   3.008 -0.1315  2.1660 -0.3375
23856SOL    HW273010   0.688   6.839   3.151  0.6789 -0.8444  0.0889
23857SOL     OW73011   1.209   2.859   9.757  0.1208 -0.1972 -0.2731
23857SOL    HW173012   1.239   2.949   9.743  0.1082  0.1012  1.3478
23857SOL    HW273013   1.283   2.804   9.729  0.3055  0.3263 -0.8394
23858SOL     OW73014   6.828   7.009   5.718 -0.0060  0.1459 -0.1192
23858SOL    HW173015   6.771   7.020   5.795 -0.6191 -0.6118 -0.4534
23858SOL    HW273016   6.777   6.955   5.658  1.1972 -0.8104 -0.3039
23859SOL     OW73017   6.143   7.463   8.352 -0.1642 -0.0798  0.3940
23859SOL    HW173018   6.152   7.530   8.420  0.4003 -1.4435  1.7340
23859SOL    HW273019   6.186   7.386   8.389 -2.2766 -1.7220 -0.3366
23860SOL     OW73020   3.065   4.450   0.307  0.2565  0.4363 -0.1466
23860SOL    HW173021   2.987   4.497   0.276 -0.7722  0.3884  2.1948
23860SOL    HW273022   3.073   4.475   0.399  1.1663 -2.0030  0.5124
23861SOL     OW73023   2.038   5.664  11.548  0.7776  0.4478  0.6431
23861SOL    HW173024   2.045   5.608  11.626  0.3768  0.0125  0.3695
23861SOL    HW273025   1.970   5.728  11.571 -0.4717 -0.6370  0.0898
23862SOL     OW73026   3.206   3.647   4.216  0.4165 -0.3624 -0.1908
23862SOL    HW173027   3.264   3.571   4.213  0.9063  0.0081 -0.1997
23862SOL    HW273028   3.169   3.653   4.127  1.9922  0.6477 -0.8084
23863SOL     OW73029   7.629   3.024   5.195  0.0106  0.2464 -0.6325
23863SOL    HW173030   7.578   2.968   5.136 -1.8262  1.1732 -0.0268
23863SOL    HW273031   7.690   3.070   5.139 -1.1204  0.4835 -1.7095
23864SOL     OW73032   6.640   6.624  10.634 -0.4183  0.1113  0.0370
23864SOL    HW173033   6.705   6.691  10.612 -0.3976  0.1289  0.1533
23864SOL    HW273034   6.588   6.615  10.554 -1.5393  1.5235  0.5654
23865SOL     OW73035   1.690   3.926   5.525  0.6596 -0.4058  0.2062
23865SOL    HW173036   1.689   3.924   5.621 -0.5285  0.4990  0.2323
23865SOL    HW273037   1.760   3.989   5.504 -0.6550  1.2516  0.5664
23866SOL     OW73038   3.335   0.984   6.595  0.5804 -0.0119  0.4621
23866SOL    HW173039   3.277   1.048   6.553 -1.2644 -1.4043  0.7440
23866SOL    HW273040   3.285   0.952   6.670  2.7809  0.5501  2.2792
23867SOL     OW73041   7.124   4.722   7.902 -0.5894  0.2875 -0.2588
23867SOL    HW173042   7.045   4.776   7.896  1.4421  3.5481 -0.4472
23867SOL    HW273043   7.132   4.700   7.994 -0.8542  1.4376  0.0585
23868SOL     OW73044   0.266   2.668   4.197 -0.6154  0.1590 -0.0506
23868SOL    HW173045   0.283   2.710   4.113  0.6310  0.3879  0.2944
23868SOL    HW273046   0.333   2.705   4.256 -1.6871  0.2757  1.1280
23869SOL     OW73047   5.307   4.640   3.519 -0.4612  0.2299 -0.2591
23869SOL    HW173048   5.387   4.678   3.484 -0.6517  1.1533  0.2699
23869SOL    HW273049   5.246   4.640   3.445 -0.7434  1.8190 -0.0658
23870SOL     OW73050   3.267   3.044   6.986  0.3142  0.1304  0.1768
23870SOL    HW173051   3.277   2.965   6.932  1.4939  0.7569 -0.5750
23870SOL    HW273052   3.233   3.110   6.926 -1.8876 -0.0933  1.1002
23871SOL     OW73053   7.546   2.563  11.734 -0.2305 -0.2792  0.1381
23871SOL    HW173054   7.574   2.542  11.645 -0.1739  0.6849 -0.0759
23871SOL    HW273055   7.466   2.614  11.723 -0.8244 -1.0677  0.6773
23872SOL     OW73056   3.363   6.996  10.267  0.4814  0.0438  0.8068
23872SOL    HW173057   3.450   6.997  10.227  0.6972  0.0133  1.2672
23872SOL    HW273058   3.355   7.082  10.308  0.8575 -0.4379  1.9382
23873SOL     OW73059   3.991   0.792   1.521 -0.3090  0.0935  0.2255
23873SOL    HW173060   4.004   0.751   1.436  1.4505 -0.0709  0.5331
23873SOL    HW273061   3.946   0.726   1.574 -1.4393  0.2124 -0.5716
23874SOL     OW73062   6.178   1.129   5.933  0.2791 -0.6413  0.1022
23874SOL    HW173063   6.101   1.090   5.973 -0.5219  0.2489 -0.5086
23874SOL    HW273064   6.185   1.087   5.847  0.0037 -0.1599 -0.1578
23875SOL     OW73065   4.821   3.693   1.326 -0.4394  0.2049  0.1661
23875SOL    HW173066   4.915   3.712   1.315 -0.6650  1.6211  0.5417
23875SOL    HW273067   4.803   3.626   1.260  0.3160  1.6893 -1.6384
23876SOL     OW73068   7.331   5.161  11.693  0.3327 -0.1664  0.3928
23876SOL    HW173069   7.347   5.073  11.659  0.7224 -0.3810  1.1080
23876SOL    HW273070   7.317   5.149  11.787 -1.4671  0.3295  0.2316
23877SOL     OW73071   6.763   4.023   8.542  0.3204 -0.8210  0.2770
23877SOL    HW173072   6.731   4.092   8.600  1.1592 -0.0023 -0.2082
23877SOL    HW273073   6.858   4.023   8.555  0.4793 -0.8744 -0.8143
23878SOL     OW73074   2.311   2.917   5.878  0.0935  0.3766 -0.0902
23878SOL    HW173075   2.276   2.993   5.926 -0.9289 -0.1290 -0.0116
23878SOL    HW273076   2.352   2.863   5.946  1.5591  1.2339 -0.2559
23879SOL     OW73077   4.059   0.433   0.326  0.5120 -0.2170 -0.0161
23879SOL    HW173078   4.148   0.442   0.291  0.4830  1.6636  0.2613
23879SOL    HW273079   4.047   0.511   0.380 -1.1948 -0.6105  0.2309
23880SOL     OW73080   1.724   3.584   0.710  0.3122 -0.0463 -0.0339
23880SOL    HW173081   1.659   3.615   0.773 -1.3913 -0.3412 -1.5543
23880SOL    HW273082   1.758   3.664   0.670 -0.4033  0.0827 -0.4184
23881SOL     OW73083   7.799   2.491   9.209  0.5921  0.5652 -0.2850
23881SOL    HW173084   7.723   2.459   9.259  0.3322  2.0985  0.3573
23881SOL    HW273085   7.780   2.465   9.119  0.5034 -1.2214  0.2074
23882SOL     OW73086   3.943   6.916   6.878  0.1428  0.3263 -0.0640
23882SOL    HW173087   4.022   6.865   6.893  1.0425  1.7484  0.2981
23882SOL    HW273088   3.962   6.968   6.801  0.0838  1.6173  0.7525
23883SOL     OW73089   7.403   5.303   7.943 -0.1140 -0.0489  0.1068
23883SOL    HW173090   7.478   5.245   7.932 -0.9007 -1.3967  1.3896
23883SOL    HW273091   7.352   5.291   7.862  0.2424 -0.3521 -0.0762
23884SOL     OW73092   1.442   6.169  11.015 -0.6023  0.2057  0.2317
23884SOL    HW173093   1.475   6.250  11.055 -0.7407  1.4020 -1.9440
23884SOL    HW273094   1.358   6.195  10.975  1.2733  0.2506 -4.2275
23885SOL     OW73095   7.808   0.022   8.072 -0.3441  0.5966  0.2887
23885SOL    HW173096   7.845   0.101   8.033 -1.4038  0.8227 -0.2923
23885SOL    HW273097   7.727   0.006   8.023 -0.4716 -0.4844  0.8208
23886SOL     OW73098   0.129   5.571   4.463 -0.0599 -0.4585 -0.0756
23886SOL    HW173099   0.143   5.478   4.478  0.9016 -0.3379 -0.1557
23886SOL    HW273100   0.103   5.578   4.371  0.8353 -0.5628 -0.3431
23887SOL     OW73101   7.930   2.269   3.970 -0.0100  0.5780  0.2117
23887SOL    HW173102   7.906   2.185   4.009 -1.5442  1.3943  1.1090
23887SOL    HW273103   8.025   2.263   3.958 -0.1529 -1.5143 -0.3537
23888SOL     OW73104   4.609   3.117  12.319  0.2347  0.0093  0.0179
23888SOL    HW173105   4.634   3.030  12.349  1.4101 -0.1670 -1.3536
23888SOL    HW273106   4.690   3.168  12.324 -0.2301  0.7709 -0.0487
23889SOL     OW73107   0.395   3.604   5.085  0.4250 -0.0537 -0.1400
23889SOL    HW173108   0.388   3.588   5.179  0.3150  1.3876  0.1187
23889SOL    HW273109   0.479   3.648   5.074  0.6942 -0.7123 -0.8034
23890SOL     OW73110   7.100   3.731   5.221  0.0476 -0.4581 -0.0187
23890SOL    HW173111   7.066   3.657   5.172  0.4445 -1.1625  0.7581
23890SOL    HW273112   7.193   3.733   5.200 -0.0309  0.1016 -0.3718
23891SOL     OW73113   3.820   0.423   3.374 -0.1670 -0.4922 -0.0712
23891SOL    HW173114   3.906   0.397   3.341  0.2027 -0.1134  0.5642
23891SOL    HW273115   3.817   0.518   3.363 -1.7535 -0.7825 -2.9517
23892SOL     OW73116   5.172   6.420   0.882 -0.3167 -0.5204 -0.0172
23892SOL    HW173117   5.116   6.462   0.948  2.6293  4.2827 -0.0986
23892SOL    HW273118   5.212   6.347   0.929 -0.9088  0.6276  2.5002
23893SOL     OW73119   1.721   3.402  11.557  0.3253  0.3732 -0.0845
23893SOL    HW173120   1.696   3.349  11.633  2.3106 -0.3140  0.1365
23893SOL    HW273121   1.776   3.344  11.505 -2.3743  0.2189 -3.0468
23894SOL     OW73122   6.515   1.357   0.339  0.2809 -0.4635 -0.3160
23894SOL    HW173123   6.572   1.288   0.306  0.2091  0.3384 -2.2462
23894SOL    HW273124   6.454   1.375   0.267 -0.6961  0.5411  0.7125
23895SOL     OW73125   5.583   5.567   8.443  0.1665  0.1219 -0.0763
23895SOL    HW173126   5.548   5.599   8.526  2.1968 -0.6376  1.1539
23895SOL    HW273127   5.517   5.506   8.411 -1.0923  1.1517  0.4442
23896SOL     OW73128   7.792   4.420   2.434  0.2146  0.3240 -0.5226
23896SOL    HW173129   7.833   4.468   2.362 -0.3743  0.4069 -0.8100
23896SOL    HW273130   7.763   4.338   2.395  1.7687 -0.5598  0.1107
23897SOL     OW73131   7.837   0.948   3.913  0.1015  0.3828  0.3062
23897SOL    HW173132   7.816   0.869   3.963 -0.2168 -0.5851 -1.2592
23897SOL    HW273133   7.772   0.948   3.842 -0.0076  2.1601  0.3671
23898SOL     OW73134   4.582   5.277  10.687  0.2046  0.0640  0.1266
23898SOL    HW173135   4.530   5.205  10.651  2.3589 -2.1788  1.2105
23898SOL    HW273136   4.619   5.321  10.610  2.0582 -2.5735 -0.6185
23899SOL     OW73137   2.762   6.811   1.998 -0.6313  0.2670  0.2648
23899SOL    HW173138   2.712   6.846   1.924 -1.9956  0.4689  1.2380
23899SOL    HW273139   2.716   6.730   2.022 -1.0637  0.9109  1.7425
23900SOL     OW73140   6.847   3.871   2.646 -0.0877 -0.3078  0.3835
23900SOL    HW173141   6.815   3.788   2.610 -0.4483  0.3789 -0.9337
23900SOL    HW273142   6.929   3.848   2.689  0.8754 -1.0612 -1.6910
23901SOL     OW73143   7.692   0.288   9.643  0.0975  0.3922 -0.5591
23901SOL    HW173144   7.621   0.352   9.641 -0.0231  0.3463  1.0808
23901SOL    HW273145   7.757   0.327   9.701  2.0919  1.0718 -3.0800
23902SOL     OW73146   4.143   4.611  10.576  0.3499  0.2583  0.8045
23902SOL    HW173147   4.188   4.578  10.654 -1.0749 -2.5701  0.5747
23902SOL    HW273148   4.051   4.615  10.602 -0.1279 -0.5547 -0.6534
23903SOL     OW73149   6.874   6.919  12.181 -0.2640  0.1073  0.4098
23903SOL    HW173150   6.792   6.941  12.136 -0.1523 -1.4016 -0.5783
23903SOL    HW273151   6.849   6.854  12.247  0.0987 -0.1359  0.3080
23904SOL     OW73152   7.404   6.161   0.918 -0.7147  0.6155  0.1607
23904SOL    HW173153   7.345   6.176   0.992  0.3180  0.8713  0.9405
23904SOL    HW273154   7.384   6.233   0.857  0.2753  1.9821  1.3858
23905SOL     OW73155   7.035   0.404   7.641 -0.0783 -0.2841 -0.2096
23905SOL    HW173156   7.046   0.432   7.732  0.5636 -1.7766  0.2018
23905SOL    HW273157   6.945   0.428   7.619  0.2329  1.4554  0.3029
23906SOL     OW73158   1.602   4.454   8.198  0.6404 -0.1880  0.2448
23906SOL    HW173159   1.515   4.459   8.158 -0.0366  0.6166  1.7056
23906SOL    HW273160   1.639   4.372   8.166 -0.3298 -0.1469 -1.0381
23907SOL     OW73161   2.648   7.545  11.940 -0.1400 -0.1268 -0.6290
23907SOL    HW173162   2.575   7.580  11.889 -0.4737  1.6308  0.9301
23907SOL    HW273163   2.607   7.488  12.005 -0.3215  1.5636  0.8343
23908SOL     OW73164   4.761   0.372   0.225 -0.0368  0.3395  0.0938
23908SOL    HW173165   4.849   0.336   0.239  0.1300  0.1505 -1.2598
23908SOL    HW273166   4.768   0.464   0.253 -0.3706 -0.4804  3.2319
23909SOL     OW73167   1.599   7.752   8.651  0.1505  0.3800 -0.0169
23909SOL    HW173168   1.572   7.809   8.723  1.3242  1.5520 -0.4832
23909SOL    HW273169   1.553   7.670   8.668 -0.1128  0.8419  1.7101
23910SOL     OW73170   6.544   6.471   5.399 -0.2161 -0.1301  0.0495
23910SOL    HW173171   6.528   6.378   5.412 -0.7061 -0.0077  0.3586
23910SOL    HW273172   6.526   6.486   5.306  1.7030 -0.6965 -0.4525
23911SOL     OW73173   2.495   2.587   1.097  0.1705  0.1520  0.2086
23911SOL    HW173174   2.542   2.586   1.180  0.9618 -0.4998 -0.2309
23911SOL    HW273175   2.532   2.661   1.049  0.4153 -0.0722  0.0498
23912SOL     OW73176   4.484   4.899   2.952  0.1467 -0.6336  0.1175
23912SOL    HW173177   4.471   4.913   3.046  0.1524  2.0958 -0.2198
23912SOL    HW273178   4.424   4.827   2.930  0.5130 -1.6881  2.2515
23913SOL     OW73179   1.117   1.612   7.464  0.2561  0.1308 -0.3279
23913SOL    HW173180   1.095   1.699   7.431 -2.7816 -0.0177  0.9669
23913SOL    HW273181   1.032   1.569   7.476  1.6360 -2.9933 -0.7673
23914SOL     OW73182   0.889   6.153   2.198 -0.6539 -0.1567  0.3648
23914SOL    HW173183   0.898   6.199   2.115  1.5291 -0.3793  0.4226
23914SOL    HW273184   0.865   6.221   2.261 -0.1209  0.4230 -0.0473
23915SOL     OW73185   2.296   1.641   2.514 -0.4271 -0.3761  0.1339
23915SOL    HW173186   2.220   1.654   2.458 -0.4534  0.8440  0.4197
23915SOL    HW273187   2.263   1.590   2.588 -0.2870 -2.4106 -1.1304
23916SOL     OW73188   7.699   1.816   1.988  0.3741 -0.2932 -0.4149
23916SOL    HW173189   7.788   1.846   2.003 -0.1918  0.7657  1.0212
23916SOL    HW273190   7.687   1.744   2.051 -0.2127  0.4809  0.3814
23917SOL     OW73191   5.104   1.035  10.281  0.2091  0.8324  0.0946
23917SOL    HW173192   5.038   1.101  10.258  0.7281  0.9762 -1.0440
23917SOL    HW273193   5.188   1.078  10.264  0.5474 -0.3640 -1.4110
23918SOL     OW73194   0.691   0.689  11.927  0.2233  0.1721  0.3444
23918SOL    HW173195   0.735   0.772  11.949  2.0538  0.1145 -2.5201
23918SOL    HW273196   0.609   0.715  11.887 -0.6076  0.4303  2.1218
23919SOL     OW73197   4.257   7.795  12.321 -0.3541 -0.6785  0.3363
23919SOL    HW173198   4.260   7.891  12.327  0.6633 -0.7250  0.7254
23919SOL    HW273199   4.164   7.774  12.323 -0.6947  0.4111 -1.5746
23920SOL     OW73200   3.222   3.296   4.144 -0.3509 -0.0896 -0.1113
23920SOL    HW173201   3.180   3.329   4.065  0.9162 -1.0091 -1.2222
23920SOL    HW273202   3.285   3.363   4.169 -1.1126  0.4348  0.4490
23921SOL     OW73203   0.875   1.544   5.703 -0.2747 -0.0568 -0.0750
23921SOL    HW173204   0.909   1.508   5.620 -0.2690 -0.2408  0.0078
23921SOL    HW273205   0.780   1.537   5.695 -0.2512 -1.5273  0.5745
23922SOL     OW73206   7.691   7.611   5.281 -0.2435  0.2028 -0.9253
23922SOL    HW173207   7.654   7.657   5.205 -0.4333 -0.5481 -1.3005
23922SOL    HW273208   7.786   7.615   5.267 -0.2395  0.8963 -0.7040
23923SOL     OW73209   4.531   2.110  11.896  0.5454 -0.3035 -0.1012
23923SOL    HW173210   4.584   2.093  11.974  0.1403  0.5482  0.3751
23923SOL    HW273211   4.557   2.198  11.869 -2.0158  1.0072  1.3271
23924SOL     OW73212   3.344   0.529   5.547 -0.4580 -0.8424 -0.3234
23924SOL    HW173213   3.289   0.454   5.569  0.7838 -1.2589  1.5686
23924SOL    HW273214   3.299   0.604   5.586 -0.2200 -1.0364  0.3379
23925SOL     OW73215   0.079   3.050   8.556 -0.3201  0.2139  0.2170
23925SOL    HW173216   0.002   3.031   8.609  0.1156 -1.5486  0.2687
23925SOL    HW273217   0.147   3.074   8.620 -0.0572 -0.9800  0.3936
23926SOL     OW73218   1.134   1.404   3.029 -0.6481 -0.5042 -0.2167
23926SOL    HW173219   1.130   1.460   3.107 -1.5203 -1.8578  0.7314
23926SOL    HW273220   1.196   1.450   2.971 -1.5247  1.5762  0.3946
23927SOL     OW73221   2.320   1.881   9.227  0.1416  0.4117  0.4909
23927SOL    HW173222   2.236   1.926   9.233 -0.3034 -0.4471  0.9768
23927SOL    HW273223   2.317   1.816   9.297 -0.0957 -1.7426 -1.4052
23928SOL     OW73224   3.517   0.761  10.008 -0.0053  0.1262  0.1056
23928SOL    HW173225   3.501   0.839   9.954 -0.7301 -0.4728 -0.5683
23928SOL    HW273226   3.479   0.689   9.958  0.5036 -0.6429  0.8028
23929SOL     OW73227   0.188   5.787   8.389 -0.2753  0.2661  0.0595
23929SOL    HW173228   0.133   5.845   8.337  0.4153  0.7721 -0.1192
23929SOL    HW273229   0.146   5.701   8.381  0.8893 -0.1735 -3.1183
23930SOL     OW73230   6.375   6.193  10.071 -0.2705  0.2497  0.3303
23930SOL    HW173231   6.335   6.181  10.157 -2.6594 -2.2657 -0.9966
23930SOL    HW273232   6.302   6.200  10.011  1.2536 -1.4578 -1.8830
23931SOL     OW73233   3.746   5.481  10.803 -0.0299  0.7553 -0.0793
23931SOL    HW173234   3.759   5.576  10.803  0.8720  0.6507  1.0823
23931SOL    HW273235   3.702   5.464  10.886  1.1014  0.0053  0.3828
23932SOL     OW73236   3.103   0.865   1.943  0.6371  0.0271 -0.0417
23932SOL    HW173237   3.021   0.914   1.944  0.9817  0.6117  1.0239
23932SOL    HW273238   3.108   0.829   1.855 -0.1130  1.1012 -0.5462
23933SOL     OW73239   7.902   4.479   3.627  0.2412 -0.7114  0.5911
23933SOL    HW173240   7.926   4.464   3.535  0.1724 -1.6858  0.7287
23933SOL    HW273241   7.884   4.392   3.662 -2.8702 -0.1475  0.6853
23934SOL     OW73242   1.917   7.682  10.750 -0.1231  0.7182 -0.0630
23934SOL    HW173243   1.947   7.771  10.731 -0.3165  0.9292  0.5850
23934SOL    HW273244   1.822   7.691  10.760 -0.0508  0.6159  0.8798
23935SOL     OW73245   5.709   1.082   3.702  0.8727  0.2074  0.3881
23935SOL    HW173246   5.643   1.054   3.638 -2.0286  0.3588  3.0613
23935SOL    HW273247   5.748   1.001   3.734  0.4552 -0.0544  0.2461
23936SOL     OW73248   4.839   1.489   1.150  0.0087  0.5807 -0.2694
23936SOL    HW173249   4.846   1.536   1.066  0.1628  0.9649 -0.0453
23936SOL    HW273250   4.831   1.559   1.215 -1.1575  0.2806 -0.0570
23937SOL     OW73251   7.121   0.529   5.638  0.0463 -0.1395 -0.3914
23937SOL    HW173252   7.171   0.605   5.669 -1.2304  0.3649  0.5100
23937SOL    HW273253   7.030   0.558   5.638 -0.6286 -2.0297  1.2159
23938SOL     OW73254   4.015   2.560   8.179 -0.8118 -0.3803  0.1251
23938SOL    HW173255   3.951   2.498   8.213 -0.3163 -0.4801  0.9078
23938SOL    HW273256   3.964   2.639   8.159 -1.5356 -1.1962 -1.4002
23939SOL     OW73257   7.559   3.644   8.427 -0.0310  0.1646  0.4437
23939SOL    HW173258   7.578   3.550   8.431 -1.6240 -0.2065 -0.0048
23939SOL    HW273259   7.570   3.666   8.334 -1.1008  0.0754  0.2847
23940SOL     OW73260   3.823   1.570   1.246 -0.2159 -0.0538 -0.4214
23940SOL    HW173261   3.767   1.647   1.241  1.6807  1.4215 -0.0569
23940SOL    HW273262   3.770   1.504   1.291 -1.6323  1.2727 -0.0891
23941SOL     OW73263   4.050   6.098   1.722 -0.2015 -0.1998  0.4528
23941SOL    HW173264   3.972   6.044   1.710 -0.0648 -0.2236 -0.3803
23941SOL    HW273265   4.022   6.186   1.695  0.3574 -0.4272 -0.9219
23942SOL     OW73266   6.401   0.603  11.673  0.5046  0.3428 -0.2018
23942SOL    HW173267   6.373   0.514  11.692 -0.6523  0.4055 -1.4727
23942SOL    HW273268   6.495   0.596  11.657  0.2476 -0.8457 -1.3162
23943SOL     OW73269   0.842   4.080   4.661  0.8660  0.1547 -0.0364
23943SOL    HW173270   0.852   3.985   4.654 -0.5611 -0.0894  0.7051
23943SOL    HW273271   0.875   4.100   4.749  1.6702  0.4302 -0.3995
23944SOL     OW73272   1.150   4.337   9.583 -0.0353 -0.5008 -0.1969
23944SOL    HW173273   1.147   4.242   9.568  0.7314 -0.5338 -0.1457
23944SOL    HW273274   1.156   4.346   9.678 -2.2892 -0.3361 -0.0017
23945SOL     OW73275   6.566   4.415   3.793 -0.5059  0.2788 -0.4814
23945SOL    HW173276   6.641   4.385   3.845 -0.0482  3.0935  0.7203
23945SOL    HW273277   6.491   4.370   3.830  0.5481 -3.6337 -2.5566
23946SOL     OW73278   2.346   5.473   5.414 -0.0035  0.0451  0.5786
23946SOL    HW173279   2.359   5.567   5.400  0.7529 -0.1392 -0.0337
23946SOL    HW273280   2.410   5.431   5.357 -1.7403 -0.8903 -0.8176
23947SOL     OW73281   1.257   2.494   3.196 -0.2689 -0.4581  0.5120
23947SOL    HW173282   1.165   2.520   3.208 -0.5289  0.3716 -2.5618
23947SOL    HW273283   1.305   2.546   3.260 -1.7008  1.0993  0.3952
23948SOL     OW73284   7.250   3.823   5.853  0.3340 -0.4049  0.0581
23948SOL    HW173285   7.179   3.759   5.846 -1.1574  0.8079  2.6336
23948SOL    HW273286   7.206   3.908   5.841  1.5182  0.3216  0.7209
23949SOL     OW73287   1.765   4.263   0.979 -0.1324 -0.3232 -0.2853
23949SOL    HW173288   1.711   4.323   1.031  0.1747  0.2286 -0.5910
23949SOL    HW273289   1.846   4.312   0.964 -1.1544  0.6222 -3.4846
23950SOL     OW73290   4.309   1.916   7.283 -0.1612  0.1382 -0.3381
23950SOL    HW173291   4.275   1.895   7.369 -1.3126  0.9444 -0.5703
23950SOL    HW273292   4.334   2.009   7.289 -1.5027  0.5906 -1.2189
23951SOL     OW73293   3.431   6.407   4.884 -0.5677  0.3039  0.2839
23951SOL    HW173294   3.469   6.320   4.878  0.2377  0.4678  2.1752
23951SOL    HW273295   3.369   6.412   4.811  0.2586 -1.3802 -0.5864
23952SOL     OW73296   1.857   2.153   7.575 -0.2189  0.3043 -0.0236
23952SOL    HW173297   1.770   2.194   7.569 -0.5483 -0.4207 -0.4022
23952SOL    HW273298   1.893   2.163   7.487 -0.3800 -0.3737 -0.1707
23953SOL     OW73299   4.156   3.637   2.769 -0.3640  0.2132  0.3462
23953SOL    HW173300   4.208   3.712   2.799 -0.0681 -1.0698  3.3833
23953SOL    HW273301   4.070   3.651   2.808 -1.4759  0.7423 -2.1108
23954SOL     OW73302   6.766   2.070   7.913  0.0092 -0.1792 -0.3980
23954SOL    HW173303   6.733   2.014   7.842 -0.4616  1.6857 -1.7271
23954SOL    HW273304   6.688   2.093   7.963 -0.0588  0.5463 -0.8191
23955SOL     OW73305   7.525   5.302   6.701 -0.3090  0.5596  0.3863
23955SOL    HW173306   7.599   5.271   6.648  0.6853 -0.2452  2.1532
23955SOL    HW273307   7.472   5.223   6.715 -0.3573  0.6806  0.8856
23956SOL     OW73308   0.963   6.330   9.208  0.0053  0.6149 -0.0521
23956SOL    HW173309   0.929   6.277   9.136 -1.8410  0.2984  0.9979
23956SOL    HW273310   1.051   6.356   9.179  0.6743 -2.2850 -0.9945
23957SOL     OW73311   5.722   5.021   8.822  0.3696  0.2268  0.4833
23957SOL    HW173312   5.715   4.931   8.791 -1.6994  0.5167 -0.0463
23957SOL    HW273313   5.728   5.014   8.918  1.5086 -0.4784  0.3788
23958SOL     OW73314   3.795   3.080   0.199 -0.0855  0.5365 -0.5854
23958SOL    HW173315   3.779   3.128   0.117 -0.3417  2.4614  0.5301
23958SOL    HW273316   3.857   3.135   0.247 -2.3849  1.1835  1.8877
23959SOL     OW73317   5.970   7.621   5.290 -0.1879 -0.3027  0.2178
23959SOL    HW173318   5.911   7.594   5.220 -0.7001  0.8051  0.2020
23959SOL    HW273319   5.918   7.681   5.343  0.7655  0.2805  0.5137
23960SOL     OW73320   3.073   2.588   6.616  0.2938 -0.0412  0.1483
23960SOL    HW173321   3.108   2.551   6.697 -1.2838  1.1463  1.4357
23960SOL    HW273322   3.070   2.682   6.632  1.7616  0.4629 -2.0640
23961SOL     OW73323   0.735   5.094  10.383  0.0413 -0.2684  0.2367
23961SOL    HW173324   0.779   5.009  10.384 -0.5028 -0.5517  0.8686
23961SOL    HW273325   0.731   5.120  10.475 -1.0806 -0.2365  0.1904
23962SOL     OW73326   6.850   2.432   6.417  0.1821 -0.4683  0.9574
23962SOL    HW173327   6.824   2.343   6.440  2.3073 -1.1965  0.7997
23962SOL    HW273328   6.882   2.470   6.499 -1.1262  0.3354  1.1183
23963SOL     OW73329   3.026   5.588   8.041 -0.5479 -0.3733  0.1947
23963SOL    HW173330   3.054   5.614   8.129  1.0342 -0.1852 -0.3170
23963SOL    HW273331   3.084   5.516   8.018  1.1757  1.5000 -1.8075
23964SOL     OW73332   1.709   0.999   4.902 -0.0177  0.2037  0.5805
23964SOL    HW173333   1.750   0.919   4.936 -1.5573 -1.0888 -0.4845
23964SOL    HW273334   1.670   0.973   4.819 -2.1606  1.5989  1.0675
23965SOL     OW73335   4.958   0.141   6.644 -0.4141  0.5322 -0.0789
23965SOL    HW173336   4.873   0.099   6.630  0.3519 -1.1678  0.1838
23965SOL    HW273337   4.962   0.156   6.739  0.0581 -0.4546  0.0590
23966SOL     OW73338   3.976   7.185  11.433  0.0119 -0.2358  0.5595
23966SOL    HW173339   3.929   7.161  11.353  0.9102  0.6030 -0.2452
23966SOL    HW273340   4.061   7.143  11.424  0.4636  0.6471  0.6082
23967SOL     OW73341   2.011   2.757   2.495 -0.0178  1.1165 -0.3687
23967SOL    HW173342   1.926   2.772   2.537 -0.5799  0.2399 -1.1525
23967SOL    HW273343   2.075   2.786   2.560 -0.8713  0.4673  0.8086
23968SOL     OW73344   0.217   4.602  11.933  0.4251  0.1606 -0.1247
23968SOL    HW173345   0.171   4.652  11.867  0.0588  0.2599  0.2045
23968SOL    HW273346   0.285   4.662  11.966  1.6001 -0.3770 -1.4517
23969SOL     OW73347   2.750   2.112   2.320  0.0935 -0.1233  0.0010
23969SOL    HW173348   2.813   2.042   2.303 -0.6705 -1.0313  0.7988
23969SOL    HW273349   2.667   2.067   2.331 -0.5412  0.9843 -0.1195
23970SOL     OW73350   2.872   5.204  10.330 -0.7083  0.4137 -0.5076
23970SOL    HW173351   2.795   5.187  10.385 -0.4988  1.5749  0.1884
23970SOL    HW273352   2.856   5.153  10.250 -0.0076 -3.1694  1.4035
23971SOL     OW73353   3.161   2.877  10.958  0.5807  0.5147 -0.1746
23971SOL    HW173354   3.126   2.816  11.023 -1.1367  0.6859 -0.8952
23971SOL    HW273355   3.249   2.843  10.939 -0.0110 -1.2552  0.0641
23972SOL     OW73356   5.131   1.517   8.527  0.1029 -0.3244 -0.1551
23972SOL    HW173357   5.099   1.590   8.581 -1.2411  0.2939 -1.7162
23972SOL    HW273358   5.203   1.480   8.578 -1.6790 -0.3966  2.5389
23973SOL     OW73359   1.987   4.214   1.676  0.3109 -0.0866 -0.7181
23973SOL    HW173360   1.969   4.302   1.710  1.2699  0.3157 -1.1975
23973SOL    HW273361   1.904   4.168   1.681  0.0634  0.4760  0.6505
23974SOL     OW73362   1.068   7.577   4.940 -0.2283 -0.4538 -0.0186
23974SOL    HW173363   1.132   7.598   5.008 -0.7274  2.0599 -0.2386
23974SOL    HW273364   0.984   7.576   4.986 -0.3214 -1.2276 -0.1852
23975SOL     OW73365   0.832   7.671   8.251 -0.2635  0.0324  0.0059
23975SOL    HW173366   0.879   7.614   8.312 -0.0569 -0.3519 -0.5084
23975SOL    HW273367   0.740   7.657   8.272 -0.1967 -0.1236  0.2070
23976SOL     OW73368   6.385   7.252   7.741 -0.3060  0.2918  0.1480
23976SOL    HW173369   6.449   7.274   7.809 -0.5620 -1.3790  0.9669
23976SOL    HW273370   6.336   7.333   7.727  2.6027  2.0034 -1.2771
23977SOL     OW73371   7.113   6.763   5.388 -0.0894  0.0997  0.0832
23977SOL    HW173372   7.092   6.768   5.481 -0.5959 -3.4598  0.3061
23977SOL    HW273373   7.182   6.828   5.375 -1.5958  2.3478  2.3666
23978SOL     OW73374   6.692   2.773   3.118 -0.3014  0.0099  0.1297
23978SOL    HW173375   6.785   2.777   3.140 -0.1644  0.5712 -0.5479
23978SOL    HW273376   6.680   2.836   3.047 -1.2829  0.2600  0.4928
23979SOL     OW73377   2.912   2.183  10.815 -0.4441 -0.2612 -0.1840
23979SOL    HW173378   2.826   2.169  10.774 -0.4141 -1.2651  0.0693
23979SOL    HW273379   2.971   2.126  10.766 -0.3557 -1.2853  1.0749
23980SOL     OW73380   4.613   6.512  10.550 -0.9554 -0.7011 -0.5031
23980SOL    HW173381   4.596   6.459  10.472 -1.1951  1.6417 -2.1284
23980SOL    HW273382   4.708   6.525  10.550 -0.9218 -0.9353 -0.2223
23981SOL     OW73383   6.408   3.590   3.261 -0.4463  0.5402 -0.1834
23981SOL    HW173384   6.421   3.648   3.336  0.2480  1.5973 -1.0918
23981SOL    HW273385   6.363   3.514   3.297  1.3055  0.2858  1.6469
23982SOL     OW73386   0.661   1.603   1.202 -0.3113 -0.0452 -0.1084
23982SOL    HW173387   0.652   1.558   1.286 -1.0979 -0.1106 -0.2168
23982SOL    HW273388   0.746   1.574   1.169 -0.3451 -0.6466  0.3010
23983SOL     OW73389   4.948   4.659   2.516 -0.4240 -0.3901  0.3886
23983SOL    HW173390   4.993   4.599   2.574 -1.5231 -0.7255  0.9356
23983SOL    HW273391   4.980   4.746   2.541  2.1732 -0.7776 -1.3105
23984SOL     OW73392   7.637   3.847   1.246  0.0209 -0.1803 -0.1707
23984SOL    HW173393   7.676   3.868   1.161 -1.7185 -0.5632 -1.1049
23984SOL    HW273394   7.558   3.902   1.249 -0.7419 -1.2915  0.5153
23985SOL     OW73395   4.160   4.725   2.111 -0.3878 -0.0185 -0.1932
23985SOL    HW173396   4.175   4.644   2.159  2.9375  0.0296 -0.9467
23985SOL    HW273397   4.228   4.727   2.044 -0.6611  3.1540 -0.5571
23986SOL     OW73398   4.995   4.352  12.471  0.0556  0.0330  0.1946
23986SOL    HW173399   4.911   4.328  12.510  0.7245 -0.8056  1.1431
23986SOL    HW273400   5.026   4.426  12.524 -0.0680  0.3443 -0.1566
23987SOL     OW73401   5.709   4.798  10.649 -0.1677  0.3013 -0.4207
23987SOL    HW173402   5.719   4.709  10.616  0.7418 -0.0785  0.8078
23987SOL    HW273403   5.773   4.805  10.720  1.1847  2.5499 -1.7112
23988SOL     OW73404   5.642   0.420   3.925  0.5556 -0.0559  0.4923
23988SOL    HW173405   5.569   0.481   3.917 -0.1221 -1.0510 -1.3829
23988SOL    HW273406   5.629   0.378   4.010  0.4186  1.5628  1.3197
23989SOL     OW73407   4.210   7.019  10.330  0.0601  0.2095 -0.6437
23989SOL    HW173408   4.281   6.954  10.337 -0.9514 -0.8602 -0.0134
23989SOL    HW273409   4.195   7.048  10.419  1.2340  2.1910 -1.0300
23990SOL     OW73410   2.043   7.904   1.833  0.3862 -0.7233 -0.2851
23990SOL    HW173411   1.961   7.952   1.839 -0.9124 -2.9757  2.7228
23990SOL    HW273412   2.107   7.960   1.876 -0.2469 -0.1588 -0.0627
23991SOL     OW73413   7.413   1.395   1.100  0.7776 -0.0925 -0.3605
23991SOL    HW173414   7.440   1.359   1.015 -2.0141 -0.5218 -1.1913
23991SOL    HW273415   7.344   1.335   1.130 -0.3225  1.6544  0.7977
23992SOL     OW73416   5.236   5.773   2.307  0.0212  0.2830  0.2416
23992SOL    HW173417   5.226   5.810   2.219 -0.4046  1.8192  0.8922
23992SOL    HW273418   5.324   5.735   2.307  1.1464  2.6599 -0.0828
23993SOL     OW73419   4.767   1.374  10.731  0.5640 -0.1956  0.0257
23993SOL    HW173420   4.718   1.455  10.722  1.5246  0.3314 -0.5957
23993SOL    HW273421   4.770   1.358  10.826  0.7206  0.7111  0.1805
23994SOL     OW73422   6.925   6.091   2.244 -0.4900  0.2018 -0.0770
23994SOL    HW173423   6.899   6.039   2.168 -3.0929 -0.2851  1.0439
23994SOL    HW273424   6.937   6.027   2.314 -0.2168  0.8159  0.4455
23995SOL     OW73425   7.124   1.184   3.842 -0.3056  0.3033 -0.2248
23995SOL    HW173426   7.128   1.278   3.862 -0.1094  0.3191 -0.3329
23995SOL    HW273427   7.215   1.159   3.828 -0.4516  0.3872 -1.4932
23996SOL     OW73428   0.761   7.941   7.509  0.1516 -0.4424 -0.8105
23996SOL    HW173429   0.812   7.898   7.441 -1.6554 -1.9714 -1.2805
23996SOL    HW273430   0.756   7.876   7.580  1.5922  0.9366  0.6467
23997SOL     OW73431   3.694   3.125   1.198 -0.2935 -0.0723 -0.1402
23997SOL    HW173432   3.711   3.066   1.124  0.5877 -1.1207  0.8543
23997SOL    HW273433   3.781   3.147   1.232 -0.5967  1.8657 -0.4976
23998SOL     OW73434   6.706   0.229   0.209 -0.2383 -0.2700 -0.3224
23998SOL    HW173435   6.799   0.248   0.206 -0.4645  0.7435 -2.4588
23998SOL    HW273436   6.693   0.162   0.141 -1.0844 -0.3947 -0.0554
23999SOL     OW73437   2.198   3.814   1.518 -0.0821  0.1861  0.0072
23999SOL    HW173438   2.179   3.801   1.425  1.5280  1.0344 -0.4803
23999SOL    HW273439   2.243   3.734   1.545 -2.0058 -0.7935  0.5509
24000SOL     OW73440   6.263   3.033   8.164 -0.2540  0.4655 -0.4094
24000SOL    HW173441   6.210   3.103   8.200 -0.8478  0.3638 -1.0595
24000SOL    HW273442   6.331   3.017   8.230 -0.0952  1.6602 -0.2628
24001SOL     OW73443   7.516   7.151   4.703  0.1217  0.4655  0.2899
24001SOL    HW173444   7.426   7.184   4.702  0.3144  0.9974  0.4324
24001SOL    HW273445   7.566   7.219   4.746  0.8437  0.8138 -1.0376
24002SOL     OW73446   4.363   5.606  11.053  0.0970 -0.4409  0.1654
24002SOL    HW173447   4.418   5.589  10.976 -1.0282 -0.2820 -0.7043
24002SOL    HW273448   4.420   5.588  11.127  1.1984 -0.6781 -0.7026
24003SOL     OW73449   1.533   5.959   2.765 -0.7562  0.5015  1.0543
24003SOL    HW173450   1.514   5.923   2.851 -1.0433 -0.5935  0.5484
24003SOL    HW273451   1.609   6.016   2.779 -0.5806  0.0597  1.9639
24004SOL     OW73452   5.535   3.799   2.521  0.3845  0.0318 -0.3207
24004SOL    HW173453   5.514   3.791   2.428 -1.2527  0.9869 -0.0731
24004SOL    HW273454   5.573   3.714   2.544 -0.0161 -0.5417 -1.6614
24005SOL     OW73455   7.056   6.784   3.485 -0.0076  0.3731 -0.3857
24005SOL    HW173456   6.976   6.735   3.465 -0.7394  2.2113 -2.4183
24005SOL    HW273457   7.123   6.743   3.430  0.5408 -1.1653  1.3153
24006SOL     OW73458   5.532   5.394   1.887  0.4050 -0.6099 -0.2543
24006SOL    HW173459   5.477   5.325   1.849  0.0707 -0.7434  0.4450
24006SOL    HW273460   5.470   5.449   1.936  0.5228  0.7671 -1.5964
24007SOL     OW73461   7.243   2.091   7.918 -0.5317 -0.2898 -0.1843
24007SOL    HW173462   7.207   2.079   7.830  0.5125 -0.3413 -0.6204
24007SOL    HW273463   7.173   2.134   7.966 -1.1465 -0.3125 -1.0261
24008SOL     OW73464   2.548   0.419   2.398  0.0284  0.3293 -0.0661
24008SOL    HW173465   2.466   0.468   2.402 -0.1657 -0.0158  0.2406
24008SOL    HW273466   2.526   0.338   2.354  0.2941  0.4022 -0.3395
24009SOL     OW73467   0.113   4.200  11.857 -0.0534  0.2191 -0.5227
24009SOL    HW173468   0.034   4.248  11.828  0.4569  1.3680 -0.0659
24009SOL    HW273469   0.185   4.262  11.842  0.9065 -1.1240 -1.7507
24010SOL     OW73470   1.094   7.684  12.289  0.1277  0.3322 -0.1261
24010SOL    HW173471   1.181   7.723  12.286 -0.0383  0.8586  1.1784
24010SOL    HW273472   1.091   7.638  12.373 -1.1776  1.1598  0.3278
24011SOL     OW73473   4.297   2.545   4.152 -0.1889 -0.1321  0.5343
24011SOL    HW173474   4.367   2.544   4.087 -2.4312 -0.4178 -2.0525
24011SOL    HW273475   4.282   2.638   4.170 -0.1847  0.0004 -0.1209
24012SOL     OW73476   7.253   7.888   4.688 -1.0370 -0.2235 -0.1278
24012SOL    HW173477   7.282   7.804   4.654 -2.3737 -0.1957 -1.4149
24012SOL    HW273478   7.191   7.866   4.758 -1.9930 -0.3368 -0.9933
24013SOL     OW73479   2.451   2.265  11.223  0.4437 -0.1479  0.0790
24013SOL    HW173480   2.378   2.204  11.212  1.2657 -1.0883 -0.3567
24013SOL    HW273481   2.508   2.222  11.288  1.4244 -0.2527 -0.8195
24014SOL     OW73482   3.951   5.376  10.677 -0.3808 -0.2823 -0.9212
24014SOL    HW173483   3.977   5.462  10.644  0.5797  0.2196  0.9901
24014SOL    HW273484   3.877   5.394  10.735 -0.4265 -0.8052 -0.8127
24015SOL     OW73485   1.538   4.061   2.380  0.2802 -0.3012  0.1969
24015SOL    HW173486   1.484   3.994   2.339  0.5832  0.3058 -1.2507
24015SOL    HW273487   1.593   4.013   2.442 -0.3429 -1.2081  0.0690
24016SOL     OW73488   1.397   1.752  10.204  0.9210  0.1994  0.5284
24016SOL    HW173489   1.325   1.803  10.168  1.2990  0.0450 -0.4965
24016SOL    HW273490   1.400   1.775  10.297  2.2719  3.5477 -0.2030
24017SOL     OW73491   3.284   1.179   2.847 -0.4439 -0.1123  0.1607
24017SOL    HW173492   3.247   1.110   2.792  0.6109 -1.1470  0.7005
24017SOL    HW273493   3.358   1.213   2.796 -1.1938  0.9157 -0.2722
24018SOL     OW73494   3.603   5.803   3.313  0.0769 -0.0580 -0.6955
24018SOL    HW173495   3.584   5.791   3.406 -2.3604 -0.0224 -1.1222
24018SOL    HW273496   3.667   5.735   3.292 -0.1196 -0.7199  0.7809
24019SOL     OW73497   4.128   2.431   7.378  0.6434 -0.2992 -0.1611
24019SOL    HW173498   4.045   2.405   7.338  0.2501 -1.0528  1.0918
24019SOL    HW273499   4.141   2.521   7.350 -0.5092 -0.2315 -0.5342
24020SOL     OW73500   0.370   0.233   3.778 -0.3461 -0.2259  0.1295
24020SOL    HW173501   0.341   0.263   3.691 -3.2630  0.0715  1.1025
24020SOL    HW273502   0.449   0.284   3.795  0.4298 -0.4324 -2.3910
24021SOL     OW73503   3.986   5.889  11.686 -0.1874 -0.3537  0.2903
24021SOL    HW173504   4.057   5.833  11.656 -1.4679 -2.1115  0.3353
24021SOL    HW273505   3.912   5.866  11.629 -0.7524  1.3467  0.2881
24022SOL     OW73506   3.645   1.224   4.584  0.1981  0.1851 -0.0716
24022SOL    HW173507   3.605   1.299   4.540  0.1113  0.2834  0.1734
24022SOL    HW273508   3.713   1.262   4.639 -0.2573  0.1502  0.5309
24023SOL     OW73509   3.607   5.551   4.676  1.2705 -0.2563  0.0173
24023SOL    HW173510   3.516   5.568   4.652  1.2276 -0.4039  0.0771
24023SOL    HW273511   3.607   5.464   4.714  1.2588  0.1473  0.9738
24024SOL     OW73512   7.564   6.905   4.859  0.0585 -0.1339  0.3578
24024SOL    HW173513   7.562   6.995   4.825  0.0402 -0.0332  0.6227
24024SOL    HW273514   7.512   6.909   4.939 -0.7749 -0.5989 -0.1563
24025SOL     OW73515   5.573   7.924   2.051 -0.4817  0.5803 -0.0847
24025SOL    HW173516   5.538   7.994   1.996  0.9141  0.8922 -0.6249
24025SOL    HW273517   5.619   7.866   1.989  0.2609  0.3980  0.6261
24026SOL     OW73518   7.057   0.258   2.090 -0.6023  0.0083 -0.4725
24026SOL    HW173519   7.144   0.293   2.109 -0.8884  1.4022 -1.5513
24026SOL    HW273520   7.067   0.214   2.006 -1.3004  1.7683 -1.5265
24027SOL     OW73521   2.329   5.927   4.028 -0.2821  0.2462  0.0414
24027SOL    HW173522   2.328   5.930   4.124  2.3579  1.7042  0.1160
24027SOL    HW273523   2.282   5.846   4.006 -0.2491 -0.5541  2.5934
24028SOL     OW73524   5.650   5.817   7.152 -0.0572  0.1526  0.0170
24028SOL    HW173525   5.743   5.794   7.155 -0.3591 -1.0773  0.3276
24028SOL    HW273526   5.609   5.747   7.100 -0.8973  0.3660  0.3674
24029SOL     OW73527   0.667   6.700   1.857 -0.0713  0.2622  0.3698
24029SOL    HW173528   0.651   6.648   1.778 -0.6881  0.6568  0.2243
24029SOL    HW273529   0.692   6.786   1.824  0.2190  0.2656  0.6046
24030SOL     OW73530   6.542   0.479  11.360 -0.3172 -0.2939  0.0949
24030SOL    HW173531   6.577   0.526  11.435  1.0106  1.4465 -1.4928
24030SOL    HW273532   6.566   0.388  11.374 -0.9978 -0.2041  2.2068
24031SOL     OW73533   4.667   0.619   6.614 -0.2261 -0.1640  0.0918
24031SOL    HW173534   4.632   0.655   6.532  1.8190 -1.9701 -1.7445
24031SOL    HW273535   4.762   0.624   6.602  0.1237 -0.4691  2.4011
24032SOL     OW73536   0.102   6.189   5.936 -0.4941  0.6152  0.8232
24032SOL    HW173537   0.021   6.208   5.888 -0.3399 -0.7091 -0.0173
24032SOL    HW273538   0.092   6.099   5.965  1.3434 -0.1844 -0.7773
24033SOL     OW73539   3.872   0.300   8.302  0.1441 -0.3083  0.3778
24033SOL    HW173540   3.876   0.214   8.258 -0.3387 -0.2656  0.2391
24033SOL    HW273541   3.828   0.282   8.385 -0.5324 -0.1024  0.0802
24034SOL     OW73542   3.248   7.282   6.932  0.7632  0.1886  0.0691
24034SOL    HW173543   3.174   7.331   6.895  0.8307  1.9099  2.0317
24034SOL    HW273544   3.212   7.196   6.952 -0.5511  0.7610  0.2908
24035SOL     OW73545   5.514   7.015   5.708  0.3213  0.2366 -0.3631
24035SOL    HW173546   5.607   7.027   5.690 -0.0303  1.2480 -1.6762
24035SOL    HW273547   5.488   6.942   5.651 -0.1229  1.3629 -1.6423
24036SOL     OW73548   1.187   5.087   4.792  0.5695  0.3331  0.2942
24036SOL    HW173549   1.190   4.994   4.768  1.3385  0.5210 -0.3764
24036SOL    HW273550   1.140   5.129   4.721  1.6153  0.6790 -0.2256
24037SOL     OW73551   4.370   1.337  12.116 -0.4892  0.1936 -0.1781
24037SOL    HW173552   4.333   1.366  12.032 -1.3664  0.9600  0.4563
24037SOL    HW273553   4.409   1.252  12.096  0.6477  1.0042 -1.7112
24038SOL     OW73554   7.143   0.222   8.236 -0.9744 -0.1366 -0.8971
24038SOL    HW173555   7.155   0.138   8.192 -0.4566 -0.0277 -0.9717
24038SOL    HW273556   7.106   0.200   8.321  0.9886 -0.6096 -0.1206
24039SOL     OW73557   0.297   4.468   6.176  0.0005 -0.1319  0.3446
24039SOL    HW173558   0.342   4.551   6.159  0.5438 -0.2424  1.1909
24039SOL    HW273559   0.337   4.406   6.115  0.1553  0.0480  0.2637
24040SOL     OW73560   4.576   6.735   8.784  0.0772  0.3361  0.0428
24040SOL    HW173561   4.488   6.705   8.762  0.1375 -0.6609  1.1030
24040SOL    HW273562   4.578   6.826   8.753 -0.7412 -0.1438 -1.5145
24041SOL     OW73563   7.100   0.570   3.626  0.2387 -0.1816  0.4175
24041SOL    HW173564   7.062   0.636   3.684  0.0235 -0.4070  0.5392
24041SOL    HW273565   7.091   0.488   3.675  1.2238 -0.1854  0.5997
24042SOL     OW73566   3.284   2.543   5.212 -0.1879 -0.0308  0.4901
24042SOL    HW173567   3.303   2.636   5.219  1.0939 -0.3227  1.1632
24042SOL    HW273568   3.257   2.517   5.300 -1.1061 -0.2042  0.1779
24043SOL     OW73569   7.279   1.953   8.805 -0.0318  0.4938  0.5069
24043SOL    HW173570   7.237   1.915   8.728 -1.6305 -0.1093  1.6418
24043SOL    HW273571   7.267   2.047   8.795  2.4464  0.7343 -1.4468
24044SOL     OW73572   5.970   3.202   2.271  0.6366  0.4632  0.6148
24044SOL    HW173573   5.928   3.285   2.248  0.8568  0.2371 -0.6747
24044SOL    HW273574   6.062   3.214   2.247  0.3079 -0.8158 -1.5262
24045SOL     OW73575   5.171   7.507   5.741  0.5341  0.2438 -0.1836
24045SOL    HW173576   5.202   7.541   5.825 -0.3589  0.5657  0.0346
24045SOL    HW273577   5.093   7.455   5.764  0.0992  0.5937 -0.8412
24046SOL     OW73578   0.190   3.973   4.766  0.4418  0.2321 -0.1925
24046SOL    HW173579   0.170   4.065   4.787 -1.3542  0.3922 -2.1589
24046SOL    HW273580   0.266   3.952   4.819  0.0868  2.4483  1.3425
24047SOL     OW73581   4.536   0.253   8.487  0.0109  0.0067 -0.5457
24047SOL    HW173582   4.447   0.287   8.480 -0.2714 -0.5528  0.1785
24047SOL    HW273583   4.525   0.158   8.480  0.6921 -0.0042 -1.7010
24048SOL     OW73584   0.639   3.562   4.000 -0.0646  0.5367  0.0305
24048SOL    HW173585   0.609   3.606   3.921  0.1675  0.8741  0.1287
24048SOL    HW273586   0.581   3.487   4.010  0.4594 -0.0129 -0.9559
24049SOL     OW73587   7.318   5.426   4.129  0.0123 -0.4994 -0.4475
24049SOL    HW173588   7.288   5.465   4.047 -0.3222  0.1918 -0.0114
24049SOL    HW273589   7.413   5.419   4.119  0.1896  1.2329 -0.2309
24050SOL     OW73590   1.984   3.848  11.202 -0.0363 -0.7014  0.1320
24050SOL    HW173591   1.946   3.934  11.217  1.8106  0.3482 -0.9393
24050SOL    HW273592   2.025   3.825  11.286  0.2990 -0.0917  0.1393
24051SOL     OW73593   2.509   2.251  10.336 -0.1689  0.0192  0.5007
24051SOL    HW173594   2.555   2.246  10.420  0.8580  0.1179 -0.0355
24051SOL    HW273595   2.528   2.339  10.303 -1.2193  0.2672  0.5153
24052SOL     OW73596   0.129   2.121  11.051  0.2010 -0.2235 -0.0558
24052SOL    HW173597   0.047   2.089  11.011 -1.4107  2.4519  0.8519
24052SOL    HW273598   0.107   2.132  11.143  1.3974  1.1685  0.0820
24053SOL     OW73599   7.050   3.217   0.393 -0.5555 -0.4603  0.3907
24053SOL    HW173600   7.044   3.129   0.431  3.7448 -1.7075 -1.1513
24053SOL    HW273601   7.067   3.201   0.300 -1.7636  2.1613 -0.3576
24054SOL     OW73602   7.257   7.272   8.158 -1.0577  0.2382 -0.2788
24054SOL    HW173603   7.165   7.264   8.185 -0.9193  0.6633  0.3708
24054SOL    HW273604   7.256   7.336   8.087 -1.5277 -1.4899 -1.8974
24055SOL     OW73605   7.626   6.190   1.181  0.0330 -0.1710 -0.5166
24055SOL    HW173606   7.539   6.202   1.217  0.4977 -0.3840  0.7226
24055SOL    HW273607   7.654   6.105   1.214  0.1938 -0.7403 -2.0178
24056SOL     OW73608   0.144   3.651  11.459 -0.2365  0.4909  0.1226
24056SOL    HW173609   0.119   3.665  11.550  1.3775  0.0605  0.6653
24056SOL    HW273610   0.089   3.578  11.430  1.0586 -1.1831  1.6205
24057SOL     OW73611   1.715   3.587   9.967  0.2731 -0.2317 -0.1866
24057SOL    HW173612   1.743   3.496   9.956 -2.2849 -0.8596 -2.5189
24057SOL    HW273613   1.733   3.628   9.882  0.0385  1.0608  0.3643
24058SOL     OW73614   0.420   0.250   0.009 -0.0839 -0.5347  0.2758
24058SOL    HW173615   0.455   0.204  -0.067  1.2772  0.1273  0.4741
24058SOL    HW273616   0.440   0.194   0.084  1.2067  0.1590  0.4693
24059SOL     OW73617   1.499   4.749  11.460 -0.1749  0.2458  0.2796
24059SOL    HW173618   1.442   4.674  11.475 -1.2016  1.0572  0.5990
24059SOL    HW273619   1.524   4.778  11.548 -1.0890  1.2306  0.2282
24060SOL     OW73620   1.943   3.627   3.177 -0.2624  0.1953  0.4112
24060SOL    HW173621   1.944   3.678   3.096  2.6241 -0.0200  0.1953
24060SOL    HW273622   2.022   3.655   3.224  1.1868 -3.5469  0.5491
24061SOL     OW73623   7.376   7.941   3.619  0.2850  0.0878  0.0406
24061SOL    HW173624   7.334   7.863   3.581 -1.4557 -0.0352  2.0420
24061SOL    HW273625   7.469   7.919   3.623  0.1940 -0.8386 -1.7826
24062SOL     OW73626   5.223   2.828   0.421 -0.2974  0.0293 -0.1323
24062SOL    HW173627   5.216   2.893   0.351 -1.5214  2.5183  2.1534
24062SOL    HW273628   5.293   2.860   0.477 -0.1758 -1.2478  0.4777
24063SOL     OW73629   0.032   5.615   0.659  0.3558  0.0475  0.3946
24063SOL    HW173630   0.127   5.601   0.664  0.5871  0.6292 -1.4780
24063SOL    HW273631   0.018   5.647   0.569 -1.7079 -0.7241  0.4100
24064SOL     OW73632   6.240   4.114   4.483 -0.0808 -0.3130  0.1395
24064SOL    HW173633   6.272   4.030   4.517  0.8853  0.1636  0.4378
24064SOL    HW273634   6.145   4.109   4.492 -0.0221 -1.3002  0.3223
24065SOL     OW73635   1.849   3.340   8.300 -0.1922  0.5627  0.6543
24065SOL    HW173636   1.846   3.427   8.342  0.9209  1.0381 -0.1857
24065SOL    HW273637   1.943   3.324   8.286 -0.2767 -1.4452  2.1062
24066SOL     OW73638   3.188   3.549   0.253 -0.4047  0.2288 -0.4167
24066SOL    HW173639   3.147   3.578   0.171 -2.3154 -0.2148  0.3201
24066SOL    HW273640   3.247   3.620   0.277 -0.8130  0.9605 -1.4943
24067SOL     OW73641   1.725   1.959  10.927 -0.3458 -0.5508 -0.2909
24067SOL    HW173642   1.733   1.953  11.022 -0.4510 -2.2687 -0.3488
24067SOL    HW273643   1.660   1.892  10.904 -0.4915 -0.0083 -1.5529
24068SOL     OW73644   6.254   1.729  10.018 -0.1351 -0.5185  0.1394
24068SOL    HW173645   6.256   1.821  10.045  0.8468 -0.8329  1.2067
24068SOL    HW273646   6.346   1.707  10.002 -0.2194 -1.6334  1.0773
24069SOL     OW73647   5.365   2.820   8.124  0.6155  0.0633  0.1290
24069SOL    HW173648   5.461   2.824   8.131  0.7766 -0.5257 -1.3798
24069SOL    HW273649   5.348   2.823   8.030 -1.0160  2.9284  0.3871
24070SOL     OW73650   7.794   3.888   4.281 -0.1214  0.3724  0.0148
24070SOL    HW173651   7.773   3.794   4.277  0.0514  0.1599  2.4257
24070SOL    HW273652   7.861   3.901   4.215  0.8397 -1.5259  0.5427
24071SOL     OW73653   6.679   2.868   9.380  0.5788  0.0715 -0.0270
24071SOL    HW173654   6.708   2.955   9.408  0.5599 -0.2489  1.0333
24071SOL    HW273655   6.719   2.856   9.293  1.7881  0.5448  0.4428
24072SOL     OW73656   3.636   4.874   8.150  0.1331  0.0035  0.4462
24072SOL    HW173657   3.550   4.834   8.165  0.2169 -0.0415  0.8135
24072SOL    HW273658   3.698   4.802   8.162  0.1120 -0.5418 -2.0898
24073SOL     OW73659   5.308   6.839   3.016  0.1060  0.6585 -0.1806
24073SOL    HW173660   5.256   6.853   2.937  2.4069  1.2491 -1.6904
24073SOL    HW273661   5.314   6.926   3.056  0.1302  0.6318 -0.1268
24074SOL     OW73662   3.732   3.831  11.741  0.1129  0.1989 -0.5135
24074SOL    HW173663   3.638   3.812  11.738 -0.3949  1.7884  2.0425
24074SOL    HW273664   3.773   3.756  11.700 -2.2019 -1.4794  0.0402
24075SOL     OW73665   7.546   5.019   7.200  0.0276 -0.4176 -0.2079
24075SOL    HW173666   7.640   5.003   7.198  0.2874  0.8410 -2.7733
24075SOL    HW273667   7.537   5.108   7.165 -2.0449  0.1371  1.5331
24076SOL     OW73668   2.995   0.402  12.199  0.7288 -0.3925  0.0325
24076SOL    HW173669   3.012   0.485  12.244  0.3599 -0.3717  0.1341
24076SOL    HW273670   3.066   0.345  12.227 -0.6525 -1.0991  2.3988
24077SOL     OW73671   6.576   0.217   8.611 -0.1334 -0.4498  0.4467
24077SOL    HW173672   6.626   0.144   8.650  0.1003 -0.4660  0.1226
24077SOL    HW273673   6.526   0.253   8.684  1.1320  0.2290  1.0214
24078SOL     OW73674   6.544   5.376   5.755  0.6024  0.5597  0.0711
24078SOL    HW173675   6.448   5.373   5.763  0.5541  0.6515 -0.4374
24078SOL    HW273676   6.565   5.470   5.760  0.6278  0.5701 -0.2163
24079SOL     OW73677   4.170   1.127   6.368  0.4314 -0.0396  0.7632
24079SOL    HW173678   4.265   1.124   6.372  0.5136 -0.7907 -0.9753
24079SOL    HW273679   4.144   1.179   6.444  2.3808  3.3227 -0.6703
24080SOL     OW73680   3.936   5.768  10.432  0.1920 -0.4492  0.1188
24080SOL    HW173681   3.895   5.692  10.473 -0.5392 -1.8166 -2.8978
24080SOL    HW273682   3.966   5.736  10.346  1.2601  2.2976 -0.6336
24081SOL     OW73683   7.121   2.475   2.612 -0.4192  0.1873 -0.3957
24081SOL    HW173684   7.149   2.385   2.595  0.5596  0.4667 -0.2869
24081SOL    HW273685   7.150   2.493   2.701 -0.5983  0.6176 -0.4229
24082SOL     OW73686   6.404   7.324   3.122  0.3524  0.3716  0.0752
24082SOL    HW173687   6.326   7.287   3.081  0.9281 -0.4703 -0.2773
24082SOL    HW273688   6.415   7.273   3.202  1.5104 -0.6835 -0.7233
24083SOL     OW73689   7.382   6.820   9.841  0.2716 -0.2286  0.1776
24083SOL    HW173690   7.305   6.877   9.847  0.0338 -0.4511 -0.7388
24083SOL    HW273691   7.396   6.807   9.748  1.0342 -0.7269  0.3520
24084SOL     OW73692   5.065   5.703   0.822 -0.2760 -0.2546 -0.4418
24084SOL    HW173693   5.018   5.688   0.740  0.8015 -1.2300 -0.9071
24084SOL    HW273694   5.083   5.616   0.856  0.1072  0.1262  0.3604
24085SOL     OW73695   3.343   2.131   9.960  0.0110  0.3632 -0.4613
24085SOL    HW173696   3.347   2.155  10.052  1.1495  0.4238 -0.5139
24085SOL    HW273697   3.274   2.186   9.923 -1.4974 -0.7056  0.6438
24086SOL     OW73698   2.199   4.630   7.648  0.2553  0.4144 -0.1035
24086SOL    HW173699   2.214   4.559   7.711  0.0578 -0.0990 -0.6230
24086SOL    HW273700   2.231   4.595   7.565 -0.7713  0.5447 -0.5669
24087SOL     OW73701   5.713   7.897   5.964  0.6121 -0.0735  0.3886
24087SOL    HW173702   5.748   7.984   5.983 -1.1855  0.8127 -0.2141
24087SOL    HW273703   5.633   7.891   6.016 -0.8692 -0.1760 -1.7923
24088SOL     OW73704   6.627   0.207  10.316 -0.3257 -0.6981  0.2322
24088SOL    HW173705   6.649   0.133  10.372 -2.3079 -0.4860  1.4120
24088SOL    HW273706   6.540   0.186  10.282 -1.1143  1.2150  0.9124
24089SOL     OW73707   0.367   3.183  12.190 -0.3130  0.2374 -0.2732
24089SOL    HW173708   0.416   3.103  12.211  1.0931  1.3810  1.0486
24089SOL    HW273709   0.340   3.217  12.275 -1.5136  0.8166 -0.8623
24090SOL     OW73710   7.222   0.554   6.759  0.7282  0.2492  0.1084
24090SOL    HW173711   7.167   0.564   6.682  0.3595  0.1038  0.3495
24090SOL    HW273712   7.161   0.540   6.831  1.0278  1.3108  0.5860
24091SOL     OW73713   1.778   5.817   2.782  0.2474  1.2134  0.3981
24091SOL    HW173714   1.830   5.896   2.797  0.8965  0.8793 -0.0268
24091SOL    HW273715   1.808   5.785   2.697 -0.1771  0.6363  0.4620
24092SOL     OW73716   1.565   0.059   7.011  0.2962 -0.5877  0.3627
24092SOL    HW173717   1.581  -0.000   6.938  0.9199  0.6203 -0.5162
24092SOL    HW273718   1.630   0.129   7.000 -0.7593  0.5425  1.0492
24093SOL     OW73719   2.019   3.329   3.226  0.5057  0.1730  0.1659
24093SOL    HW173720   2.000   3.408   3.277 -0.3531  0.1602 -0.1159
24093SOL    HW273721   2.071   3.359   3.152  0.9391  0.3330  0.5269
24094SOL     OW73722   4.987   1.409   2.891 -0.1006  0.3074  0.0238
24094SOL    HW173723   5.071   1.374   2.863  1.2526  0.9899  2.8452
24094SOL    HW273724   5.009   1.489   2.939 -2.4630  1.0366  0.0487
24095SOL     OW73725   5.037   1.234   2.231  0.3540 -0.1036 -0.2543
24095SOL    HW173726   5.009   1.230   2.323 -0.4718 -2.6129 -0.5395
24095SOL    HW273727   5.118   1.284   2.233  0.5424 -0.3941  1.9195
24096SOL     OW73728   2.472   2.895   4.107  0.5327  0.2677 -0.4583
24096SOL    HW173729   2.395   2.915   4.161 -0.8701 -0.7286 -1.9840
24096SOL    HW273730   2.535   2.858   4.169 -0.6998 -0.0856  0.6565
24097SOL     OW73731   4.663   5.405   7.511 -0.4593  0.5199 -0.0418
24097SOL    HW173732   4.750   5.390   7.548 -0.0298 -1.4059 -1.6811
24097SOL    HW273733   4.606   5.346   7.560 -0.3676 -0.0769 -0.6415
24098SOL     OW73734   6.702   1.422   6.012 -0.0454 -0.4902 -0.1559
24098SOL    HW173735   6.693   1.389   5.923 -1.2625  0.4169 -0.3863
24098SOL    HW273736   6.613   1.428   6.045  0.4420 -2.3126  1.7205
24099SOL     OW73737   1.577   5.778   2.410  0.5726 -0.2946  0.7811
24099SOL    HW173738   1.637   5.783   2.485  2.0796 -0.5259 -0.3559
24099SOL    HW273739   1.625   5.727   2.344 -0.0587  1.1926 -0.9200
24100SOL     OW73740   0.214   5.535  11.504 -0.4001 -0.2068  0.4574
24100SOL    HW173741   0.191   5.479  11.578 -0.3165  1.1258  1.5522
24100SOL    HW273742   0.168   5.618  11.523  1.5170  0.9534  0.2675
24101SOL     OW73743   7.156   0.317   6.205 -0.2309 -0.4114 -0.1907
24101SOL    HW173744   7.205   0.248   6.249 -0.0474  0.3484  0.8260
24101SOL    HW273745   7.079   0.332   6.261 -0.0319  0.5135 -0.1347
24102SOL     OW73746   5.884   6.722   8.520 -0.1309 -0.0270 -0.0252
24102SOL    HW173747   5.908   6.772   8.441  0.9264  0.3023  0.4834
24102SOL    HW273748   5.893   6.631   8.493  1.3504  0.0796  0.0044
24103SOL     OW73749   1.102   7.747   9.824 -0.1470  0.1688 -0.4713
24103SOL    HW173750   1.089   7.759   9.730  0.9571 -0.3559 -0.7115
24103SOL    HW273751   1.167   7.676   9.830  1.5728  1.7429  0.6082
24104SOL     OW73752   4.122   2.992   0.690  0.3184 -0.2855 -0.4715
24104SOL    HW173753   4.185   3.015   0.759 -1.6251  0.4819  1.1307
24104SOL    HW273754   4.177   2.960   0.619  2.4608 -0.8111  1.2800
24105SOL     OW73755   2.219   2.832   2.675 -0.5624  0.9284 -0.1965
24105SOL    HW173756   2.279   2.846   2.749  0.4134  1.1010 -0.9924
24105SOL    HW273757   2.176   2.917   2.664 -2.4789  0.2738  1.6299
24106SOL     OW73758   0.732   1.219   8.632  0.0211  0.2317  0.0424
24106SOL    HW173759   0.685   1.298   8.659 -0.0637 -0.3506  1.6630
24106SOL    HW273760   0.809   1.216   8.690  0.1300 -0.7704 -0.1484
24107SOL     OW73761   2.204   3.903   6.724 -0.0105 -0.2960 -0.0663
24107SOL    HW173762   2.266   3.869   6.789 -1.3727 -0.7154  1.0782
24107SOL    HW273763   2.196   3.833   6.660 -1.5075 -1.5504  1.3765
24108SOL     OW73764   4.939   0.378  10.849 -0.4366 -0.1173 -0.0863
24108SOL    HW173765   4.944   0.450  10.912 -0.0507 -0.7886  0.6631
24108SOL    HW273766   4.983   0.305  10.892  1.0831 -0.2146 -1.6714
24109SOL     OW73767   2.198   3.170  11.369 -0.1657  0.0050  0.5520
24109SOL    HW173768   2.243   3.085  11.366  1.3624  0.7663  0.5354
24109SOL    HW273769   2.239   3.216  11.442 -0.4287  1.0015  0.0883
24110SOL     OW73770   7.654   2.229  10.897 -0.9045 -0.2649 -0.3057
24110SOL    HW173771   7.588   2.252  10.963 -2.1367 -2.3374 -0.7307
24110SOL    HW273772   7.616   2.257  10.814  0.0358  1.0618 -0.3303
24111SOL     OW73773   7.659   7.607   6.601 -0.0913 -0.1604  0.1114
24111SOL    HW173774   7.645   7.546   6.529 -1.0079  0.3330 -0.1386
24111SOL    HW273775   7.694   7.686   6.560  2.0225 -0.8194  0.5442
24112SOL     OW73776   3.157   7.791  10.010  0.4665  0.2116  0.2646
24112SOL    HW173777   3.107   7.872  10.019  1.7166  1.0765 -0.2483
24112SOL    HW273778   3.232   7.803  10.069  1.3018 -0.0349 -0.7149
24113SOL     OW73779   5.336   4.202   5.401 -0.3848 -0.4726 -0.1107
24113SOL    HW173780   5.269   4.243   5.348 -0.6951 -0.5836  0.1864
24113SOL    HW273781   5.337   4.110   5.372  0.0732 -0.3325 -0.5429
24114SOL     OW73782   2.450   2.472   0.790  0.8148 -0.6904  0.3563
24114SOL    HW173783   2.366   2.494   0.831  1.0679 -0.0976  0.5636
24114SOL    HW273784   2.477   2.553   0.746 -0.4392 -1.7972 -2.7559
24115SOL     OW73785   0.742   0.310   1.379  0.1005  0.0138  0.2567
24115SOL    HW173786   0.687   0.242   1.417 -1.5328  0.7036 -0.7681
24115SOL    HW273787   0.831   0.283   1.401 -0.5889 -1.4489  1.4779
24116SOL     OW73788   1.749   3.289   9.946 -0.2499 -0.5869  0.1471
24116SOL    HW173789   1.663   3.268   9.981  0.0932 -1.4413  0.5115
24116SOL    HW273790   1.810   3.253  10.010  0.3890 -1.3206 -0.8436
24117SOL     OW73791   2.071   6.848  12.454 -0.0372  0.2150 -0.4966
24117SOL    HW173792   2.103   6.765  12.489 -0.8622  0.0581 -0.1146
24117SOL    HW273793   2.141   6.910  12.474 -0.8799  0.3779  2.4203
24118SOL     OW73794   1.202   6.170   0.416 -0.4542  0.1203  0.1826
24118SOL    HW173795   1.130   6.108   0.405  0.0012 -0.3293 -0.3242
24118SOL    HW273796   1.281   6.115   0.423 -0.2068  0.5788  1.2554
24119SOL     OW73797   1.784   7.690   5.366  0.0979 -0.1697  0.6968
24119SOL    HW173798   1.869   7.667   5.402  0.6347  0.1301 -0.3506
24119SOL    HW273799   1.786   7.658   5.276 -1.0519 -0.5185  0.7848
24120SOL     OW73800   5.887   5.093   0.249  0.0402  0.6840  0.5449
24120SOL    HW173801   5.811   5.107   0.305  1.1312  1.9745  1.7523
24120SOL    HW273802   5.927   5.013   0.283 -0.4519  0.3078  0.2567
24121SOL     OW73803   3.542   6.719   9.986  0.5500  0.1147  0.2348
24121SOL    HW173804   3.550   6.639   9.935  0.6019  1.1405 -1.4170
24121SOL    HW273805   3.475   6.698  10.052  0.0862 -1.0688 -0.5741
24122SOL     OW73806   4.751   3.048   2.071  0.6701  0.5940  0.0496
24122SOL    HW173807   4.663   3.087   2.072  0.7128  0.8680  2.9556
24122SOL    HW273808   4.794   3.085   2.148  2.5810 -1.1699 -0.0816
24123SOL     OW73809   5.345   2.777   7.851 -0.1139  0.6403  0.0450
24123SOL    HW173810   5.434   2.768   7.816 -0.5245  1.4715 -1.3076
24123SOL    HW273811   5.318   2.865   7.824 -1.7703 -0.0287 -0.6021
24124SOL     OW73812   5.236   2.841   6.872  0.0883 -0.5807 -0.1417
24124SOL    HW173813   5.276   2.820   6.957 -1.1243  1.4993  1.0025
24124SOL    HW273814   5.143   2.824   6.885 -0.2504  0.7765 -0.6891
24125SOL     OW73815   3.099   2.438  11.447  0.2882  0.2831  0.0069
24125SOL    HW173816   3.174   2.456  11.504 -0.4110 -1.8847  1.7358
24125SOL    HW273817   3.134   2.380  11.380  0.1273 -1.0493  1.0387
24126SOL     OW73818   4.598   6.184  11.404 -0.0412 -0.2202  0.2576
24126SOL    HW173819   4.507   6.202  11.428  0.0370  0.8442 -0.1766
24126SOL    HW273820   4.599   6.091  11.382 -1.3560  0.0262 -1.0504
24127SOL     OW73821   6.444   4.953  11.600  0.6722 -0.4111  0.3974
24127SOL    HW173822   6.532   4.970  11.633  1.0416 -0.6924 -0.4051
24127SOL    HW273823   6.435   5.013  11.526 -0.3776  0.6579  1.3642
24128SOL     OW73824   7.845   1.494   1.336 -0.0359 -0.7691 -0.4727
24128SOL    HW173825   7.750   1.485   1.349 -0.0064 -1.2518 -0.5637
24128SOL    HW273826   7.881   1.497   1.425 -0.3151  1.6978 -0.3762
24129SOL     OW73827   7.811   6.606   1.607  0.1309  0.1401  0.2207
24129SOL    HW173828   7.877   6.582   1.541 -0.7473 -0.0762 -0.6106
24129SOL    HW273829   7.753   6.668   1.561 -0.7344 -0.3312  0.6508
24130SOL     OW73830   2.796   6.897   3.485  0.0363 -0.6632  0.0302
24130SOL    HW173831   2.727   6.832   3.488 -0.5623 -0.0171  0.7909
24130SOL    HW273832   2.768   6.959   3.418 -1.3744  0.9024  1.9497
24131SOL     OW73833   3.700   7.072   1.199  0.1331 -0.2276  0.5483
24131SOL    HW173834   3.761   6.999   1.189 -0.7217 -1.0806  1.3402
24131SOL    HW273835   3.756   7.149   1.210  1.0645 -0.5583 -1.3729
24132SOL     OW73836   1.670   2.253  11.982 -0.4395  0.4704  0.1048
24132SOL    HW173837   1.590   2.271  12.031  0.3111 -1.0948  2.0115
24132SOL    HW273838   1.740   2.295  12.033  0.1758  0.2449 -0.5329
24133SOL     OW73839   1.209   4.032  10.232  0.6697  1.0578  0.0559
24133SOL    HW173840   1.289   4.084  10.221  0.3811  1.6137  0.5758
24133SOL    HW273841   1.224   3.955  10.177  1.9445  0.7151  0.8374
24134SOL     OW73842   2.295   2.104   8.085  0.0935 -0.6718  0.3221
24134SOL    HW173843   2.329   2.053   8.012 -1.4251  0.3263 -1.1672
24134SOL    HW273844   2.213   2.062   8.108  0.4498 -0.8403  1.3188
24135SOL     OW73845   1.650   3.948  11.932 -0.0873  0.0653 -0.3546
24135SOL    HW173846   1.605   3.976  11.852 -2.5065  0.7951  1.1301
24135SOL    HW273847   1.664   4.030  11.980 -0.4290 -0.5359  0.7858
24136SOL     OW73848   3.683   1.893  12.176 -0.1449 -0.5978  0.2428
24136SOL    HW173849   3.666   1.894  12.081 -0.5709  1.3802  0.2833
24136SOL    HW273850   3.731   1.812  12.191  1.7898  0.0127 -2.0183
24137SOL     OW73851   2.034   7.891   4.100  0.1964  0.1454 -0.7795
24137SOL    HW173852   2.017   7.981   4.071  1.6460  0.5231 -0.5206
24137SOL    HW273853   2.081   7.850   4.027  1.8687  0.4203  0.0968
24138SOL     OW73854   4.561   2.530  10.542 -0.7271 -0.1835 -0.1629
24138SOL    HW173855   4.601   2.558  10.624  0.3829 -1.5252 -0.2087
24138SOL    HW273856   4.629   2.542  10.476 -0.4984 -2.0418 -0.3282
24139SOL     OW73857   0.082   3.359   8.420 -0.5027 -0.0504  0.0180
24139SOL    HW173858   0.170   3.368   8.384 -0.2651  0.8851  0.7773
24139SOL    HW273859   0.043   3.447   8.410 -1.3267 -0.4344 -0.2496
24140SOL     OW73860   6.516   6.236   0.780 -0.1688 -0.3665  0.4777
24140SOL    HW173861   6.429   6.275   0.790  0.9681  1.8700  3.0530
24140SOL    HW273862   6.548   6.270   0.696 -0.9933  0.5675  0.5186
24141SOL     OW73863   0.188   2.604   7.389  1.0700  0.1822  0.0253
24141SOL    HW173864   0.156   2.517   7.368  0.2964  0.8367 -1.6734
24141SOL    HW273865   0.113   2.662   7.375  1.6635  1.1714  0.7761
24142SOL     OW73866   2.902   2.889   3.835  0.0788 -0.2353  0.1934
24142SOL    HW173867   2.930   2.974   3.799 -2.6767  2.0101  2.7876
24142SOL    HW273868   2.954   2.879   3.915  0.3882 -1.0263 -0.0978
24143SOL     OW73869   1.204   3.787   9.143 -0.2830 -0.2594 -0.2225
24143SOL    HW173870   1.274   3.840   9.105  0.5763 -1.7089 -0.7355
24143SOL    HW273871   1.151   3.761   9.068 -2.2573  1.9303  0.2755
24144SOL     OW73872   1.013   2.433   0.426  0.5159 -0.3351 -0.0595
24144SOL    HW173873   0.949   2.466   0.489 -0.2691 -1.3807 -0.2870
24144SOL    HW273874   1.015   2.338   0.441  1.1098 -0.4603 -0.8777
24145SOL     OW73875   2.079   1.141  10.580 -0.1736  0.3657 -0.2740
24145SOL    HW173876   2.020   1.214  10.595 -0.1383  0.3221  0.0784
24145SOL    HW273877   2.127   1.132  10.662  0.4697  0.5354 -0.6215
24146SOL     OW73878   6.658   3.908   3.501  0.5353 -0.0103  0.2853
24146SOL    HW173879   6.701   3.859   3.571  0.8685  0.6455  0.5462
24146SOL    HW273880   6.604   3.973   3.546  2.1166  1.5918 -0.0470
24147SOL     OW73881   0.961   4.232   5.439  0.4340  0.2479  0.3598
24147SOL    HW173882   0.867   4.242   5.455  0.4208  0.1285  0.3610
24147SOL    HW273883   0.996   4.321   5.443  0.0830  0.4986 -1.1726
24148SOL     OW73884   5.955   2.749   9.777 -0.5571 -0.2172 -0.1341
24148SOL    HW173885   5.948   2.683   9.847  0.8706  0.4549  0.6847
24148SOL    HW273886   5.902   2.822   9.808 -0.9782 -0.4207 -0.3700
24149SOL     OW73887   0.411   0.387   4.649  0.8321  0.1187  0.0365
24149SOL    HW173888   0.338   0.339   4.689  0.6216  0.1293 -0.3332
24149SOL    HW273889   0.374   0.474   4.629  1.3243  0.5903  1.0818
24150SOL     OW73890   2.930   3.672   0.322 -0.5230  0.0926 -0.2728
24150SOL    HW173891   3.022   3.649   0.332 -0.1163  1.7229 -0.1005
24150SOL    HW273892   2.904   3.708   0.407 -0.2255  3.1923 -1.3679
24151SOL     OW73893   6.075   6.740   8.026 -0.2815  0.1706  0.2403
24151SOL    HW173894   6.026   6.765   7.948 -0.0555  1.1145  0.3965
24151SOL    HW273895   6.078   6.819   8.079 -1.6871 -0.8193  1.9041
24152SOL     OW73896   3.655   7.325   4.415 -0.3848  0.1248 -0.5696
24152SOL    HW173897   3.627   7.414   4.396  0.7906  0.6352 -0.0033
24152SOL    HW273898   3.749   7.324   4.394 -0.2692 -0.8288 -0.0696
24153SOL     OW73899   4.674   7.678   4.678 -0.9619  0.0417 -0.4409
24153SOL    HW173900   4.726   7.722   4.610 -2.5748  1.6194 -0.7249
24153SOL    HW273901   4.602   7.637   4.630 -1.3489 -0.0046  0.1766
24154SOL     OW73902   5.706   5.995   4.951  0.1088 -0.1989 -0.3575
24154SOL    HW173903   5.739   5.908   4.928  3.2945  1.1036 -1.3463
24154SOL    HW273904   5.696   5.992   5.046  0.4227 -1.5819 -0.3474
24155SOL     OW73905   5.700   4.937   7.815 -0.1459  0.6054 -0.2353
24155SOL    HW173906   5.690   5.032   7.803 -0.7776  0.6011  0.1866
24155SOL    HW273907   5.784   4.917   7.775 -0.7534  1.0663 -1.8379
24156SOL     OW73908   1.672   0.753   1.861  0.3531  0.0871 -0.5921
24156SOL    HW173909   1.618   0.776   1.786  0.9677  0.3020 -0.9779
24156SOL    HW273910   1.612   0.710   1.922 -0.4631  1.1954 -0.5831
24157SOL     OW73911   5.399   6.490  12.072  0.0117  0.2541 -0.2621
24157SOL    HW173912   5.460   6.480  12.000  2.2000 -0.8579  1.6046
24157SOL    HW273913   5.380   6.400  12.101 -0.9266  0.6585  0.4477
24158SOL     OW73914   0.459   2.711   8.243  0.1409 -0.4658  0.0742
24158SOL    HW173915   0.528   2.736   8.304 -0.8099  0.4910  0.8099
24158SOL    HW273916   0.402   2.652   8.293 -0.1937 -0.3456 -0.1587
24159SOL     OW73917   0.140   6.008   5.443  0.1432 -0.5771  0.2085
24159SOL    HW173918   0.134   6.016   5.538  0.5207 -0.0586  0.1968
24159SOL    HW273919   0.184   5.924   5.429 -0.5093 -0.9726  0.4668
24160SOL     OW73920   7.665   6.317   6.953 -0.2666 -0.0634 -0.2823
24160SOL    HW173921   7.587   6.328   6.897  0.8794  0.5392 -1.8289
24160SOL    HW273922   7.633   6.334   7.042 -1.9240  0.0658 -0.8610
24161SOL     OW73923   2.895   7.139   2.402  0.5115  0.6726  0.6872
24161SOL    HW173924   2.902   7.053   2.363  0.8949  0.2506  1.6443
24161SOL    HW273925   2.982   7.178   2.390  0.1004  1.2711 -0.4850
24162SOL     OW73926   6.380   3.618   8.594  0.3031 -0.2761  0.1365
24162SOL    HW173927   6.472   3.643   8.604  0.1728  0.6192 -0.7673
24162SOL    HW273928   6.346   3.616   8.683  0.9896  0.2101  0.4235
24163SOL     OW73929   5.280   3.898  10.648  0.2107  0.2003 -0.1390
24163SOL    HW173930   5.339   3.901  10.724 -0.1358 -0.3761  0.1577
24163SOL    HW273931   5.227   3.977  10.656 -1.5500 -1.0816  1.6366
24164SOL     OW73932   7.239   2.249   0.309 -0.0563 -0.3376  0.4465
24164SOL    HW173933   7.275   2.255   0.220  0.9207 -0.6970  0.8035
24164SOL    HW273934   7.198   2.163   0.312 -3.4062  1.0421 -0.8101
24165SOL     OW73935   4.879   1.037   2.509  0.1613  0.1300  1.0553
24165SOL    HW173936   4.787   1.059   2.504  0.3623  0.7548 -0.1776
24165SOL    HW273937   4.924   1.121   2.521  0.5756 -0.1661  1.6511
24166SOL     OW73938   1.348   3.423   3.848 -0.1967 -0.3263  0.0234
24166SOL    HW173939   1.281   3.355   3.843 -0.5783  0.0248  0.2981
24166SOL    HW273940   1.300   3.503   3.865 -0.0241  0.4541 -2.6988
24167SOL     OW73941   7.082   3.953   1.050 -0.1848  0.3546 -0.2086
24167SOL    HW173942   7.090   3.858   1.063  1.8804  0.4887 -0.2479
24167SOL    HW273943   6.988   3.967   1.039 -0.7420 -1.4577  1.5791
24168SOL     OW73944   4.397   4.014  12.176  0.0248 -0.2068 -0.2483
24168SOL    HW173945   4.482   4.055  12.158  0.6835 -2.2295 -2.2076
24168SOL    HW273946   4.339   4.048  12.107 -0.1772 -0.4121 -0.1798
24169SOL     OW73947   5.714   3.563   3.687 -0.0199  0.2016  0.0791
24169SOL    HW173948   5.776   3.632   3.707 -0.1995  1.1008 -2.1802
24169SOL    HW273949   5.628   3.602   3.700 -0.1169  0.2334 -0.5874
24170SOL     OW73950   5.208   5.689   5.995  0.3501 -0.2464  0.3334
24170SOL    HW173951   5.160   5.626   6.049  1.2927 -0.4350  0.9721
24170SOL    HW273952   5.270   5.637   5.945  2.0274  0.2419  1.8063
24171SOL     OW73953   1.747   5.113   6.376  0.1275  0.3668  0.6618
24171SOL    HW173954   1.780   5.045   6.319 -0.6811  0.7365 -0.2768
24171SOL    HW273955   1.710   5.179   6.317 -1.7103  0.2520  1.6046
24172SOL     OW73956   4.103   6.151   5.440  0.2283  0.9021  0.3500
24172SOL    HW173957   4.045   6.090   5.485  0.5954  0.6480  0.4763
24172SOL    HW273958   4.190   6.133   5.475  0.3989  1.2294  0.1033
24173SOL     OW73959   6.266   3.185   8.498  1.1464 -0.1294  0.1619
24173SOL    HW173960   6.233   3.104   8.538  0.2108  0.2790  0.2581
24173SOL    HW273961   6.192   3.246   8.504  1.4489  0.3770 -0.9275
24174SOL     OW73962   6.426   4.945   1.494  0.3344 -0.0318 -0.8242
24174SOL    HW173963   6.487   5.017   1.512  0.1115 -0.3806  1.7984
24174SOL    HW273964   6.339   4.984   1.502  0.1692 -0.7776  2.2367
24175SOL     OW73965   2.660   0.697  12.069  0.5406 -0.8053  0.3103
24175SOL    HW173966   2.584   0.639  12.060  1.6254 -2.3122  0.4243
24175SOL    HW273967   2.701   0.696  11.983 -1.0093  2.2103 -0.5772
24176SOL     OW73968   5.947   2.640   5.659 -0.0923  0.4069 -0.1729
24176SOL    HW173969   5.887   2.703   5.619 -0.6870  0.0544  0.1471
24176SOL    HW273970   5.964   2.575   5.591 -1.4319 -0.4218  0.2502
24177SOL     OW73971   6.707   5.572  12.035 -0.8331  0.5098  0.8194
24177SOL    HW173972   6.681   5.497  12.089  1.5443 -0.8556  0.1748
24177SOL    HW273973   6.720   5.536  11.948 -1.2643  2.0406  0.0822
24178SOL     OW73974   6.327   3.633   2.691  0.1328  0.5120 -0.4168
24178SOL    HW173975   6.367   3.656   2.775 -0.7474  1.6942 -0.2967
24178SOL    HW273976   6.259   3.570   2.712 -0.0232  0.7345 -0.2568
24179SOL     OW73977   5.860   5.589   9.664  0.0886 -0.6808  0.1565
24179SOL    HW173978   5.938   5.627   9.625  0.2834 -1.4632 -0.2452
24179SOL    HW273979   5.850   5.504   9.621 -2.0042  0.1257 -1.0871
24180SOL     OW73980   1.367   6.933   1.475  0.5704 -0.0708  0.4290
24180SOL    HW173981   1.344   6.942   1.383  0.0262 -0.9174  0.4749
24180SOL    HW273982   1.399   7.020   1.500  1.3973 -0.0184 -0.7310
24181SOL     OW73983   6.270   2.706   7.749  0.0937  0.3627  0.3996
24181SOL    HW173984   6.276   2.650   7.827  2.2461  0.0684  0.0779
24181SOL    HW273985   6.361   2.728   7.728 -0.5550  1.9117 -0.9912
24182SOL     OW73986   4.090   1.879   9.746 -0.0852 -0.0806 -0.2770
24182SOL    HW173987   4.092   1.939   9.820 -5.0450 -0.6584  0.6783
24182SOL    HW273988   4.079   1.792   9.786 -1.7971 -0.5196 -1.5902
24183SOL     OW73989   5.693   5.347   4.314 -0.1403  0.6617 -0.5576
24183SOL    HW173990   5.647   5.426   4.344  1.4393  0.8497  1.5618
24183SOL    HW273991   5.652   5.327   4.230 -1.5905  2.8851 -0.4791
24184SOL     OW73992   2.700   4.880  10.178 -0.0575  0.3558 -0.2405
24184SOL    HW173993   2.605   4.881  10.186 -0.1698 -2.4715 -0.4601
24184SOL    HW273994   2.731   4.857  10.266  0.3625  0.1689 -0.4349
24185SOL     OW73995   1.469   2.403   9.828  0.0858 -0.1272  0.2651
24185SOL    HW173996   1.468   2.346   9.751  0.1150  0.0085  0.1645
24185SOL    HW273997   1.520   2.479   9.801 -1.4583  0.7897 -0.2079
24186SOL     OW73998   6.458   4.035   0.600  0.0557 -0.0442 -0.0917
24186SOL    HW173999   6.376   4.020   0.552  0.0891 -0.9313  0.1217
24186SOL    HW274000   6.442   4.116   0.647 -0.8780 -0.4365  0.3046
24187SOL     OW74001   0.572   7.843   2.686 -0.0213 -0.5990  0.3529
24187SOL    HW174002   0.528   7.893   2.754  0.1065  0.1880 -0.1273
24187SOL    HW274003   0.657   7.821   2.724  0.5241  0.8577  0.0483
24188SOL     OW74004   2.446   2.920  10.503  0.1673 -0.3289 -0.4351
24188SOL    HW174005   2.532   2.958  10.519 -0.5545  2.3333 -2.3388
24188SOL    HW274006   2.394   2.945  10.580  0.3522  0.4723 -0.5650
24189SOL     OW74007   1.934   0.458  12.055 -0.0811  0.5203  0.1928
24189SOL    HW174008   1.940   0.373  12.098  2.2936  0.6742  0.2666
24189SOL    HW274009   1.887   0.439  11.973 -2.3463 -0.2331  1.5763
24190SOL     OW74010   5.210   6.713   6.937 -0.0938  0.5209 -0.6358
24190SOL    HW174011   5.174   6.626   6.922  0.7686  0.3937 -2.2191
24190SOL    HW274012   5.136   6.772   6.925 -1.1701 -0.0252  2.4662
24191SOL     OW74013   2.633   4.091   4.016 -0.8203  0.0257  0.0722
24191SOL    HW174014   2.573   4.068   4.087 -1.9268  1.4731 -0.3593
24191SOL    HW274015   2.688   4.013   4.005 -1.2713 -0.5829  1.8448
24192SOL     OW74016   3.640   1.950   9.783  0.3309  0.0779 -0.5638
24192SOL    HW174017   3.582   1.897   9.838 -1.1619  0.7250 -1.4453
24192SOL    HW274018   3.630   2.039   9.816  1.3438  0.1203 -0.3259
24193SOL     OW74019   1.137   6.791   0.860 -0.4744 -0.2325  0.5568
24193SOL    HW174020   1.121   6.700   0.836  0.7006 -0.7084  1.4965
24193SOL    HW274021   1.056   6.836   0.837 -0.9488 -1.4440 -0.2439
24194SOL     OW74022   0.511   7.054  11.976 -0.1579  0.5531 -0.0525
24194SOL    HW174023   0.422   7.021  11.963  0.3226 -1.4545  1.3739
24194SOL    HW274024   0.538   7.019  12.060  2.3831  0.1988 -0.9359
24195SOL     OW74025   3.596   7.755   4.928 -0.1538  0.7074 -0.4768
24195SOL    HW174026   3.624   7.803   5.006 -3.5650 -1.1513  2.1661
24195SOL    HW274027   3.538   7.816   4.882 -1.5220  0.4512  0.8389
24196SOL     OW74028   3.157   2.003   6.998 -0.2729  0.0573  0.1993
24196SOL    HW174029   3.101   2.069   6.956  1.1820  1.4642  0.3499
24196SOL    HW274030   3.234   1.998   6.941  0.1451 -0.6626  0.8205
24197SOL     OW74031   6.360   5.128   4.788 -0.4691  0.1950  0.3931
24197SOL    HW174032   6.349   5.055   4.727  0.2470  0.8072 -0.5020
24197SOL    HW274033   6.421   5.096   4.854  0.0746  0.0804 -0.1608
24198SOL     OW74034   5.354   3.150  11.455 -0.0330  0.4667  0.4874
24198SOL    HW174035   5.273   3.194  11.429 -1.3002 -0.8571  1.9284
24198SOL    HW274036   5.347   3.143  11.551  1.2749 -0.6230  0.5308
24199SOL     OW74037   0.254   5.846   9.727  0.6527 -0.3073 -0.6338
24199SOL    HW174038   0.242   5.797   9.646 -0.9104  2.4303 -2.2429
24199SOL    HW274039   0.186   5.814   9.785 -1.4883  0.9965 -2.2811
24200SOL     OW74040   6.592   6.595   1.648 -0.6014  0.2354 -0.4648
24200SOL    HW174041   6.573   6.683   1.679  1.9615  0.6269  0.1877
24200SOL    HW274042   6.657   6.607   1.579 -0.7815 -1.1247 -0.9098
24201SOL     OW74043   4.781   5.287   0.974  0.0202 -0.3401  0.1527
24201SOL    HW174044   4.823   5.328   1.050  1.5058 -0.0761 -0.7573
24201SOL    HW274045   4.688   5.297   0.990  0.1797 -2.1347  2.9445
24202SOL     OW74046   5.790   1.605   4.576  0.6386  0.1411  0.0169
24202SOL    HW174047   5.880   1.605   4.609  0.9904  0.6808 -0.9132
24202SOL    HW274048   5.781   1.688   4.530  0.3012 -0.7683 -1.6156
24203SOL     OW74049   6.711   7.137   3.194 -0.2611  0.0838  0.2434
24203SOL    HW174050   6.790   7.167   3.150 -0.2682  2.7204  1.8373
24203SOL    HW274051   6.655   7.103   3.123  1.8496 -0.9582 -1.0157
24204SOL     OW74052   6.762   6.498   8.068 -0.3259 -0.0485 -0.3318
24204SOL    HW174053   6.829   6.556   8.033  1.7125 -1.7231  0.5611
24204SOL    HW274054   6.700   6.487   7.996 -0.5696  2.8045 -0.6560
24205SOL     OW74055   5.901   7.687   9.444 -0.1258 -0.3934 -0.2601
24205SOL    HW174056   5.881   7.601   9.407  0.3215 -1.2757  1.4305
24205SOL    HW274057   5.843   7.747   9.397 -1.2784 -1.7769 -0.7015
24206SOL     OW74058   3.769   6.399   0.760  0.4714  0.3811  0.3084
24206SOL    HW174059   3.789   6.406   0.666  0.3955 -1.1421  0.1599
24206SOL    HW274060   3.785   6.487   0.794  2.2129  0.5442 -0.8058
24207SOL     OW74061   0.759   1.979  11.603  0.4101  0.2896  1.0555
24207SOL    HW174062   0.801   1.906  11.648 -2.1487 -1.3628  0.9642
24207SOL    HW274063   0.817   1.998  11.529  0.7297 -2.2989  0.5571
24208SOL     OW74064   6.144   5.726   4.124 -0.0733  0.1420 -0.4962
24208SOL    HW174065   6.058   5.691   4.149  0.8006 -0.5942  1.6898
24208SOL    HW274066   6.125   5.815   4.093 -1.3888  1.0901  2.6698
24209SOL     OW74067   3.189   5.899   1.896  0.0684 -0.4419  0.0079
24209SOL    HW174068   3.282   5.887   1.917 -0.1846 -2.7177  0.0368
24209SOL    HW274069   3.146   5.908   1.981  0.0417 -1.3223  0.0922
24210SOL     OW74070   7.745   2.479  12.197  0.7685  0.6159 -0.0010
24210SOL    HW174071   7.717   2.538  12.127  0.8110 -0.7564 -1.2155
24210SOL    HW274072   7.837   2.460  12.179 -0.3603 -3.8045 -2.8026
24211SOL     OW74073   1.995   7.677   6.732  0.2158 -0.4251 -0.0281
24211SOL    HW174074   2.090   7.681   6.725  0.2946 -0.4970  0.9026
24211SOL    HW274075   1.964   7.684   6.641  1.0084  2.2255 -0.1800
24212SOL     OW74076   4.091   7.145   3.992  0.2494  0.2869  0.1906
24212SOL    HW174077   3.998   7.123   3.992 -0.2087  2.0331 -1.3528
24212SOL    HW274078   4.094   7.238   3.971  2.2406  0.9464  2.8351
24213SOL     OW74079   2.485   6.202   3.364  0.0528 -0.2175 -0.5403
24213SOL    HW174080   2.473   6.108   3.349  1.1169 -0.5778  0.6735
24213SOL    HW274081   2.407   6.229   3.412 -0.8274 -0.1962 -1.9346
24214SOL     OW74082   4.903   0.579   2.820 -0.1037 -0.8226 -0.1645
24214SOL    HW174083   4.962   0.548   2.752  0.1327 -1.5865  0.3753
24214SOL    HW274084   4.960   0.606   2.892 -0.3323  0.3467 -0.3986
24215SOL     OW74085   5.346   4.433  11.044  0.3220 -0.4001  0.0700
24215SOL    HW174086   5.348   4.458  10.952  0.3521 -0.3775  0.0767
24215SOL    HW274087   5.272   4.373  11.051  0.1986 -0.2461  0.0703
24216SOL     OW74088   3.297   6.454   0.159 -0.4593  0.8330 -0.0887
24216SOL    HW174089   3.354   6.528   0.177  1.6505 -0.8049  0.3589
24216SOL    HW274090   3.241   6.446   0.236  1.0081  0.5026  0.9770
24217SOL     OW74091   3.712   3.806   2.210  0.0355 -0.0267 -0.2473
24217SOL    HW174092   3.715   3.855   2.293  0.1172 -3.0713  1.7054
24217SOL    HW274093   3.633   3.753   2.217  1.3148 -2.1323 -0.9579
24218SOL     OW74094   2.162   5.693  10.999  0.6755 -0.1325  0.1864
24218SOL    HW174095   2.210   5.615  11.025 -0.3707 -0.5459  0.9658
24218SOL    HW274096   2.090   5.698  11.062 -0.3633  0.3831 -1.0104
24219SOL     OW74097   5.465   5.789  11.883 -0.1229 -0.4791  0.4007
24219SOL    HW174098   5.539   5.731  11.902 -0.3608 -0.7317  0.5638
24219SOL    HW274099   5.503   5.877  11.882  0.5416 -0.7512 -1.3958
24220SOL     OW74100   1.299   3.353   2.710  0.1441  0.0589 -0.7772
24220SOL    HW174101   1.370   3.415   2.726 -1.1800  1.3426  0.3985
24220SOL    HW274102   1.219   3.401   2.734 -1.2034 -1.1107 -2.6170
24221SOL     OW74103   3.461   5.647   1.093 -0.3308 -0.1185  0.2316
24221SOL    HW174104   3.450   5.691   1.009  0.3120 -1.8493 -0.8157
24221SOL    HW274105   3.401   5.572   1.090  1.0755 -1.2964  0.4964
24222SOL     OW74106   2.624   6.618   6.739  0.0225  0.5136 -0.5968
24222SOL    HW174107   2.599   6.548   6.800  1.0149 -1.0705 -1.9251
24222SOL    HW274108   2.554   6.621   6.674  0.6168 -0.1909 -1.2861
24223SOL     OW74109   0.911   5.091  11.030  0.2969  1.0983  0.0354
24223SOL    HW174110   0.950   5.035  11.097 -1.9802 -0.6271  0.0511
24223SOL    HW274111   0.986   5.129  10.983  1.9752 -1.2399  0.6343
24224SOL     OW74112   4.959   3.155   8.556  0.6077 -0.3861  0.0180
24224SOL    HW174113   4.917   3.240   8.568  0.0753 -0.6758  0.2315
24224SOL    HW274114   5.045   3.176   8.518  0.9280  0.3165  1.0781
24225SOL     OW74115   5.804   7.681   0.745  0.0239 -0.1120  0.4383
24225SOL    HW174116   5.751   7.754   0.777 -1.8478 -1.3606  0.2956
24225SOL    HW274117   5.847   7.647   0.823 -1.8580 -1.0074  1.1462
24226SOL     OW74118   4.900   0.356   3.290  0.7132 -0.3493  0.2613
24226SOL    HW174119   4.856   0.377   3.208  0.6001 -0.1596  0.3712
24226SOL    HW274120   4.932   0.267   3.278  2.4239  0.3490 -0.7472
24227SOL     OW74121   6.845   2.167   1.003  0.2476 -0.4162 -0.2387
24227SOL    HW174122   6.934   2.201   0.996 -0.4012  1.3202 -0.7393
24227SOL    HW274123   6.829   2.123   0.920  1.0677 -1.9081  0.3696
24228SOL     OW74124   5.515   0.333   7.747 -0.0001 -0.1828 -0.6867
24228SOL    HW174125   5.579   0.268   7.775  1.0578  0.7134 -0.9519
24228SOL    HW274126   5.512   0.396   7.819  0.9858  0.8763 -1.5368
24229SOL     OW74127   3.375   5.169   1.504 -0.1346  0.6784 -0.0242
24229SOL    HW174128   3.300   5.157   1.446 -0.9598  0.9765  0.9378
24229SOL    HW274129   3.384   5.264   1.512 -0.7973  0.6529  1.2587
24230SOL     OW74130   2.660   5.789   7.238 -0.1545  0.1261 -0.4204
24230SOL    HW174131   2.576   5.835   7.228  0.3470  0.8275 -1.8120
24230SOL    HW274132   2.681   5.797   7.331 -0.6228  1.8011 -0.4210
24231SOL     OW74133   5.571   4.021   7.419  0.5407  0.3042  0.4402
24231SOL    HW174134   5.572   4.101   7.367  0.8179 -0.2324 -0.4070
24231SOL    HW274135   5.495   3.973   7.388  0.1838  0.3811  1.1807
24232SOL     OW74136   4.672   7.153  12.233 -0.3343 -0.0189  0.2878
24232SOL    HW174137   4.657   7.228  12.291  0.4322 -0.5205  1.1737
24232SOL    HW274138   4.600   7.092  12.253 -0.1427 -0.1359  0.6320
24233SOL     OW74139   5.975   1.705   8.889 -0.8835  0.8698  0.6800
24233SOL    HW174140   6.070   1.712   8.892 -0.8093  0.1845  0.1762
24233SOL    HW274141   5.944   1.758   8.962 -0.0210 -0.4417  2.0454
24234SOL     OW74142   6.541   3.457  10.438 -0.3891  0.2545 -0.1742
24234SOL    HW174143   6.609   3.503  10.390  0.3122 -1.4104 -0.8629
24234SOL    HW274144   6.466   3.455  10.379 -0.2213  0.0066 -0.3797
24235SOL     OW74145   6.253   2.381   9.765 -0.2411 -0.1754  0.3466
24235SOL    HW174146   6.271   2.474   9.776  1.0919 -0.5267  1.3556
24235SOL    HW274147   6.222   2.374   9.674 -0.7934  1.2870  0.3825
24236SOL     OW74148   7.030   5.214  11.660 -0.7817 -0.3407 -0.7250
24236SOL    HW174149   7.122   5.188  11.662 -0.3628  1.1222  0.7697
24236SOL    HW274150   7.030   5.302  11.622 -1.4876 -0.1023 -0.1999
24237SOL     OW74151   0.784   4.861   5.546 -0.2798 -0.0593 -0.0543
24237SOL    HW174152   0.734   4.865   5.464  0.0528 -0.0111 -0.2559
24237SOL    HW274153   0.874   4.881   5.520 -0.0165 -0.9055  0.1774
24238SOL     OW74154   3.779   5.850   8.430  0.3240  0.3541  0.4863
24238SOL    HW174155   3.738   5.937   8.430 -1.2476 -0.3463  0.2738
24238SOL    HW274156   3.769   5.819   8.340  1.9967  0.4369  0.2538
24239SOL     OW74157   6.214   4.286   8.793 -0.5593 -0.5224 -0.0705
24239SOL    HW174158   6.125   4.316   8.775 -0.4060 -0.2794 -0.4240
24239SOL    HW274159   6.231   4.312   8.884 -1.4346 -1.9972  0.5503
24240SOL     OW74160   2.760   5.408   7.866 -0.3241  0.0559  0.1479
24240SOL    HW174161   2.816   5.341   7.904 -0.4851 -0.3342 -0.2999
24240SOL    HW274162   2.694   5.359   7.817 -0.7603  0.5243  0.2587
24241SOL     OW74163   2.920   2.935   8.601  0.3640 -0.0849  0.0039
24241SOL    HW174164   2.938   2.982   8.683  1.2276 -0.4165  0.0115
24241SOL    HW274165   2.964   2.851   8.612  0.2177 -0.2510 -0.6777
24242SOL     OW74166   3.642   5.639   4.179  0.3247  0.4250 -0.4969
24242SOL    HW174167   3.593   5.560   4.155  0.0837  0.5325 -0.3702
24242SOL    HW274168   3.574   5.700   4.209  0.2854  1.3896 -2.4316
24243SOL     OW74169   6.887   0.010   8.098  0.4412 -0.0741 -0.8850
24243SOL    HW174170   6.830   0.040   8.169  1.6165  1.8086 -0.6812
24243SOL    HW274171   6.866   0.069   8.025  0.5270 -0.8469 -1.5514
24244SOL     OW74172   4.219   6.472   9.766  0.6811 -0.1548 -0.0657
24244SOL    HW174173   4.274   6.431   9.700  0.7223 -2.7151  1.4296
24244SOL    HW274174   4.135   6.486   9.722  1.1913 -0.2897 -1.1056
24245SOL     OW74175   1.230   7.169   2.731 -0.1272 -0.7817 -0.4252
24245SOL    HW174176   1.290   7.174   2.806  1.0799  1.2987 -1.4244
24245SOL    HW274177   1.161   7.232   2.751  0.5921  0.3336 -1.3228
24246SOL     OW74178   2.697   5.159   0.327  0.1406  0.0050  0.0219
24246SOL    HW174179   2.767   5.151   0.262  0.7900  1.8442  0.4220
24246SOL    HW274180   2.666   5.070   0.340  1.1591 -0.6193 -1.5381
24247SOL     OW74181   1.530   1.738  10.891 -0.2026 -0.2447 -0.2309
24247SOL    HW174182   1.580   1.689  10.956  0.1304 -0.2823 -0.5137
24247SOL    HW274183   1.550   1.696  10.808 -0.4741 -0.0754 -0.3856
24248SOL     OW74184   4.924   5.059   2.807 -0.6005  0.2026 -0.1400
24248SOL    HW174185   4.949   5.151   2.808 -1.8844  0.6665 -2.5921
24248SOL    HW274186   4.830   5.060   2.827 -0.7112 -0.5278 -0.5844
24249SOL     OW74187   1.703   5.935   1.647  0.3829  0.5876  0.1463
24249SOL    HW174188   1.645   5.871   1.686 -0.6304  0.2299 -1.8174
24249SOL    HW274189   1.669   6.020   1.676  0.1463  0.3257  0.6436
24250SOL     OW74190   7.117   3.789   4.558 -0.5177  0.2782  0.3269
24250SOL    HW174191   7.127   3.717   4.620  0.1075  0.1750  0.1074
24250SOL    HW274192   7.073   3.749   4.483  0.9417 -0.1915 -0.3198
24251SOL     OW74193   6.772   2.396   3.009  0.4680 -0.2056  0.0062
24251SOL    HW174194   6.817   2.322   3.049 -0.4632 -0.3755  0.7788
24251SOL    HW274195   6.679   2.376   3.019  0.2089  0.7468 -0.3827
24252SOL     OW74196   7.545   4.440   3.720 -0.3719 -0.3391  0.2463
24252SOL    HW174197   7.575   4.531   3.715  0.6772 -0.6449  0.5457
24252SOL    HW274198   7.479   4.432   3.652 -1.0478  0.8553  0.7387
24253SOL     OW74199   1.215   6.667   0.011 -0.6481  0.2187 -0.9784
24253SOL    HW174200   1.189   6.759   0.008 -3.1108 -0.3709 -0.2969
24253SOL    HW274201   1.248   6.649  -0.077 -0.2630  1.6874 -1.1689
24254SOL     OW74202   5.663   5.295   1.396  0.3130  0.3359 -0.0485
24254SOL    HW174203   5.670   5.374   1.343 -0.7442  0.2127 -0.3891
24254SOL    HW274204   5.590   5.246   1.358  0.5495 -0.5062  0.5471
24255SOL     OW74205   6.889   5.418   2.215  0.2348 -0.4086  0.5108
24255SOL    HW174206   6.898   5.373   2.299  1.2554 -1.6537 -0.2153
24255SOL    HW274207   6.954   5.376   2.158 -2.3416 -1.6739 -1.7592
24256SOL     OW74208   5.863   5.694   0.068  0.0939 -0.0377  0.5794
24256SOL    HW174209   5.923   5.637   0.018  1.5572  1.7510  0.1732
24256SOL    HW274210   5.900   5.696   0.156 -0.6579 -0.6642  0.9148
24257SOL     OW74211   0.481   5.787   5.517  0.2399 -0.5428 -0.3368
24257SOL    HW174212   0.430   5.782   5.598  1.0504  0.4888  0.2635
24257SOL    HW274213   0.426   5.743   5.452 -1.5226  0.6859  0.2239
24258SOL     OW74214   2.432   7.677   2.633  0.1945 -0.2695  0.3455
24258SOL    HW174215   2.364   7.709   2.692  1.6137 -0.2528  2.0861
24258SOL    HW274216   2.493   7.750   2.625 -1.0401  0.5525 -3.0661
24259SOL     OW74217   7.793   1.500   7.792 -0.1688  0.2096 -0.0175
24259SOL    HW174218   7.854   1.534   7.726 -0.9933  1.5364 -0.1486
24259SOL    HW274219   7.709   1.496   7.747 -0.7526  1.1691  0.9375
24260SOL     OW74220   1.352   4.686   1.810  0.2983 -1.1397  0.3793
24260SOL    HW174221   1.424   4.634   1.845  0.4634 -0.4499  1.0973
24260SOL    HW274222   1.368   4.774   1.842 -0.2714 -0.7488 -0.3710
24261SOL     OW74223   1.695   6.464  10.897  0.0340  0.0899  0.2788
24261SOL    HW174224   1.682   6.377  10.936  0.9064 -0.5730 -0.8448
24261SOL    HW274225   1.626   6.518  10.935  0.2658 -0.7666  1.9724
24262SOL     OW74226   7.592   5.259   9.906  0.3207  0.1393  0.1908
24262SOL    HW174227   7.508   5.236   9.867  1.1251 -0.3132 -1.3749
24262SOL    HW274228   7.582   5.349   9.935 -0.9174 -0.1413  0.6812
24263SOL     OW74229   5.003   0.539  11.198  0.2468  0.3826  0.0627
24263SOL    HW174230   4.958   0.602  11.141 -1.8168 -0.4117  0.7257
24263SOL    HW274231   4.979   0.566  11.287 -0.2551 -1.0107  0.3745
24264SOL     OW74232   3.258   7.363   9.406  0.3801 -0.2860 -0.0641
24264SOL    HW174233   3.189   7.348   9.341 -0.4870 -0.4087  0.8523
24264SOL    HW274234   3.240   7.451   9.440  0.5296 -0.4011  0.3247
24265SOL     OW74235   7.185   5.714   0.970  0.3104  0.0838  0.3359
24265SOL    HW174236   7.209   5.738   0.881 -0.4894 -1.6541 -0.4008
24265SOL    HW274237   7.250   5.758   1.025  0.0059  2.2973 -0.9661
24266SOL     OW74238   5.281   4.672   9.562  0.0194 -0.0205  0.2803
24266SOL    HW174239   5.187   4.660   9.555  0.2075 -1.2828 -0.2751
24266SOL    HW274240   5.296   4.762   9.534 -0.8359 -0.3632 -1.3726
24267SOL     OW74241   0.459   3.081   3.197 -0.6156  0.6178  0.1040
24267SOL    HW174242   0.416   3.127   3.125 -2.4996 -0.6971  0.3101
24267SOL    HW274243   0.408   3.001   3.208  1.6320 -0.8401  0.7100
24268SOL     OW74244   1.737   5.106  11.894  0.0628 -0.6900 -0.5402
24268SOL    HW174245   1.782   5.173  11.843  1.4792 -0.8869  0.3649
24268SOL    HW274246   1.679   5.062  11.832 -0.0254  0.6027 -1.4013
24269SOL     OW74247   7.075   1.654   4.398 -0.2334  0.2293  0.0509
24269SOL    HW174248   7.127   1.679   4.474  0.9607 -0.8650 -0.3622
24269SOL    HW274249   7.103   1.714   4.328  1.4538 -1.1222 -0.5065
24270SOL     OW74250   0.461   1.350  11.879 -0.4242  0.4174 -0.7726
24270SOL    HW174251   0.524   1.294  11.835 -0.4509  1.2735 -1.9449
24270SOL    HW274252   0.376   1.328  11.840 -1.1355 -1.6393  1.6794
24271SOL     OW74253   3.560   0.319   6.097 -0.1602  0.3959 -0.0280
24271SOL    HW174254   3.544   0.283   6.184  0.0533 -0.9540 -0.5084
24271SOL    HW274255   3.479   0.302   6.049 -1.1476  3.1634  0.4818
24272SOL     OW74256   7.039   0.244   7.038  0.3652  0.5686 -0.3321
24272SOL    HW174257   7.042   0.331   6.998  1.2328 -0.2586 -2.2022
24272SOL    HW274258   6.984   0.192   6.979 -0.4777 -0.0640  0.9754
24273SOL     OW74259   5.645   1.895   5.165  0.7792 -0.7701 -0.0503
24273SOL    HW174260   5.684   1.905   5.252 -0.9133  0.4475  0.6123
24273SOL    HW274261   5.644   1.800   5.151  0.1362 -1.0632  1.7234
24274SOL     OW74262   7.932   3.811   5.217 -0.0369  0.5841 -0.3352
24274SOL    HW174263   7.910   3.858   5.137  0.5719  0.7582 -0.4047
24274SOL    HW274264   7.958   3.724   5.187 -0.1287  0.5421 -0.2949
24275SOL     OW74265   3.460   4.624   0.639  0.1122 -0.0934 -0.2321
24275SOL    HW174266   3.388   4.661   0.589 -0.4974 -0.5004  0.3260
24275SOL    HW274267   3.471   4.536   0.605 -0.6801 -0.5737  0.7037
24276SOL     OW74268   0.360   7.447   4.036 -0.1651  0.3509  0.3575
24276SOL    HW174269   0.449   7.417   4.018 -1.2008 -2.9651  0.0977
24276SOL    HW274270   0.317   7.449   3.950 -0.7780  0.2706  0.6527
24277SOL     OW74271   6.381   4.689   4.442  0.0565 -0.4068 -0.1290
24277SOL    HW174272   6.308   4.643   4.483  0.4062 -0.6461  0.2298
24277SOL    HW274273   6.411   4.751   4.508  0.2313 -0.3694 -0.2433
24278SOL     OW74274   2.002   5.152  10.702 -0.2206 -0.0233 -0.8713
24278SOL    HW174275   1.969   5.091  10.768  2.6894 -0.8067  0.0039
24278SOL    HW274276   2.034   5.227  10.752 -1.2369  1.0265 -1.7298
24279SOL     OW74277   4.248   7.230   6.829  0.2882  0.1215  0.2904
24279SOL    HW174278   4.262   7.148   6.877 -0.1218 -0.6512 -0.8414
24279SOL    HW274279   4.223   7.201   6.741  0.2754  1.4782 -0.1703
24280SOL     OW74280   1.003   1.042  10.315  0.3483  0.2063 -0.0038
24280SOL    HW174281   0.907   1.043  10.316  0.3259 -0.5437  1.3097
24280SOL    HW274282   1.026   1.010  10.228 -0.6359 -0.8329  0.0882
24281SOL     OW74283   6.712   0.074  11.722 -0.1593 -0.1368 -0.1439
24281SOL    HW174284   6.684   0.001  11.776 -2.0859  0.3101 -0.4842
24281SOL    HW274285   6.738   0.142  11.784  0.2182 -0.5743  0.1825
24282SOL     OW74286   7.018   5.921   2.435 -0.5710  0.0957  0.3961
24282SOL    HW174287   6.937   5.897   2.480 -0.2717  1.4232  1.7451
24282SOL    HW274288   7.087   5.895   2.496  0.0298 -0.9431 -0.7000
24283SOL     OW74289   5.586   7.447   7.798  0.0846  0.0952 -0.1295
24283SOL    HW174290   5.512   7.506   7.813  0.4332  0.2162  1.2573
24283SOL    HW274291   5.631   7.443   7.883  0.0076 -2.2555 -0.1399
24284SOL     OW74292   3.205   4.157   6.767 -0.2054  0.0116 -0.4281
24284SOL    HW174293   3.260   4.095   6.815 -0.3619  0.8876  0.9372
24284SOL    HW274294   3.158   4.102   6.704  0.2206 -1.1551  0.2213
24285SOL     OW74295   5.148   3.140   4.745 -0.0386  0.0531  0.2794
24285SOL    HW174296   5.083   3.078   4.778 -0.2237 -0.2630 -0.6365
24285SOL    HW274297   5.104   3.225   4.751 -0.1773 -0.0386  0.5737
24286SOL     OW74298   1.561   1.098   6.689  0.1766 -0.0638  0.0620
24286SOL    HW174299   1.584   1.039   6.617  1.0409  1.1192 -0.6800
24286SOL    HW274300   1.468   1.082   6.704 -0.5792  1.0236 -2.7192
24287SOL     OW74301   2.531   2.362   6.163  0.3634  0.5186 -0.1800
24287SOL    HW174302   2.591   2.405   6.103 -0.4012  0.7395 -0.7921
24287SOL    HW274303   2.588   2.308   6.219  1.2587  1.7287  0.1184
24288SOL     OW74304   1.930   5.604   1.916 -0.1996 -0.0666  0.9657
24288SOL    HW174305   1.992   5.671   1.884 -2.3224  0.3185 -2.9677
24288SOL    HW274306   1.865   5.654   1.966  0.1311  0.2266  1.1142
24289SOL     OW74307   7.865   6.646   0.088 -0.4481 -0.2093 -0.4343
24289SOL    HW174308   7.917   6.569   0.066  0.8296  0.5365 -0.0954
24289SOL    HW274309   7.929   6.718   0.093 -1.3501  0.5188  1.1264
24290SOL     OW74310   0.044   5.829  11.049 -0.2071  0.2372  0.0561
24290SOL    HW174311   0.007   5.864  11.131 -2.1580  0.0809 -0.6934
24290SOL    HW274312   0.026   5.897  10.985 -2.7652 -1.3770 -1.1258
24291SOL     OW74313   4.209   0.867   6.909  0.4361 -0.8061  0.1605
24291SOL    HW174314   4.152   0.851   6.984 -0.5334 -0.9609 -0.5948
24291SOL    HW274315   4.234   0.959   6.918  1.0226 -1.0473  1.1296
24292SOL     OW74316   5.526   0.834   0.081  0.4862 -0.0067 -0.1347
24292SOL    HW174317   5.582   0.904   0.113 -0.4967  1.1564 -0.9041
24292SOL    HW274318   5.443   0.845   0.128  0.3025 -0.6312 -0.2921
24293SOL     OW74319   0.938   5.399  11.948 -0.8157 -0.3331  0.1803
24293SOL    HW174320   0.955   5.350  11.868 -1.7904 -1.3068  0.5525
24293SOL    HW274321   1.025   5.421  11.981 -0.3797 -1.0607 -0.4542
24294SOL     OW74322   1.268   0.313   7.009  0.0973 -0.8462 -0.3592
24294SOL    HW174323   1.322   0.370   6.955  1.5613 -1.1685  0.6819
24294SOL    HW274324   1.207   0.272   6.948  1.5511 -1.0552 -1.7221
24295SOL     OW74325   6.342   5.433  10.704  0.4608 -0.0138 -0.0410
24295SOL    HW174326   6.408   5.411  10.638  1.3377  1.6614  0.2266
24295SOL    HW274327   6.322   5.525  10.688 -0.9656 -0.1838  0.6376
24296SOL     OW74328   1.622   3.085   1.275 -0.6144  0.6696  0.5704
24296SOL    HW174329   1.632   2.993   1.299 -1.8926  0.5189  0.5992
24296SOL    HW274330   1.550   3.085   1.211  0.4229  1.4694 -0.6335
24297SOL     OW74331   7.201   0.412  11.626  0.6793  0.7739 -0.0907
24297SOL    HW174332   7.260   0.336  11.625  0.7012  0.7353  1.5162
24297SOL    HW274333   7.118   0.378  11.594  0.6256 -0.0067  0.8277
24298SOL     OW74334   6.073   7.083   4.926  0.0532  0.3151 -0.5864
24298SOL    HW174335   6.082   7.067   4.832 -3.6362  2.2348 -1.4446
24298SOL    HW274336   6.042   7.000   4.962  1.1724 -0.3352 -1.0651
24299SOL     OW74337   1.831   4.888  11.497 -0.0292 -0.0063  0.0185
24299SOL    HW174338   1.892   4.832  11.450 -0.2579  0.2011 -0.5274
24299SOL    HW274339   1.843   4.974  11.459 -0.1416  0.1879  0.4168
24300SOL     OW74340   1.320   2.013   9.238 -0.2971 -0.7494 -0.3787
24300SOL    HW174341   1.258   2.076   9.201 -0.7155 -1.6920 -1.3183
24300SOL    HW274342   1.386   2.001   9.169  1.2101  0.5556  0.7549
24301SOL     OW74343   4.065   7.000   1.631  0.9326  0.3116  0.1075
24301SOL    HW174344   4.111   6.977   1.712  1.4266 -0.6874 -0.4306
24301SOL    HW274345   3.975   6.971   1.646  1.3538 -1.2644 -0.2302
24302SOL     OW74346   3.459   0.902  11.085  0.7217 -0.0084  0.1549
24302SOL    HW174347   3.484   0.961  11.014 -0.2161 -0.5343 -0.6267
24302SOL    HW274348   3.433   0.960  11.157  1.8318  0.5251  0.1444
24303SOL     OW74349   7.311   3.355   9.239 -0.2166 -0.1903 -0.2296
24303SOL    HW174350   7.374   3.426   9.229 -1.4993  0.8652 -1.3209
24303SOL    HW274351   7.281   3.338   9.149 -0.7342 -1.3547  0.1496
24304SOL     OW74352   6.072   2.887  12.153 -0.3261 -0.3962  0.0315
24304SOL    HW174353   6.090   2.930  12.237 -0.6625 -1.6179  0.7377
24304SOL    HW274354   5.993   2.930  12.121  0.8856  1.4770 -0.6646
24305SOL     OW74355   1.532   4.421   0.026  0.3435  0.8153  0.4356
24305SOL    HW174356   1.584   4.422  -0.055  0.3423 -0.4907  0.3971
24305SOL    HW274357   1.466   4.489   0.013  1.4543  1.8730  0.0995
24306SOL     OW74358   3.617   7.514   3.181  0.0715  0.0448 -0.1125
24306SOL    HW174359   3.653   7.496   3.094  0.5038 -0.6541  0.2016
24306SOL    HW274360   3.527   7.482   3.176 -1.0374  3.0055 -1.3228
24307SOL     OW74361   2.044   7.095   7.444 -0.0490  0.2851 -0.2791
24307SOL    HW174362   2.013   7.010   7.411 -0.9341  0.9982 -1.3360
24307SOL    HW274363   2.132   7.076   7.478  0.3981 -0.7652 -1.8751
24308SOL     OW74364   0.522   7.378   6.324  0.9687  0.0890 -0.3173
24308SOL    HW174365   0.597   7.431   6.299  0.9046 -0.5175 -1.8791
24308SOL    HW274366   0.560   7.300   6.365  1.2335 -0.4036 -1.4634
24309SOL     OW74367   2.745   5.244   6.789  0.3221  0.2061 -0.0607
24309SOL    HW174368   2.778   5.188   6.859  0.3156  0.3479  0.0567
24309SOL    HW274369   2.823   5.267   6.738  0.3562  0.2553  0.0119
24310SOL     OW74370   3.023   2.465   9.202  0.3735 -0.1031  0.0747
24310SOL    HW174371   2.972   2.390   9.171  0.6170  0.3423 -1.4761
24310SOL    HW274372   3.106   2.427   9.230 -0.3352 -0.6832  1.5208
24311SOL     OW74373   5.523   3.775  10.853  0.2947  0.3018  0.1281
24311SOL    HW174374   5.483   3.847  10.902 -0.9993 -0.1050 -0.2778
24311SOL    HW274375   5.613   3.772  10.884 -0.1307  0.8924  1.5278
24312SOL     OW74376   1.578   4.059   3.712  0.5911 -0.9698 -0.2968
24312SOL    HW174377   1.643   4.029   3.649  0.0152 -1.6820 -0.5726
24312SOL    HW274378   1.517   3.985   3.720 -0.3963 -0.1788 -0.3499
24313SOL     OW74379   4.435   3.386  10.488 -0.5365  0.2511 -0.0341
24313SOL    HW174380   4.456   3.432  10.569  2.4519  0.1076 -0.6212
24313SOL    HW274381   4.466   3.444  10.419  0.8536 -1.3950 -0.8763
24314SOL     OW74382   3.514   5.084   3.478 -0.3681 -0.0922 -0.3059
24314SOL    HW174383   3.593   5.055   3.433 -0.4849 -1.5819  0.4177
24314SOL    HW274384   3.534   5.076   3.571 -1.5092 -0.9315 -0.1121
24315SOL     OW74385   0.016   4.211   2.702  0.1209 -0.4398  0.0754
24315SOL    HW174386  -0.049   4.164   2.649  0.6169  0.7683 -1.7118
24315SOL    HW274387   0.005   4.302   2.676  1.9491 -0.1007  0.4007
24316SOL     OW74388   7.830   7.512   0.304  0.2932  0.2009  0.1791
24316SOL    HW174389   7.905   7.503   0.362  0.8941  0.4459 -0.5409
24316SOL    HW274390   7.771   7.441   0.330  1.3167 -0.7628 -0.0390
24317SOL     OW74391   7.454   5.711  10.160 -0.8030  0.3627  0.3530
24317SOL    HW174392   7.504   5.639  10.120 -1.5482  0.3939 -0.6559
24317SOL    HW274393   7.519   5.780  10.172 -0.4347  0.1295 -0.2316
24318SOL     OW74394   5.398   0.092   5.191  0.4753  0.1270  0.2377
24318SOL    HW174395   5.411   0.088   5.096  1.0282  1.1684  0.2564
24318SOL    HW274396   5.337   0.021   5.210  0.8553 -0.5048 -0.8116
24319SOL     OW74397   3.917   6.133  11.527  0.2094  0.1242 -0.1749
24319SOL    HW174398   3.933   6.090  11.442 -1.4083 -0.9576  0.0103
24319SOL    HW274399   3.957   6.074  11.591  1.9084  1.2138 -0.1732
24320SOL     OW74400   5.047   7.160   7.687 -0.6330 -0.3730  0.8974
24320SOL    HW174401   5.113   7.229   7.676 -0.7734 -0.0953  1.6711
24320SOL    HW274402   4.987   7.196   7.753 -0.6341 -1.2985  1.4058
24321SOL     OW74403   2.464   7.236   2.203 -0.1122 -0.0347  0.4481
24321SOL    HW174404   2.539   7.249   2.260 -0.1303 -0.1530  0.4987
24321SOL    HW274405   2.477   7.299   2.131  0.0039 -0.0152  0.4865
24322SOL     OW74406   5.833   0.165   9.891  0.0426 -0.5764  0.2571
24322SOL    HW174407   5.791   0.080   9.880  0.3585 -0.8520  1.1362
24322SOL    HW274408   5.817   0.188   9.982  2.3581 -0.9877  0.8177
24323SOL     OW74409   4.463   6.070   0.534  0.1610 -0.4595 -0.1782
24323SOL    HW174410   4.391   6.076   0.471  0.1596  0.9884 -0.0688
24323SOL    HW274411   4.538   6.109   0.489  0.3770 -0.1800  0.4098
24324SOL     OW74412   4.577   2.026   6.608  0.5459 -0.5062  0.6871
24324SOL    HW174413   4.526   2.090   6.657  1.7968 -0.2100  1.6305
24324SOL    HW274414   4.515   1.954   6.591 -0.6195  0.5451  0.3712
24325SOL     OW74415   4.695   1.485  10.399 -0.7921  0.1138  0.2751
24325SOL    HW174416   4.666   1.424  10.467  1.0427 -1.7286 -0.4802
24325SOL    HW274417   4.691   1.434  10.318  0.5676  1.0672 -0.4260
24326SOL     OW74418   2.063   1.024   3.868 -0.7813  0.2514  0.2089
24326SOL    HW174419   2.083   1.117   3.879 -0.7306  0.1855  0.7230
24326SOL    HW274420   2.116   0.996   3.794 -0.1875  0.4493  0.5540
24327SOL     OW74421   3.416   2.257   0.222 -0.9547  0.0825  0.3165
24327SOL    HW174422   3.333   2.257   0.269 -0.4314 -0.8710  1.2918
24327SOL    HW274423   3.392   2.234   0.132 -2.1617  3.5155 -0.3737
24328SOL     OW74424   0.724   1.491   2.459  0.1612  0.3673 -0.1420
24328SOL    HW174425   0.631   1.493   2.437  0.3927 -1.2428 -1.4207
24328SOL    HW274426   0.753   1.582   2.450 -0.3759  0.3158 -4.0040
24329SOL     OW74427   7.196   2.225  10.825 -0.6065  0.1064 -0.9989
24329SOL    HW174428   7.259   2.266  10.765  1.0660  0.7964  1.1123
24329SOL    HW274429   7.169   2.296  10.884  2.0709 -1.5020  2.5283
24330SOL     OW74430   3.337   0.044   4.171  0.9043 -0.3152 -0.1910
24330SOL    HW174431   3.263  -0.010   4.143  0.7759 -0.5158  0.5023
24330SOL    HW274432   3.381   0.069   4.090  1.4044 -2.0927 -0.5149
24331SOL     OW74433   0.037   5.132  11.155  0.1535 -0.0189  0.7078
24331SOL    HW174434   0.067   5.123  11.064 -0.8772 -1.5920  0.4763
24331SOL    HW274435   0.063   5.049  11.196 -0.2281  0.2883  1.5794
24332SOL     OW74436   3.409   3.477   4.224  1.1567  0.2820  0.1007
24332SOL    HW174437   3.485   3.420   4.213  1.4952  0.7355  0.0476
24332SOL    HW274438   3.431   3.533   4.299  0.3282 -0.4461  0.9087
24333SOL     OW74439   3.160   4.064   8.379  0.1741 -0.0996  0.0493
24333SOL    HW174440   3.137   3.972   8.365  1.2162 -0.0672 -2.2783
24333SOL    HW274441   3.253   4.061   8.403 -0.0811  0.3072  1.1587
24334SOL     OW74442   2.601   0.307   0.297 -0.0861 -0.1712  0.7421
24334SOL    HW174443   2.515   0.332   0.263  0.0128 -0.4999  0.2479
24334SOL    HW274444   2.663   0.338   0.232  0.0678 -1.2874  0.3338
24335SOL     OW74445   1.474   1.988  12.468 -0.2210  0.2502  0.0830
24335SOL    HW174446   1.423   2.063  12.436 -2.2541 -0.6711  1.0115
24335SOL    HW274447   1.417   1.913  12.454  0.5221 -0.7282  1.9801
24336SOL     OW74448   3.789   6.504   1.888 -0.1912  0.1254  0.1631
24336SOL    HW174449   3.876   6.531   1.858 -0.6590 -0.2873 -1.7059
24336SOL    HW274450   3.805   6.458   1.970  1.2431  0.8230  0.3161
24337SOL     OW74451   5.849   4.235   1.336 -0.1564  0.2856  0.2489
24337SOL    HW174452   5.877   4.195   1.418 -0.3344 -0.7480 -0.1842
24337SOL    HW274453   5.898   4.190   1.268 -0.6674  0.5131 -0.2845
24338SOL     OW74454   4.094   5.225   6.679  0.3200  0.2164  0.1403
24338SOL    HW174455   4.182   5.221   6.716  0.3711 -0.5252 -0.0288
24338SOL    HW274456   4.046   5.285   6.736  0.1703 -1.4899  1.9446
24339SOL     OW74457   3.222   2.790   7.384  0.0175  0.2013 -0.3649
24339SOL    HW174458   3.269   2.872   7.394 -0.3943  0.5072 -0.8758
24339SOL    HW274459   3.258   2.752   7.303 -0.8217  0.5948 -0.9418
24340SOL     OW74460   6.608   1.792   0.603 -1.0381  0.2924 -0.1265
24340SOL    HW174461   6.598   1.768   0.511  0.9370  0.0105 -0.3212
24340SOL    HW274462   6.608   1.709   0.650 -1.8682  0.4250  0.1178
24341SOL     OW74463   0.701   4.987  10.684  0.0869 -0.5889  0.0204
24341SOL    HW174464   0.697   4.912  10.625  0.2535 -1.3761  0.9834
24341SOL    HW274465   0.776   4.970  10.741  0.1940  0.3665  0.1890
24342SOL     OW74466   7.668   0.338   3.091  0.0246  0.1471  0.3640
24342SOL    HW174467   7.735   0.306   3.030  0.7270 -1.3910  1.8354
24342SOL    HW274468   7.585   0.321   3.047  0.5311 -0.0294 -0.5528
24343SOL     OW74469   7.621   7.825   9.161 -0.1752  0.1132  0.0465
24343SOL    HW174470   7.590   7.753   9.215  1.0482 -0.3943  0.1142
24343SOL    HW274471   7.716   7.823   9.171  0.1333 -0.1437 -2.3006
24344SOL     OW74472   0.770   5.741   8.128  0.4017  0.0458  0.6846
24344SOL    HW174473   0.833   5.673   8.105  0.3735  0.1904  0.1645
24344SOL    HW274474   0.811   5.788   8.200  1.9678  1.5931 -1.1013
24345SOL     OW74475   6.562   2.369   7.824  0.0068  0.1358 -0.0406
24345SOL    HW174476   6.511   2.412   7.756 -1.7719  1.1291  1.8066
24345SOL    HW274477   6.559   2.276   7.802 -0.2427  0.4647 -1.4597
24346SOL     OW74478   3.842   2.541   4.809  0.0765  0.4765  0.0145
24346SOL    HW174479   3.821   2.632   4.833  1.2425  0.6915  0.2761
24346SOL    HW274480   3.793   2.527   4.728 -1.9822  0.5407  1.1778
24347SOL     OW74481   2.631   0.046   0.361 -0.3949 -0.2863 -0.0731
24347SOL    HW174482   2.616   0.123   0.305  0.5191  0.4352  0.6461
24347SOL    HW274483   2.722   0.023   0.346 -0.4167 -0.6947  0.3895
24348SOL     OW74484   0.242   7.747   9.030  0.1366  0.1222  0.8121
24348SOL    HW174485   0.244   7.843   9.031 -0.7644  0.1792 -0.1805
24348SOL    HW274486   0.201   7.725   8.946 -0.9261 -1.1062  1.6104
24349SOL     OW74487   2.511   7.855   3.047 -0.0488 -0.1711  0.5657
24349SOL    HW174488   2.471   7.790   3.105 -1.1725 -0.9577 -1.0323
24349SOL    HW274489   2.445   7.923   3.037 -1.6879 -2.0723 -3.0835
24350SOL     OW74490   0.656   4.704   2.951  0.2837 -0.2811  0.2435
24350SOL    HW174491   0.686   4.730   3.039 -0.1367 -0.0627  0.3259
24350SOL    HW274492   0.576   4.755   2.937 -0.0587 -0.8660  0.0351
24351SOL     OW74493   3.902   6.036   9.572 -0.6617 -0.0204  0.2901
24351SOL    HW174494   3.879   6.060   9.662 -0.0151  1.0431  0.1904
24351SOL    HW274495   3.982   6.085   9.554  0.2295 -1.6124 -0.2726
24352SOL     OW74496   7.433   6.768  10.281 -0.3168  0.4543  0.6246
24352SOL    HW174497   7.474   6.699  10.228  0.5808  0.4785  1.2654
24352SOL    HW274498   7.495   6.784  10.352 -1.4306  0.5208  1.6169
24353SOL     OW74499   4.953   4.321   2.857 -0.5040 -0.1177 -0.0269
24353SOL    HW174500   4.959   4.243   2.913  0.7875  0.6091  0.9010
24353SOL    HW274501   4.891   4.378   2.903 -2.5183 -1.0884 -1.3947
24354SOL     OW74502   1.478   1.767  11.808  0.0435  0.3820 -0.3411
24354SOL    HW174503   1.414   1.699  11.791 -0.0409  0.5081 -0.5385
24354SOL    HW274504   1.501   1.757  11.900 -1.6894  1.5272  0.2742
24355SOL     OW74505   5.481   3.547  11.337  0.0535  0.3189  0.3782
24355SOL    HW174506   5.451   3.495  11.262  1.6909  0.7798 -0.6424
24355SOL    HW274507   5.417   3.529  11.406 -0.2001 -1.9414 -0.3872
24356SOL     OW74508   0.925   7.260   1.246 -0.2958 -0.0008 -0.0963
24356SOL    HW174509   0.903   7.241   1.155 -0.4545  0.7409 -0.2186
24356SOL    HW274510   0.848   7.232   1.296 -0.2806 -0.2369 -0.2024
24357SOL     OW74511   7.833   5.325  11.090  0.4186 -0.1306 -0.2351
24357SOL    HW174512   7.743   5.296  11.075  0.2460  0.5278 -0.5026
24357SOL    HW274513   7.880   5.245  11.112 -0.0850 -0.5878 -0.7789
24358SOL     OW74514   6.623   1.149   8.693 -0.3215  0.0953  0.0874
24358SOL    HW174515   6.569   1.107   8.760  0.2725  0.7438  1.0036
24358SOL    HW274516   6.710   1.156   8.733  0.3926 -0.7127 -1.2671
24359SOL     OW74517   2.786   4.937   1.495 -0.3169  0.0555 -0.1234
24359SOL    HW174518   2.716   4.997   1.521 -0.3578  0.3487 -0.8861
24359SOL    HW274519   2.743   4.870   1.443 -0.3700 -1.0080  1.2274
24360SOL     OW74520   1.178   3.916   3.748 -0.6025 -0.2333 -0.6575
24360SOL    HW174521   1.082   3.908   3.750 -0.5614 -0.6540 -0.1139
24360SOL    HW274522   1.195   4.005   3.777 -0.8350 -0.0983 -0.9255
24361SOL     OW74523   1.137   2.781  11.900  0.3463 -0.3144 -0.1278
24361SOL    HW174524   1.092   2.858  11.865  0.1519 -0.0078  0.7736
24361SOL    HW274525   1.097   2.707  11.855 -1.0889 -0.0494  0.6480
24362SOL     OW74526   6.995   0.624   1.103 -0.4311  0.5485 -0.5198
24362SOL    HW174527   6.928   0.645   1.038 -0.3169  0.5701 -0.6304
24362SOL    HW274528   7.058   0.697   1.097  0.1726 -0.0120 -1.1742
24363SOL     OW74529   0.113   5.030  11.679  0.7251 -0.0294 -0.1332
24363SOL    HW174530   0.193   5.080  11.692  0.3116  0.6322 -0.0592
24363SOL    HW274531   0.047   5.096  11.656  0.0047 -0.4470  0.6539
24364SOL     OW74532   5.469   4.527   0.232  0.2722 -0.2700  0.5602
24364SOL    HW174533   5.393   4.511   0.177  1.2624 -0.6996 -0.7541
24364SOL    HW274534   5.433   4.554   0.317 -1.3659 -2.1148  0.5249
24365SOL     OW74535   7.960   2.446   9.979 -0.4082  0.2435  0.4299
24365SOL    HW174536   8.039   2.392   9.991 -0.1622  0.5015 -0.0071
24365SOL    HW274537   7.957   2.502  10.057 -0.3886 -0.0531  0.6454
24366SOL     OW74538   4.777   5.622   6.432  0.1973 -0.4237  0.1271
24366SOL    HW174539   4.795   5.531   6.411 -0.2440 -0.1837 -1.3684
24366SOL    HW274540   4.840   5.672   6.380  0.2454  0.1365  0.7095
24367SOL     OW74541   0.965   3.244   8.508  0.1109  0.1111  0.1852
24367SOL    HW174542   0.913   3.302   8.563  0.1067  0.0573  0.2379
24367SOL    HW274543   1.047   3.292   8.493 -0.3641  0.6522 -0.7679
24368SOL     OW74544   4.243   2.822   7.532  0.5131  0.6557 -0.0220
24368SOL    HW174545   4.273   2.901   7.487 -1.9519  1.2523 -0.7749
24368SOL    HW274546   4.220   2.851   7.620 -1.7113  1.1821 -0.7054
24369SOL     OW74547   3.760   4.604  11.252 -0.0716  0.4343 -0.3398
24369SOL    HW174548   3.726   4.523  11.214  1.2636  0.5989 -1.9773
24369SOL    HW274549   3.684   4.643  11.296 -0.6786 -1.8224  0.8074
24370SOL     OW74550   4.361   1.688  11.998 -0.2458  0.0599  0.0071
24370SOL    HW174551   4.450   1.718  11.984 -0.0251 -0.7283 -0.3098
24370SOL    HW274552   4.321   1.686  11.911 -0.5985  0.4643  0.1528
24371SOL     OW74553   7.359   0.990   7.340  0.3886  0.1808  0.0535
24371SOL    HW174554   7.302   1.034   7.403  0.1286 -1.9162  1.3985
24371SOL    HW274555   7.298   0.946   7.280  0.5817 -0.2772  0.1829
24372SOL     OW74556   4.013   2.441   4.085 -0.2809  0.1391 -0.1157
24372SOL    HW174557   3.968   2.504   4.142  0.0367  1.0340 -0.8163
24372SOL    HW274558   4.100   2.479   4.072 -0.1252 -0.3882 -0.6421
24373SOL     OW74559   0.980   3.564   0.450  0.1908  0.0283 -0.4055
24373SOL    HW174560   0.962   3.606   0.534 -1.9497 -0.8127 -0.3773
24373SOL    HW274561   1.069   3.528   0.460  0.4512  0.9817  1.0299
24374SOL     OW74562   5.202   2.869  10.769 -0.1115  0.5262  0.0905
24374SOL    HW174563   5.192   2.897  10.678 -0.6067  0.8618  0.2463
24374SOL    HW274564   5.296   2.854  10.780 -0.2266 -1.4384 -1.0513
24375SOL     OW74565   0.985   5.257   2.422 -0.0255 -0.0891  0.3007
24375SOL    HW174566   0.961   5.189   2.484  1.3657 -0.5234  0.4134
24375SOL    HW274567   1.062   5.299   2.461  0.6341 -0.1118 -0.9227
24376SOL     OW74568   7.160   5.077  11.217 -0.2061  0.2041  0.3570
24376SOL    HW174569   7.121   5.065  11.304  0.2998 -1.4550  0.4032
24376SOL    HW274570   7.245   5.032  11.223 -0.0570  0.2834 -0.9181
24377SOL     OW74571   2.352   7.243  10.520  0.0989  0.6594 -0.2268
24377SOL    HW174572   2.440   7.240  10.482 -0.7142 -0.2344 -2.1619
24377SOL    HW274573   2.293   7.246  10.445 -1.5265  2.7202  1.0334
24378SOL     OW74574   0.956   6.530   2.606 -0.0990  0.2117 -0.0368
24378SOL    HW174575   1.050   6.544   2.613 -0.1738  1.0803 -0.6311
24378SOL    HW274576   0.920   6.616   2.582 -1.4235  0.7837  3.2863
24379SOL     OW74577   0.275   4.058   5.512  0.0645  0.2657  0.1912
24379SOL    HW174578   0.210   4.016   5.569  0.5306 -0.1993  0.3983
24379SOL    HW274579   0.251   4.032   5.424 -0.0977  0.1835  0.2593
24380SOL     OW74580   4.783   3.708   1.876 -0.1031 -0.0063  0.2376
24380SOL    HW174581   4.741   3.716   1.961  1.3554  0.8363  0.9171
24380SOL    HW274582   4.718   3.740   1.814 -0.2687  1.9357  1.3285
24381SOL     OW74583   2.885   1.661   6.315  0.5839  0.4015  0.1606
24381SOL    HW174584   2.843   1.580   6.345  1.0102  0.5596  1.2175
24381SOL    HW274585   2.970   1.632   6.280  0.7308  0.3919  0.5265
24382SOL     OW74586   2.905   3.621   9.728 -0.3349  0.2509  0.0116
24382SOL    HW174587   2.976   3.683   9.712 -1.3565  1.8454  1.3962
24382SOL    HW274588   2.919   3.551   9.663  1.3893  1.4423 -0.9684
24383SOL     OW74589   3.104   0.410   2.594 -0.3195  0.5917 -0.3589
24383SOL    HW174590   3.067   0.423   2.681  0.1625 -0.8239  0.0893
24383SOL    HW274591   3.171   0.477   2.585  3.3905 -2.3154  2.5660
24384SOL     OW74592   7.438   1.020   2.794  0.0242 -0.0290  0.7467
24384SOL    HW174593   7.357   1.068   2.775 -0.5554 -1.1104  0.3580
24384SOL    HW274594   7.427   0.990   2.884 -0.8545 -1.6981  0.1320
24385SOL     OW74595   5.436   5.522   2.088  0.3137 -0.4938  0.0853
24385SOL    HW174596   5.449   5.613   2.112  0.0573 -1.1517  3.0343
24385SOL    HW274597   5.445   5.473   2.170 -3.0856 -2.7748 -0.6825
24386SOL     OW74598   1.477   2.255   6.136 -0.2298  0.1625  0.1307
24386SOL    HW174599   1.490   2.334   6.083 -1.3709  0.2197 -0.0899
24386SOL    HW274600   1.465   2.288   6.225 -0.2697  0.1973  0.1121
24387SOL     OW74601   4.429   6.625   4.759 -0.4189  0.3512  0.1151
24387SOL    HW174602   4.335   6.640   4.751 -0.3748  0.9478  0.6152
24387SOL    HW274603   4.460   6.694   4.818  0.3878  0.3792 -0.3149
24388SOL     OW74604   6.621   4.291   2.643 -0.3402 -0.2422  0.4986
24388SOL    HW174605   6.640   4.215   2.588 -1.7489  0.5386 -1.1740
24388SOL    HW274606   6.577   4.254   2.720  0.8003 -1.2784  0.6824
24389SOL     OW74607   4.428   2.832   7.019 -0.4584  1.0378 -0.4045
24389SOL    HW174608   4.513   2.873   7.000  1.6255 -2.1627  1.0774
24389SOL    HW274609   4.428   2.820   7.114 -1.1293 -1.7506 -0.6688
24390SOL     OW74610   4.374   6.293   3.675 -0.6282 -0.4180 -0.3027
24390SOL    HW174611   4.339   6.244   3.601  1.1921 -1.7462 -0.3276
24390SOL    HW274612   4.423   6.365   3.635 -2.4201  0.8882 -0.2783
24391SOL     OW74613   7.339   5.208   9.774  0.1996 -0.1978 -0.2152
24391SOL    HW174614   7.311   5.291   9.736 -0.8885 -0.9230 -1.0595
24391SOL    HW274615   7.331   5.145   9.703  0.3770 -1.1492  0.5872
24392SOL     OW74616   2.562   7.366  11.629  0.0819  0.5044 -0.0267
24392SOL    HW174617   2.550   7.460  11.645 -1.6592  0.5295 -1.2310
24392SOL    HW274618   2.615   7.362  11.549 -1.5629  0.5238 -1.1600
24393SOL     OW74619   0.518   0.501   0.783 -0.2345  0.2272 -0.8662
24393SOL    HW174620   0.498   0.442   0.710 -0.9112 -0.5758 -0.0511
24393SOL    HW274621   0.442   0.493   0.841  0.2844  0.8836 -0.0830
24394SOL     OW74622   3.014   4.221   5.390  0.3140  0.4730  0.2051
24394SOL    HW174623   3.088   4.167   5.363 -0.9558 -1.5090  0.4784
24394SOL    HW274624   2.963   4.235   5.310 -0.0003  0.1926  0.3510
24395SOL     OW74625   2.007   6.338   1.861 -0.3116  0.3588  0.6285
24395SOL    HW174626   1.995   6.243   1.861 -0.4985  0.3804  1.3912
24395SOL    HW274627   2.095   6.351   1.898  0.5849  0.4013 -1.3412
24396SOL     OW74628   1.640   3.945  10.993  0.1310  0.1259  0.2563
24396SOL    HW174629   1.689   3.937  10.911  3.5063 -2.9122  2.2569
24396SOL    HW274630   1.575   3.875  10.989 -0.2174  0.4716 -0.1311
24397SOL     OW74631   6.973   5.435   7.981  0.5114  0.7518 -0.1606
24397SOL    HW174632   6.891   5.407   7.940 -0.2671 -0.5647  2.1184
24397SOL    HW274633   7.022   5.354   7.996  1.6732  1.3992 -0.2873
24398SOL     OW74634   6.579   3.833   6.467 -0.2752  0.1603 -0.0429
24398SOL    HW174635   6.604   3.874   6.550 -1.3564  0.2608  0.2497
24398SOL    HW274636   6.592   3.739   6.482 -0.1419  0.2048  0.1235
24399SOL     OW74637   6.194   4.237   2.186  0.1019  0.1393  0.6922
24399SOL    HW174638   6.249   4.187   2.246  1.2639  0.7933  0.1905
24399SOL    HW274639   6.108   4.195   2.193  0.4862 -0.4979  1.9653
24400SOL     OW74640   1.117   5.452   7.689 -0.2465  0.6737  0.0699
24400SOL    HW174641   1.128   5.468   7.783  1.4885  0.5351 -0.0771
24400SOL    HW274642   1.023   5.438   7.678 -0.4817  0.6832  1.7805
24401SOL     OW74643   7.816   2.519   2.411  0.1691 -0.2559 -0.0953
24401SOL    HW174644   7.792   2.444   2.357 -0.1122 -2.5186  2.9054
24401SOL    HW274645   7.739   2.576   2.408 -0.0665 -0.6168 -1.5292
24402SOL     OW74646   7.465   4.546   7.179 -0.3679  0.4187  0.0900
24402SOL    HW174647   7.504   4.458   7.180  1.6403  1.2256 -0.7709
24402SOL    HW274648   7.441   4.562   7.270  0.2228 -0.6234  0.4611
24403SOL     OW74649   1.188   1.164   4.764  0.0821 -0.1075 -0.3640
24403SOL    HW174650   1.259   1.226   4.777 -0.3010  0.5079 -1.1178
24403SOL    HW274651   1.155   1.146   4.853  0.6686  0.1914 -0.0823
24404SOL     OW74652   0.339   6.114   9.079 -0.2051  0.0303  0.3565
24404SOL    HW174653   0.281   6.113   9.155 -0.1632  1.3853  0.4451
24404SOL    HW274654   0.315   6.194   9.033  1.2521  0.3664  0.1320
24405SOL     OW74655   6.541   2.496   8.872 -0.2876  0.2835  0.3159
24405SOL    HW174656   6.609   2.525   8.933  2.0945 -0.0898 -1.9663
24405SOL    HW274657   6.502   2.576   8.838  0.4427  0.5811  0.1674
24406SOL     OW74658   5.752   5.858   3.965  0.5858  0.1616  0.0914
24406SOL    HW174659   5.845   5.878   3.971  0.3725  1.2550  0.1018
24406SOL    HW274660   5.746   5.763   3.977  1.7589 -0.0208 -0.6985
24407SOL     OW74661   0.638   1.442   5.169  0.8121 -0.5203  0.0345
24407SOL    HW174662   0.638   1.418   5.262 -1.0881  0.5657  0.3669
24407SOL    HW274663   0.720   1.488   5.156 -0.5576  2.9232  2.2554
24408SOL     OW74664   7.691   0.232  12.117 -0.8241 -0.0243  0.3730
24408SOL    HW174665   7.744   0.245  12.038  0.6728  0.3814  1.3994
24408SOL    HW274666   7.753   0.242  12.190 -2.4774  1.3928  1.6859
24409SOL     OW74667   7.118   4.173   9.217 -0.5517  0.3051 -0.1345
24409SOL    HW174668   7.097   4.189   9.309  1.0043 -0.2120  0.3365
24409SOL    HW274669   7.157   4.086   9.216 -2.4129 -0.5693 -1.6087
24410SOL     OW74670   5.470   5.377  12.249 -0.7578 -0.3915  0.0478
24410SOL    HW174671   5.520   5.439  12.196 -1.1306 -0.6788 -0.6514
24410SOL    HW274672   5.439   5.429  12.323 -1.7605  0.4887 -0.9445
24411SOL     OW74673   1.275   1.525  11.043  0.3316  0.3613  0.0815
24411SOL    HW174674   1.361   1.488  11.025  0.9508  0.7758  1.9269
24411SOL    HW274675   1.279   1.550  11.135 -1.3478  1.5420 -0.1197
24412SOL     OW74676   6.698   3.439   9.959  0.5598  0.7437  0.1415
24412SOL    HW174677   6.780   3.396   9.932  0.8675  1.9837 -1.0466
24412SOL    HW274678   6.630   3.392   9.910  0.6116  0.0727  0.7000
24413SOL     OW74679   7.142   7.727   1.066 -0.0234 -0.4124 -0.1593
24413SOL    HW174680   7.203   7.772   1.125 -0.4271 -0.4891  0.3222
24413SOL    HW274681   7.179   7.639   1.055 -0.1173 -0.5021  0.2387
24414SOL     OW74682   3.116   3.968   1.015 -0.2826 -0.0188  0.7819
24414SOL    HW174683   3.108   3.966   0.920  0.8947 -0.3494  0.6872
24414SOL    HW274684   3.127   4.061   1.036 -0.1455  0.0130  0.5645
24415SOL     OW74685   2.629   1.021   6.177  0.1273  0.0966 -0.3990
24415SOL    HW174686   2.557   1.084   6.187 -0.0679  0.2866 -2.4547
24415SOL    HW274687   2.586   0.940   6.151  0.5267 -0.3580  0.3376
24416SOL     OW74688   7.218   5.424   0.937 -0.4145  0.0543 -0.1876
24416SOL    HW174689   7.198   5.517   0.951  0.8828  0.0431  2.6997
24416SOL    HW274690   7.308   5.424   0.906  0.3771 -0.1864  1.9022
24417SOL     OW74691   7.043   1.967   9.777  0.3997  0.1560 -0.5178
24417SOL    HW174692   6.990   1.978   9.698 -2.8400  1.3885  1.6009
24417SOL    HW274693   7.129   2.001   9.753 -0.5674  0.8718 -3.3747
24418SOL     OW74694   0.095   3.468   9.313 -0.2760  0.1829 -0.1062
24418SOL    HW174695   0.043   3.390   9.290  0.5135  0.2351 -2.3614
24418SOL    HW274696   0.088   3.474   9.408 -0.5442 -2.5399  0.1513
24419SOL     OW74697   6.904   3.311   8.251 -0.3021  0.4188 -0.3372
24419SOL    HW174698   6.994   3.334   8.228 -0.1653 -0.1708 -0.4116
24419SOL    HW274699   6.896   3.335   8.344  0.0689  0.0669 -0.2129
24420SOL     OW74700   5.626   6.830  11.536 -0.0366  0.4520  0.3472
24420SOL    HW174701   5.666   6.759  11.586 -0.7429  1.2047  2.0431
24420SOL    HW274702   5.538   6.837  11.571 -0.4765  1.1914 -0.8518
24421SOL     OW74703   1.808   3.925   4.507  0.6934  0.3513 -0.0448
24421SOL    HW174704   1.855   3.985   4.450  1.4248  0.7512  0.9515
24421SOL    HW274705   1.819   3.961   4.595 -0.2213 -0.3630  0.3891
24422SOL     OW74706   7.400   3.143   8.866  0.0518 -0.1887  0.2937
24422SOL    HW174707   7.392   3.151   8.771  0.6811 -0.6798  0.1964
24422SOL    HW274708   7.480   3.093   8.879 -1.3104 -2.2873  1.0183
24423SOL     OW74709   5.931   3.614  11.820  0.3567  0.1017  0.6886
24423SOL    HW174710   5.944   3.647  11.731  1.5977 -2.5026 -0.1995
24423SOL    HW274711   6.016   3.627  11.862  0.0992  0.2897  1.1633
24424SOL     OW74712   0.414   3.994   7.799  0.0187 -0.5549  0.1617
24424SOL    HW174713   0.362   3.997   7.719 -2.1979  1.1538  1.5655
24424SOL    HW274714   0.453   4.081   7.806  1.9279 -1.3474 -0.0857
24425SOL     OW74715   0.080   6.407   4.354 -0.0099 -0.1216  0.7093
24425SOL    HW174716   0.036   6.492   4.364  0.6594  0.5141 -1.2287
24425SOL    HW274717   0.171   6.425   4.380  0.6675  0.4016 -1.7504
24426SOL     OW74718   6.202   7.899  11.660  0.3501  0.0353  0.2102
24426SOL    HW174719   6.265   7.857  11.602 -0.0830 -0.4417  0.0680
24426SOL    HW274720   6.123   7.845  11.652 -0.0238  0.5265  0.5022
24427SOL     OW74721   6.251   5.063   0.744 -0.4630  0.2873  0.0763
24427SOL    HW174722   6.299   5.067   0.661  0.4961  0.0149  0.5901
24427SOL    HW274723   6.161   5.043   0.720  0.2841 -2.5245 -0.8126
24428SOL     OW74724   2.537   0.871   3.590  0.5414  0.1031 -0.6227
24428SOL    HW174725   2.463   0.811   3.601  1.3437 -0.8738 -0.4194
24428SOL    HW274726   2.498   0.958   3.598 -0.4043 -0.4086  0.7438
24429SOL     OW74727   5.959   7.535   1.593  0.2210 -0.3711  0.3839
24429SOL    HW174728   6.039   7.588   1.596  0.2645 -0.3184 -1.0773
24429SOL    HW274729   5.990   7.444   1.591  0.2506 -0.3554 -0.0052
24430SOL     OW74730   7.409   1.072  11.567  0.1009  0.7075 -0.2257
24430SOL    HW174731   7.342   1.131  11.601  0.7923  0.4712  1.6776
24430SOL    HW274732   7.367   0.985  11.569  0.1572  0.6850  0.1305
24431SOL     OW74733   7.701   2.714   7.465  0.0504  0.0191  0.3542
24431SOL    HW174734   7.666   2.625   7.472 -0.5196  0.2685  0.7528
24431SOL    HW274735   7.625   2.771   7.480  0.4672  0.5716  0.4039
24432SOL     OW74736   0.481   7.155   2.623  0.4292  0.3773  0.4718
24432SOL    HW174737   0.545   7.086   2.642  0.6842  0.8990  1.6000
24432SOL    HW274738   0.405   7.132   2.677  0.3623  0.7613  0.5402
24433SOL     OW74739   2.018   7.902   7.450  0.0583 -0.4804  0.1778
24433SOL    HW174740   2.077   7.941   7.514 -0.2586 -1.2518  0.9664
24433SOL    HW274741   2.073   7.884   7.374  0.4363  0.4653  0.2042
24434SOL     OW74742   3.694   6.641   8.888  0.1030 -0.5029 -0.3126
24434SOL    HW174743   3.640   6.690   8.950 -1.7399  1.1987 -3.0184
24434SOL    HW274744   3.763   6.702   8.862  0.4336 -0.9320 -0.4470
24435SOL     OW74745   0.222   3.804   4.539 -0.3291  0.5060  0.4514
24435SOL    HW174746   0.199   3.864   4.610 -0.5005  0.7014  0.2300
24435SOL    HW274747   0.207   3.854   4.459 -2.5764 -0.5234  0.1671
24436SOL     OW74748   1.074   3.243   4.813 -0.1589  0.5002  0.5741
24436SOL    HW174749   1.129   3.277   4.742 -0.1121  0.5274  0.6239
24436SOL    HW274750   0.987   3.235   4.774  0.3170 -1.6242 -0.1933
24437SOL     OW74751   6.022   1.629   2.624 -0.1873  0.2418  0.5473
24437SOL    HW174752   5.965   1.647   2.549 -0.2800 -0.0602  0.5443
24437SOL    HW274753   6.054   1.715   2.651 -0.9950  0.4655  0.8238
24438SOL     OW74754   7.611   5.734  11.965  0.2155 -0.3568 -0.3558
24438SOL    HW174755   7.702   5.738  11.935  0.5139  1.5139  0.6317
24438SOL    HW274756   7.563   5.791  11.905 -0.3793 -1.4909 -0.9947
24439SOL     OW74757   7.336   6.492   2.630 -0.3353  0.4876  0.2749
24439SOL    HW174758   7.375   6.500   2.543 -0.3627 -0.3965  0.1677
24439SOL    HW274759   7.301   6.579   2.649  0.5481  0.9578 -0.1720
24440SOL     OW74760   2.222   7.917  10.628  0.2515 -0.0215  0.0852
24440SOL    HW174761   2.195   7.837  10.584 -0.9887  0.4245 -0.0151
24440SOL    HW274762   2.142   7.950  10.669  0.4162  1.8337 -0.9408
24441SOL     OW74763   0.314   2.122   5.155 -0.4828  0.1285  0.5195
24441SOL    HW174764   0.407   2.142   5.167 -0.0401 -1.0357 -0.6286
24441SOL    HW274765   0.269   2.174   5.221  0.7477  2.7777 -0.5888
24442SOL     OW74766   4.807   4.618   8.462 -0.4164  0.0041 -0.0220
24442SOL    HW174767   4.756   4.537   8.451 -0.8543  0.0866  1.3310
24442SOL    HW274768   4.744   4.688   8.446 -0.8188  0.1097  1.8519
24443SOL     OW74769   2.574   3.670   7.840  0.3655 -0.0268  0.2752
24443SOL    HW174770   2.623   3.735   7.790  0.1409 -1.0886 -1.4392
24443SOL    HW274771   2.641   3.607   7.868  0.1468 -1.3425 -1.8531
24444SOL     OW74772   7.950   3.532   0.496 -0.0669 -0.2681 -0.4688
24444SOL    HW174773   7.905   3.556   0.577  1.1250 -0.4095  0.2516
24444SOL    HW274774   7.885   3.480   0.447 -0.4595 -1.0627  0.8521
24445SOL     OW74775   4.282   5.622   8.321 -0.1296 -0.8124  0.6399
24445SOL    HW174776   4.325   5.698   8.360 -0.7483 -0.3926  0.5309
24445SOL    HW274777   4.340   5.549   8.341  1.4495 -0.0425 -0.8922
24446SOL     OW74778   5.389   2.237   0.490  0.1793  0.2568  0.6588
24446SOL    HW174779   5.358   2.264   0.404  1.4373  0.5650  0.2849
24446SOL    HW274780   5.394   2.141   0.485 -0.5344  0.2106  0.6795
24447SOL     OW74781   3.463   2.143   5.137  0.2983  0.4700 -0.0218
24447SOL    HW174782   3.494   2.124   5.049 -0.0767 -0.4334  0.0376
24447SOL    HW274783   3.407   2.220   5.126 -1.2752 -0.7367 -0.8910
24448SOL     OW74784   5.034   4.484  10.766  0.5333 -0.3624  0.4868
24448SOL    HW174785   4.960   4.433  10.798  0.7294 -0.1308  1.3318
24448SOL    HW274786   5.008   4.575  10.781  0.0448 -0.1649 -1.3055
24449SOL     OW74787   6.948   7.847   2.530 -0.3655 -0.3294 -0.2452
24449SOL    HW174788   7.027   7.795   2.516 -0.3765 -0.8745  1.4579
24449SOL    HW274789   6.881   7.783   2.554 -0.8872  0.2816 -0.0510
24450SOL     OW74790   5.949   4.355  10.750  0.0085 -0.4101  0.2959
24450SOL    HW174791   6.029   4.407  10.753 -1.2756  1.5963  1.7182
24450SOL    HW274792   5.976   4.266  10.774  1.7750  0.2358  0.7769
24451SOL     OW74793   0.114   2.199   1.211  0.3313  0.2330  0.3371
24451SOL    HW174794   0.086   2.183   1.121  0.4624  1.4233  0.0647
24451SOL    HW274795   0.187   2.139   1.224 -0.0655 -0.3721 -0.1466
24452SOL     OW74796   2.908   1.309   8.966 -0.5344  0.0629 -0.1725
24452SOL    HW174797   2.842   1.373   8.994 -0.0079  0.1720  0.8938
24452SOL    HW274798   2.859   1.228   8.954 -1.0975  0.4989 -0.8505
24453SOL     OW74799   3.069   1.133   5.724  0.6776 -0.0699  0.4619
24453SOL    HW174800   3.075   1.100   5.634  1.2943  1.0238  0.0798
24453SOL    HW274801   3.059   1.055   5.778  0.8687 -0.7833 -0.5124
24454SOL     OW74802   1.653   2.465   0.548  0.1314  0.2837 -0.7105
24454SOL    HW174803   1.607   2.538   0.589  1.3308  0.7703 -0.1715
24454SOL    HW274804   1.588   2.423   0.493 -0.9289  0.9701 -0.0097
24455SOL     OW74805   4.737   6.100   9.027 -0.0637 -0.1679 -0.7090
24455SOL    HW174806   4.723   6.079   8.934 -0.0450 -2.6570 -0.2137
24455SOL    HW274807   4.805   6.040   9.056  0.8479  1.4429  0.6473
24456SOL     OW74808   4.910   7.757   6.695  0.3836  0.2790 -0.3024
24456SOL    HW174809   4.889   7.744   6.602  1.3955 -0.8069 -0.3968
24456SOL    HW274810   4.858   7.690   6.740  0.3590  0.4083 -0.1396
24457SOL     OW74811   6.962   3.529   5.104  0.6279  0.4502  0.4854
24457SOL    HW174812   6.874   3.556   5.131  1.1106 -0.9241  3.8686
24457SOL    HW274813   6.950   3.440   5.070  0.7519  0.0561  1.4507
24458SOL     OW74814   2.727   0.849   4.415 -0.2034  0.3896 -0.6372
24458SOL    HW174815   2.785   0.917   4.382  1.5707 -1.1082 -0.8311
24458SOL    HW274816   2.675   0.823   4.339 -0.8521  1.4552 -0.5735
24459SOL     OW74817   0.339   2.677  11.977  0.6440 -0.0184  0.0564
24459SOL    HW174818   0.265   2.697  11.920 -1.4160 -2.7935  1.4992
24459SOL    HW274819   0.306   2.691  12.065  2.9587  1.7567  0.7454
24460SOL     OW74820   7.896   4.954   4.535 -0.1303  0.3375  0.2034
24460SOL    HW174821   7.840   4.882   4.566  0.0961 -0.3067 -0.8399
24460SOL    HW274822   7.900   4.943   4.440  0.2346  1.5038  0.0658
24461SOL     OW74823   1.944   4.221   9.848 -0.2111 -0.2896  0.1477
24461SOL    HW174824   2.027   4.200   9.805  1.1637 -1.1590  2.9550
24461SOL    HW274825   1.917   4.140   9.891 -2.4584  0.0295 -0.5162
24462SOL     OW74826   1.794   3.322   3.718  0.2350 -0.1168  0.3787
24462SOL    HW174827   1.825   3.280   3.798  0.7462 -2.9655 -1.1934
24462SOL    HW274828   1.716   3.272   3.693 -1.0446  1.9232  0.0501
24463SOL     OW74829   2.390   6.806   6.042  0.1496 -0.3619 -0.1432
24463SOL    HW174830   2.303   6.773   6.064  0.5209 -0.3695  1.4351
24463SOL    HW274831   2.399   6.885   6.094  0.6306  0.3255 -1.2410
24464SOL     OW74832   7.547   6.851   7.298 -0.1099 -0.8101  0.3442
24464SOL    HW174833   7.533   6.806   7.381  0.7888  0.2045  1.0786
24464SOL    HW274834   7.514   6.940   7.313 -0.4635 -0.7739 -0.5733
24465SOL     OW74835   5.997   4.885   9.199  0.1331 -0.0555 -0.6102
24465SOL    HW174836   6.057   4.865   9.270 -0.1414  0.5073 -0.2117
24465SOL    HW274837   6.017   4.821   9.131  0.5159 -0.4862 -0.0925
24466SOL     OW74838   7.544   3.755   6.906  0.0197 -0.1887 -0.1109
24466SOL    HW174839   7.473   3.722   6.961 -2.6489 -0.7902 -3.5457
24466SOL    HW274840   7.581   3.676   6.866  3.4028  0.0190  2.1901
24467SOL     OW74841   3.286   4.861   0.144 -0.8427 -0.1750 -0.2320
24467SOL    HW174842   3.210   4.858   0.202  0.8523 -0.7186  2.1671
24467SOL    HW274843   3.336   4.937   0.175  0.5965 -1.0573 -0.3019
24468SOL     OW74844   2.305   6.245  11.275 -0.1690 -0.4819  0.4718
24468SOL    HW174845   2.255   6.317  11.236  0.5217  0.2911  0.9671
24468SOL    HW274846   2.323   6.275  11.364 -0.3256 -1.5149  0.8650
24469SOL     OW74847   4.682   7.411  12.029 -0.0903  0.1670  0.0989
24469SOL    HW174848   4.750   7.353  11.996  0.5054  0.9813 -0.1381
24469SOL    HW274849   4.650   7.368  12.109  0.1739 -0.5912 -0.1996
24470SOL     OW74850   1.570   4.054   5.965  0.0187 -0.4616 -0.1388
24470SOL    HW174851   1.614   4.130   5.927  0.4022 -0.7006 -0.1773
24470SOL    HW274852   1.568   4.072   6.059  0.1334 -0.4166 -0.1446
24471SOL     OW74853   6.760   3.439   4.267  0.1281 -0.0757  0.3797
24471SOL    HW174854   6.755   3.408   4.357  0.7085  1.6672  1.0596
24471SOL    HW274855   6.669   3.451   4.240 -0.0388 -0.0451  0.9534
24472SOL     OW74856   2.685   6.878   7.256  0.5274 -0.0663 -0.0920
24472SOL    HW174857   2.613   6.939   7.239  0.6492  0.2790  0.6119
24472SOL    HW274858   2.649   6.816   7.320  0.5394 -0.4897 -0.4883
24473SOL     OW74859   6.639   3.553   8.404  0.1556  0.1528  0.5220
24473SOL    HW174860   6.706   3.514   8.461  0.7265  0.1653 -0.1249
24473SOL    HW274861   6.621   3.638   8.442  0.2296 -0.0058  0.9167
24474SOL     OW74862   2.278   5.629   3.327 -0.2280  0.4090 -0.0253
24474SOL    HW174863   2.200   5.574   3.329  0.5653 -0.7514  0.5987
24474SOL    HW274864   2.252   5.710   3.370 -2.2263  1.7281 -3.3417
24475SOL     OW74865   0.249   4.795  10.067  0.3959 -0.0685 -0.3600
24475SOL    HW174866   0.167   4.791  10.117  0.5173 -0.8825 -0.2083
24475SOL    HW274867   0.283   4.706  10.070  2.2747  0.6236  1.2067
24476SOL     OW74868   3.696   1.300  10.668 -0.2394  0.3239  0.1736
24476SOL    HW174869   3.620   1.312  10.610 -0.0540  2.2187  0.2680
24476SOL    HW274870   3.700   1.381  10.719  1.4798 -0.0009  0.6090
24477SOL     OW74871   2.649   6.008   3.031 -0.0423  0.4179 -0.3991
24477SOL    HW174872   2.643   6.089   2.979  2.1030  0.6437 -0.3723
24477SOL    HW274873   2.741   6.001   3.054  0.1863 -2.9312 -1.7681
24478SOL     OW74874   6.224   2.914   9.021  0.2369  0.3891  0.2882
24478SOL    HW174875   6.234   2.917   9.116  2.1851  1.6864  0.1012
24478SOL    HW274876   6.256   2.827   8.996 -2.0238 -0.6994  0.9133
24479SOL     OW74877   4.836   0.817   4.009  0.0121  0.4216 -0.4716
24479SOL    HW174878   4.772   0.819   3.938 -1.0117  2.4274  0.4494
24479SOL    HW274879   4.897   0.747   3.983 -2.0886 -1.0780 -1.7362
24480SOL     OW74880   6.371   2.679   7.302 -0.3065  0.6957  0.5681
24480SOL    HW174881   6.428   2.755   7.316  0.1668  0.2531  1.0739
24480SOL    HW274882   6.318   2.674   7.381  0.5011 -0.2070  1.0705
24481SOL     OW74883   5.259   4.348   9.600  0.3694 -0.4180 -0.6194
24481SOL    HW174884   5.320   4.353   9.527 -0.2587  0.3749 -1.1096
24481SOL    HW274885   5.272   4.261   9.637  1.8366 -0.2328 -0.6638
24482SOL     OW74886   3.006   5.603   6.153 -0.4846 -0.2713  0.2808
24482SOL    HW174887   2.969   5.534   6.208 -1.1121 -0.1213  0.0453
24482SOL    HW274888   3.100   5.601   6.174 -0.8347  0.4893  2.1598
24483SOL     OW74889   7.213   7.278   4.026  0.9051  0.1086 -0.8318
24483SOL    HW174890   7.305   7.302   4.036  0.7141  0.5262  0.0533
24483SOL    HW274891   7.198   7.277   3.932  2.0565 -0.9379 -1.0284
24484SOL     OW74892   6.643   6.141  10.674  0.0773 -0.3329 -0.2496
24484SOL    HW174893   6.580   6.207  10.705 -0.3530 -0.4430 -0.8752
24484SOL    HW274894   6.727   6.171  10.708  0.1788  1.5158 -1.9630
24485SOL     OW74895   0.437   7.632   4.251 -0.0106  0.3162 -0.3476
24485SOL    HW174896   0.462   7.605   4.162  1.6003  1.9223 -0.4396
24485SOL    HW274897   0.347   7.664   4.241  0.3177  0.9550 -1.5437
24486SOL     OW74898   5.719   4.552   3.788 -0.2382 -0.1796 -0.3404
24486SOL    HW174899   5.796   4.553   3.731  1.1426 -0.4741  1.4290
24486SOL    HW274900   5.735   4.480   3.849 -0.6934  1.2735  1.6198
24487SOL     OW74901   1.272   5.223   1.551  0.0850  0.2266  0.6138
24487SOL    HW174902   1.177   5.232   1.554  0.0817  0.6504 -0.3633
24487SOL    HW274903   1.290   5.141   1.596 -1.0083 -1.3200 -1.5947
24488SOL     OW74904   2.348   7.818   8.029 -0.6576  0.6437  0.4027
24488SOL    HW174905   2.423   7.865   8.066 -0.0153 -0.2375  0.2370
24488SOL    HW274906   2.342   7.738   8.081 -1.2626  0.5362  0.1758
24489SOL     OW74907   2.726   3.503   6.362 -0.6606 -0.1699 -0.5108
24489SOL    HW174908   2.722   3.585   6.411 -0.3005 -0.3108 -0.2412
24489SOL    HW274909   2.647   3.504   6.307 -1.7927 -0.5951  1.0315
24490SOL     OW74910   3.038   7.579  10.348  0.0700  0.4574 -0.3848
24490SOL    HW174911   2.990   7.573  10.266  1.5913  0.2487 -1.2959
24490SOL    HW274912   3.043   7.489  10.380  2.6988 -0.1061 -2.0518
24491SOL     OW74913   7.466   3.812   4.016 -0.0036  0.0674 -0.2130
24491SOL    HW174914   7.438   3.830   3.926 -2.7531  0.1110  0.5705
24491SOL    HW274915   7.478   3.717   4.018 -0.1961  0.0335 -0.5499
24492SOL     OW74916   2.514   0.053  10.510 -0.2172 -0.1486 -0.1562
24492SOL    HW174917   2.468   0.121  10.460  0.2738  2.0540  2.1587
24492SOL    HW274918   2.457  -0.024  10.504 -2.2843  1.3339 -0.5398
24493SOL     OW74919   7.751   7.336   4.708 -0.0477  0.2372 -0.2207
24493SOL    HW174920   7.726   7.344   4.800  1.1611  1.2107  0.0578
24493SOL    HW274921   7.841   7.369   4.705  1.1390 -2.7628 -1.2045
24494SOL     OW74922   6.261   0.566   3.303 -0.1515  0.1332 -0.2501
24494SOL    HW174923   6.292   0.504   3.237 -1.2819 -0.5459 -0.1806
24494SOL    HW274924   6.301   0.537   3.385  1.7718  1.3595 -0.6913
24495SOL     OW74925   1.727   0.369   7.289 -0.2917 -0.1949 -0.2762
24495SOL    HW174926   1.643   0.336   7.258 -0.8020  1.5503 -0.8189
24495SOL    HW274927   1.756   0.430   7.221  2.2744 -2.0132 -0.9729
24496SOL     OW74928   4.498   7.967   7.695  0.5386 -0.6329  0.0007
24496SOL    HW174929   4.434   7.925   7.753 -0.5961  0.5141 -0.3874
24496SOL    HW274930   4.579   7.966   7.746 -0.3133 -0.0712  1.4430
24497SOL     OW74931   6.320   5.816   1.039 -0.1540 -0.1960 -0.4821
24497SOL    HW174932   6.257   5.749   1.014 -0.3086 -0.4903  0.6672
24497SOL    HW274933   6.400   5.767   1.060  0.5642  0.1845 -2.1264
24498SOL     OW74934   0.962   2.154   3.533 -0.0502  0.0659  0.0208
24498SOL    HW174935   1.002   2.241   3.535  0.4480 -0.1562 -0.1347
24498SOL    HW274936   0.929   2.141   3.622 -1.2254  0.9077 -0.2558
24499SOL     OW74937   4.779   0.544  10.282 -0.6845 -0.1336  0.2127
24499SOL    HW174938   4.712   0.517  10.345 -0.3838  0.6128  0.8680
24499SOL    HW274939   4.733   0.550  10.198 -1.0646 -1.2460  0.3293
24500SOL     OW74940   6.326   0.547   7.256 -0.6087  0.2024  0.2156
24500SOL    HW174941   6.281   0.468   7.284 -0.0943 -0.1725  0.0060
24500SOL    HW274942   6.284   0.572   7.174 -1.0086  0.3530  0.4639
24501SOL     OW74943   4.497   2.766   6.566 -0.0973  0.2033 -0.4014
24501SOL    HW174944   4.559   2.822   6.519 -0.4650  0.3093 -0.7617
24501SOL    HW274945   4.515   2.784   6.659  1.6807 -1.1605 -0.4512
24502SOL     OW74946   4.289   2.237   5.623 -0.8048 -0.3382 -0.0516
24502SOL    HW174947   4.317   2.147   5.609 -2.2990 -0.7841 -0.3150
24502SOL    HW274948   4.318   2.258   5.712  1.3321 -0.3537 -0.6938
24503SOL     OW74949   0.266   2.603   8.390  0.0885  0.1372  0.4544
24503SOL    HW174950   0.206   2.667   8.430  0.6661  0.1195  1.3913
24503SOL    HW274951   0.214   2.523   8.383 -0.5202  0.5856 -0.3580
24504SOL     OW74952   2.529   6.397   7.490 -0.0015  0.4120  0.2792
24504SOL    HW174953   2.475   6.318   7.495  0.0103  0.3928  0.1257
24504SOL    HW274954   2.606   6.377   7.542  0.8340 -0.3475 -1.1640
24505SOL     OW74955   4.714   7.764   3.254 -0.2354  0.9656  0.2419
24505SOL    HW174956   4.681   7.781   3.343  0.8026  0.6915  0.6922
24505SOL    HW274957   4.660   7.820   3.198 -0.3337  1.8008  1.1382
24506SOL     OW74958   0.190   2.220   3.429 -0.9760 -0.3237 -0.2549
24506SOL    HW174959   0.212   2.300   3.380 -0.7570 -1.0371 -1.3658
24506SOL    HW274960   0.274   2.175   3.439 -1.2805 -1.0291 -0.7816
24507SOL     OW74961   5.251   5.873   2.036 -0.3803  0.2770 -0.5660
24507SOL    HW174962   5.298   5.882   1.953 -1.7588  1.7213 -1.2355
24507SOL    HW274963   5.165   5.911   2.019  0.1309  3.0627  2.1896
24508SOL     OW74964   2.644   4.804   7.969  0.4348  0.0611 -0.0914
24508SOL    HW174965   2.702   4.781   8.041 -1.6871  1.5746  2.3094
24508SOL    HW274966   2.561   4.762   7.991 -0.2490  0.5026 -1.7101
24509SOL     OW74967   1.315   1.696  11.422  0.0183 -0.0908  0.2109
24509SOL    HW174968   1.388   1.747  11.454  0.8622 -0.2311 -1.3651
24509SOL    HW274969   1.285   1.743  11.344 -1.4894 -0.1108  0.7473
24510SOL     OW74970   7.114   0.010  10.551 -0.2402 -0.8204 -0.0977
24510SOL    HW174971   7.194  -0.042  10.545 -1.1691 -2.1345 -2.2573
24510SOL    HW274972   7.048  -0.050  10.585 -0.5530 -0.0192  0.7633
24511SOL     OW74973   0.025   7.562   0.649 -0.3156 -0.0893  0.2445
24511SOL    HW174974   0.029   7.640   0.705 -1.8049  0.0359  0.2174
24511SOL    HW274975   0.010   7.489   0.709  1.6498 -0.4880  0.3309
24512SOL     OW74976   6.262   2.548  10.714  0.2643  0.4706  0.3804
24512SOL    HW174977   6.169   2.531  10.695  0.6281  0.2420 -1.4122
24512SOL    HW274978   6.299   2.574  10.630  2.0301 -0.3717  0.8421
24513SOL     OW74979   4.293   7.874   7.293  0.2572  0.4930  0.0820
24513SOL    HW174980   4.357   7.865   7.363 -1.3672 -0.8317  1.4902
24513SOL    HW274981   4.300   7.965   7.264  1.2625  0.9461  1.6748
24514SOL     OW74982   7.350   6.915   7.662  0.2389 -0.4011 -0.4503
24514SOL    HW174983   7.286   6.907   7.591 -1.2349 -1.8425  0.9299
24514SOL    HW274984   7.339   7.004   7.695  0.5628  0.0976 -1.6620
24515SOL     OW74985   5.564   0.861   0.882 -0.3824  0.6755  0.2482
24515SOL    HW174986   5.481   0.854   0.835 -0.4870  1.4407  0.3132
24515SOL    HW274987   5.589   0.953   0.875  1.4573  0.1293 -1.4674
24516SOL     OW74988   1.640   4.931   5.719 -0.1143 -0.4462  0.0219
24516SOL    HW174989   1.674   5.002   5.773 -1.0157  1.1320 -1.3453
24516SOL    HW274990   1.587   4.878   5.779  0.3021  0.2395  1.0203
24517SOL     OW74991   6.582   7.056   9.916 -0.0314 -0.3234 -0.5615
24517SOL    HW174992   6.542   6.972   9.937  1.2542 -0.8679 -0.1784
24517SOL    HW274993   6.562   7.111   9.991 -0.7692 -0.3122 -0.7561
24518SOL     OW74994   1.123   3.122  11.571  0.5663  0.3276  0.4020
24518SOL    HW174995   1.180   3.097  11.497  2.5079  2.3381  1.1054
24518SOL    HW274996   1.090   3.208  11.547  0.0495  0.3683  1.2433
24519SOL     OW74997   2.670   6.693   7.840 -0.1363 -0.1794 -0.0583
24519SOL    HW174998   2.727   6.633   7.887 -0.4961  1.1390  2.1879
24519SOL    HW274999   2.715   6.709   7.757  0.4057 -2.7489 -0.3575
24520SOL     OW75000   5.641   0.842  10.534  0.0323 -0.4089 -0.1978
24520SOL    HW175001   5.619   0.753  10.563 -1.7881 -0.2545 -0.9540
24520SOL    HW275002   5.574   0.897  10.575  1.1214  0.6372  0.2387
24521SOL     OW75003   4.601   0.577   7.418  0.0008  0.6026 -0.1095
24521SOL    HW175004   4.546   0.652   7.440 -0.6110 -0.1270  0.9405
24521SOL    HW275005   4.597   0.521   7.496  1.0885 -0.1392 -0.5697
24522SOL     OW75006   1.880   7.036   9.624 -0.0594 -0.3187  0.4981
24522SOL    HW175007   1.958   7.084   9.597 -0.9874 -0.1159 -2.0843
24522SOL    HW275008   1.911   6.977   9.694  2.4569 -0.4289 -0.6038
24523SOL     OW75009   1.096   0.147  10.632  0.1396 -0.7146  0.1884
24523SOL    HW175010   1.156   0.080  10.602 -0.5520 -1.0099 -0.5899
24523SOL    HW275011   1.081   0.202  10.555 -3.2356 -2.6460 -0.7705
24524SOL     OW75012   7.271   6.326   0.766  0.2570  0.1573  0.3410
24524SOL    HW175013   7.185   6.283   0.762 -0.6490  1.8876 -2.4188
24524SOL    HW275014   7.259   6.397   0.829 -0.3110  0.2844  0.0982
24525SOL     OW75015   6.301   6.923   4.028 -0.0562 -0.2142 -0.1581
24525SOL    HW175016   6.392   6.935   4.055 -0.6423 -0.0680  1.8988
24525SOL    HW275017   6.304   6.848   3.968  1.2276 -1.2921  1.1692
24526SOL     OW75018   4.528   2.692   4.333  0.1067 -0.0777 -0.7058
24526SOL    HW175019   4.548   2.625   4.398 -0.0794  0.1489 -0.4098
24526SOL    HW275020   4.460   2.745   4.374  0.1592  0.2102 -0.9894
24527SOL     OW75021   2.873   1.871   1.101 -0.2295  0.0044  0.4686
24527SOL    HW175022   2.927   1.804   1.142  1.1349  1.2279  0.7516
24527SOL    HW275023   2.933   1.922   1.047 -1.3829  0.4901 -0.4185
24528SOL     OW75024   2.583   1.609   1.460 -0.4641 -0.2046  0.3376
24528SOL    HW175025   2.575   1.683   1.400 -0.1173  0.9854  1.6851
24528SOL    HW275026   2.650   1.553   1.421  1.3678  1.6417  0.6511
24529SOL     OW75027   3.670   7.281   9.607 -0.2069 -0.1773 -0.1815
24529SOL    HW175028   3.666   7.356   9.547 -1.1810 -0.2827 -0.2605
24529SOL    HW275029   3.579   7.252   9.616  0.2179 -1.7982 -0.7096
24530SOL     OW75030   6.087   4.766   5.597 -0.0808  0.2542 -0.0682
24530SOL    HW175031   6.070   4.745   5.688  0.6270 -1.6082 -0.3369
24530SOL    HW275032   6.054   4.691   5.548  3.3732 -0.8429 -1.0039
24531SOL     OW75033   1.069   7.123   8.720  0.0891 -0.3505  0.2404
24531SOL    HW175034   1.121   7.043   8.732  0.6019 -0.1956 -0.7734
24531SOL    HW275035   1.041   7.147   8.808  2.5587  0.0960  0.9858
24532SOL     OW75036   7.856   6.737   9.867 -0.7604 -0.1900  0.4523
24532SOL    HW175037   7.797   6.811   9.881  3.9637  3.8198  1.7186
24532SOL    HW275038   7.869   6.700   9.954 -0.5120 -0.3144  0.3632
24533SOL     OW75039   4.053   5.716   0.476  0.1257 -0.2678  0.2045
24533SOL    HW175040   4.042   5.803   0.513 -2.1696  1.1280 -3.2662
24533SOL    HW275041   4.141   5.716   0.439  0.5580  0.1414  1.2168
24534SOL     OW75042   1.159   1.969   0.902 -0.1558 -0.3414 -0.4572
24534SOL    HW175043   1.165   1.907   0.830 -0.3999 -0.0667 -0.7205
24534SOL    HW275044   1.213   2.043   0.875  0.0777 -0.4068 -0.1773
24535SOL     OW75045   2.530   7.239  10.012  0.0607  0.1208  0.2357
24535SOL    HW175046   2.501   7.238   9.921 -0.8467  0.2402  0.5185
24535SOL    HW275047   2.465   7.187  10.059 -0.5734  1.6326  1.1137
24536SOL     OW75048   6.094   5.011   7.510  0.3163  0.0275  0.5351
24536SOL    HW175049   6.102   5.102   7.536 -0.6246  0.4678 -0.6451
24536SOL    HW275050   6.059   4.966   7.587  2.6564  0.2402  1.8094
24537SOL     OW75051   7.390   6.946   0.911  0.5057 -0.4604  0.6181
24537SOL    HW175052   7.393   6.880   0.842  1.2854 -1.5168  1.6126
24537SOL    HW275053   7.473   6.936   0.957  0.1961  0.5195  1.4247
24538SOL     OW75054   2.876   1.520   0.465 -0.1114 -0.7680 -0.2961
24538SOL    HW175055   2.896   1.436   0.505 -0.8071 -1.6194 -1.6702
24538SOL    HW275056   2.812   1.500   0.397  0.0615  0.8072 -0.9691
24539SOL     OW75057   2.860   1.049   7.388  0.0715  0.0537 -0.5536
24539SOL    HW175058   2.844   0.956   7.373  1.2887 -0.0368 -1.3962
24539SOL    HW275059   2.865   1.088   7.300  0.4630  0.7549 -0.2333
24540SOL     OW75060   4.669   7.168   8.660 -0.1479  0.2864  0.4869
24540SOL    HW175061   4.610   7.102   8.623  0.4453  0.9383 -1.7386
24540SOL    HW275062   4.615   7.247   8.666  0.4034  0.8501 -1.4343
24541SOL     OW75063   6.579   3.835   8.554  0.1530  0.1845 -0.4793
24541SOL    HW175064   6.501   3.885   8.532 -0.3982  0.4264  1.8062
24541SOL    HW275065   6.648   3.901   8.566 -0.3292  0.3707  1.5380
24542SOL     OW75066   0.465   1.692   5.119 -0.2492  0.1686 -0.3227
24542SOL    HW175067   0.526   1.619   5.128 -0.8525 -0.1142  2.1263
24542SOL    HW275068   0.505   1.762   5.171 -0.9428  0.7184 -0.5256
24543SOL     OW75069   7.351   0.869   3.335 -0.5077  0.1595 -0.0425
24543SOL    HW175070   7.422   0.813   3.365 -0.0127  0.7011 -0.2023
24543SOL    HW275071   7.274   0.839   3.384  0.4898  1.8232  2.7609
24544SOL     OW75072   6.856   0.667   3.259 -0.3596  0.1504  0.6091
24544SOL    HW175073   6.886   0.758   3.261  0.5304 -0.1196  0.2878
24544SOL    HW275074   6.811   0.654   3.343 -0.8870  1.0075  0.4639
24545SOL     OW75075   3.802   0.767  10.818 -0.0123  0.2841  0.0643
24545SOL    HW175076   3.788   0.721  10.901 -1.1630  2.5400  1.1852
24545SOL    HW275077   3.801   0.860  10.841 -1.5557  1.0205 -2.6464
24546SOL     OW75078   6.838   7.109   4.547 -0.9410 -0.5642  0.4393
24546SOL    HW175079   6.890   7.038   4.510 -0.5638 -0.5415  0.9142
24546SOL    HW275080   6.896   7.150   4.612 -1.9451 -1.2538  1.8066
24547SOL     OW75081   2.581   1.072  11.761  0.1191 -0.3603  0.3599
24547SOL    HW175082   2.515   1.025  11.812 -0.5435  0.4475  0.2837
24547SOL    HW275083   2.613   1.139  11.822  1.8953 -1.6010  0.8602
24548SOL     OW75084   4.287   1.426   1.183 -0.1667  0.2781 -0.0201
24548SOL    HW175085   4.258   1.354   1.128  0.3684  0.4998 -0.5989
24548SOL    HW275086   4.368   1.395   1.223  0.4664  0.8295 -0.8544
24549SOL     OW75087   4.204   0.930   5.982  0.0176  0.3443 -0.0645
24549SOL    HW175088   4.154   0.863   6.029 -1.0241  0.5240 -0.8918
24549SOL    HW275089   4.153   0.947   5.903  0.2494  2.1460  0.1469
24550SOL     OW75090   6.311   7.255   4.719 -0.1199  0.4166 -0.1848
24550SOL    HW175091   6.351   7.287   4.800  1.5291  0.8654 -1.1274
24550SOL    HW275092   6.347   7.167   4.707 -1.6694 -0.3379  0.4030
24551SOL     OW75093   0.727   0.124   4.734  0.2892 -0.0369  0.3077
24551SOL    HW175094   0.645   0.171   4.716  1.4015  1.1080 -2.2068
24551SOL    HW275095   0.700   0.033   4.747 -1.5955  0.6883  2.1493
24552SOL     OW75096   7.190   6.900   7.059 -0.1994 -1.1537  0.3213
24552SOL    HW175097   7.238   6.882   6.979  1.1353 -2.5650  1.3675
24552SOL    HW275098   7.228   6.982   7.091 -0.6217 -0.6742 -0.4052
24553SOL     OW75099   7.775   1.132   3.170 -0.0082 -0.4506 -0.5548
24553SOL    HW175100   7.792   1.038   3.165  1.2240 -0.2613 -0.4415
24553SOL    HW275101   7.738   1.145   3.257 -0.5994 -0.8899 -0.7423
24554SOL     OW75102   0.643   0.690   6.986  0.2136 -0.1149 -0.1608
24554SOL    HW175103   0.679   0.714   7.071 -1.7085  1.4193  0.2907
24554SOL    HW275104   0.672   0.759   6.926 -1.2409  0.7431  0.0569
24555SOL     OW75105   6.088   3.458  10.624 -0.1386 -0.2886 -0.7303
24555SOL    HW175106   6.181   3.481  10.619  0.0927 -1.3057 -1.4091
24555SOL    HW275107   6.046   3.535  10.662  0.9912  0.1556 -0.3540
24556SOL     OW75108   3.475   7.261   7.316 -0.7976 -0.2245 -0.6423
24556SOL    HW175109   3.517   7.216   7.243 -0.0250  1.0408 -1.0070
24556SOL    HW275110   3.547   7.291   7.371 -1.1445  1.9499 -1.2557
24557SOL     OW75111   7.387   1.071   7.851  0.9138 -0.0565 -0.0229
24557SOL    HW175112   7.452   1.003   7.834  1.1337 -0.0515  0.7450
24557SOL    HW275113   7.398   1.091   7.944  0.9833  1.1584 -0.2759
24558SOL     OW75114   3.542   0.302   1.922  0.1788 -0.0520  0.0630
24558SOL    HW175115   3.489   0.357   1.979 -1.5970 -0.6453 -0.9295
24558SOL    HW275116   3.540   0.216   1.963  2.4215  0.4098  1.2749
24559SOL     OW75117   1.207   4.770   8.930 -0.3664 -0.1660 -0.0983
24559SOL    HW175118   1.149   4.785   8.855 -0.7269  0.5026  0.2986
24559SOL    HW275119   1.271   4.707   8.899 -0.8489 -0.3271 -0.7936
24560SOL     OW75120   4.567   4.971   2.181  0.3804 -0.8365 -0.5392
24560SOL    HW175121   4.512   4.973   2.259 -0.5107  0.8187 -1.1520
24560SOL    HW275122   4.629   5.043   2.193 -0.6109  0.3166 -1.8701
24561SOL     OW75123   4.129   0.368  12.370 -0.3050 -0.3551  0.1843
24561SOL    HW175124   4.218   0.337  12.382  0.0236  0.4432 -0.1241
24561SOL    HW275125   4.089   0.303  12.312  0.0032 -0.8416  0.5190
24562SOL     OW75126   2.686   3.213   1.535 -0.0390 -0.4980  0.4913
24562SOL    HW175127   2.741   3.273   1.485 -2.5671  0.5755 -1.2182
24562SOL    HW275128   2.673   3.257   1.619  0.1067  0.1844  0.1655
24563SOL     OW75129   5.429   2.785   0.915 -0.1056 -0.0448 -0.3451
24563SOL    HW175130   5.489   2.762   0.844 -1.0366 -1.8472 -0.6039
24563SOL    HW275131   5.347   2.806   0.870 -0.3548  0.0139  0.1376
24564SOL     OW75132   5.825   0.004   6.998  0.2793  0.6979  0.6228
24564SOL    HW175133   5.775   0.055   6.933 -3.5698 -2.8304  0.4452
24564SOL    HW275134   5.781   0.021   7.081  0.5708 -0.3524  1.0011
24565SOL     OW75135   3.709   5.132   1.332  0.1186  0.0555  0.4399
24565SOL    HW175136   3.692   5.227   1.330  2.9663  0.7745  2.8391
24565SOL    HW275137   3.785   5.120   1.276 -0.1786 -0.8290  0.2094
24566SOL     OW75138   7.968   1.463  11.886 -0.3918  0.0324 -0.5574
24566SOL    HW175139   8.014   1.546  11.878 -0.3828  0.0517 -0.3314
24566SOL    HW275140   8.013   1.418  11.958  1.7940 -1.5768 -2.7366
24567SOL     OW75141   5.294   3.347  11.952 -0.3862 -0.0245  0.2839
24567SOL    HW175142   5.321   3.324  12.041 -3.3748  1.0743  1.6207
24567SOL    HW275143   5.345   3.425  11.931  2.4240 -1.8460 -0.2336
24568SOL     OW75144   4.816   5.585   8.806  0.2639  0.4290  0.1587
24568SOL    HW175145   4.789   5.586   8.715 -0.3465  0.2820  0.3316
24568SOL    HW275146   4.816   5.492   8.830  0.3155  0.4742  0.3340
24569SOL     OW75147   5.072   2.977  11.211 -0.1071 -0.4641 -0.4571
24569SOL    HW175148   5.144   3.038  11.193 -1.5256  1.5584  0.2296
24569SOL    HW275149   5.042   2.949  11.125  0.7285 -0.3678 -0.7884
24570SOL     OW75150   2.903   7.014   9.908 -0.3527 -0.3571 -0.1989
24570SOL    HW175151   2.862   7.100   9.902 -0.1393  0.0052  2.4241
24570SOL    HW275152   2.983   7.029   9.959 -0.1239 -2.0540  0.0038
24571SOL     OW75153   6.357   0.250   8.790 -0.0791  0.5111  0.0072
24571SOL    HW175154   6.339   0.327   8.845 -0.0142 -0.2361  1.1048
24571SOL    HW275155   6.297   0.183   8.824  0.4348 -0.1594 -0.4054
24572SOL     OW75156   7.439   7.868   0.753  0.2160 -0.3594  0.0647
24572SOL    HW175157   7.521   7.820   0.746  0.9867  0.7778  0.7751
24572SOL    HW275158   7.458   7.953   0.711 -0.3938  0.1290  0.7564
24573SOL     OW75159   2.431   4.619   9.304 -0.1162  0.2955 -0.0571
24573SOL    HW175160   2.518   4.649   9.276  0.2769  1.0494  1.7864
24573SOL    HW275161   2.371   4.655   9.239  0.7594  1.7334 -0.1208
24574SOL     OW75162   6.971   5.450  11.550  0.1218  0.2858  0.5272
24574SOL    HW175163   6.917   5.427  11.474 -0.8018 -0.2489  1.3252
24574SOL    HW275164   6.975   5.546  11.547 -1.4565  0.3850  0.8252
24575SOL     OW75165   5.669   2.923  10.233  0.3225  0.3746 -0.3827
24575SOL    HW175166   5.641   2.976  10.158  0.3232  0.1259 -0.5613
24575SOL    HW275167   5.735   2.977  10.277 -0.7414  1.1659  0.3041
24576SOL     OW75168   6.359   0.596   8.705  0.3334  0.1622 -0.6080
24576SOL    HW175169   6.400   0.581   8.790  1.0421 -0.0325 -0.9775
24576SOL    HW275170   6.397   0.678   8.674 -0.2661  0.4746 -0.5433
24577SOL     OW75171   1.709   0.943   6.942 -0.2204  0.4550  0.0833
24577SOL    HW175172   1.727   0.914   6.853 -1.2446 -0.9432  0.2829
24577SOL    HW275173   1.639   1.008   6.933 -1.3153 -0.6949 -0.0823
24578SOL     OW75174   5.873   7.702  11.330 -0.5729 -0.0393  0.0506
24578SOL    HW175175   5.929   7.773  11.301  0.1445 -0.3377  0.6620
24578SOL    HW275176   5.806   7.744  11.383  0.8730  0.0486  1.9218
24579SOL     OW75177   7.410   4.893   6.406 -0.3983 -0.7410 -0.1603
24579SOL    HW175178   7.470   4.876   6.478 -1.3828 -0.5474  0.7279
24579SOL    HW275179   7.424   4.820   6.346 -0.3397 -1.4916  0.7459
24580SOL     OW75180   0.923   0.034   4.526 -0.0559  0.4293  0.0641
24580SOL    HW175181   0.990   0.101   4.515 -0.1350  0.6202  0.7073
24580SOL    HW275182   0.893   0.044   4.616 -0.7855  0.1904 -0.1432
24581SOL     OW75183   2.407   4.537  10.502  0.1070  0.3219  1.1644
24581SOL    HW175184   2.489   4.488  10.515  0.8360  1.2206  0.1873
24581SOL    HW275185   2.339   4.479  10.534  1.1358 -0.4352  2.0673
24582SOL     OW75186   7.660   4.370   8.600  0.3224 -0.4205  0.4214
24582SOL    HW175187   7.668   4.447   8.655  1.4474 -0.8880  0.9468
24582SOL    HW275188   7.722   4.307   8.637  1.4206 -0.6162 -1.6074
24583SOL     OW75189   5.262   7.373   0.365  0.0016  0.4400 -0.2104
24583SOL    HW175190   5.256   7.279   0.346 -0.2526  0.4237 -0.0561
24583SOL    HW275191   5.280   7.413   0.280 -2.7810  0.5358 -0.8393
24584SOL     OW75192   5.970   4.662  12.426 -0.2134 -0.0583 -0.5675
24584SOL    HW175193   5.997   4.695  12.340 -0.7393 -0.8307 -1.0491
24584SOL    HW275194   5.969   4.567  12.415  0.0280 -0.1852  0.3983
24585SOL     OW75195   1.370   1.715   6.903 -0.3975 -0.3521  0.2478
24585SOL    HW175196   1.286   1.706   6.947 -0.1518 -0.0850  0.7807
24585SOL    HW275197   1.404   1.800   6.931  1.3530 -1.6408  2.3560
24586SOL     OW75198   5.385   6.573   0.790 -0.1318  0.0522  0.1689
24586SOL    HW175199   5.399   6.556   0.697 -0.7943 -1.2142  0.2723
24586SOL    HW275200   5.335   6.498   0.820  1.1563 -0.2079  1.8328
24587SOL     OW75201   4.957   5.969   6.454 -0.0009 -0.7879  0.1953
24587SOL    HW175202   4.865   5.976   6.482 -0.3072  2.7019 -1.1849
24587SOL    HW275203   4.955   5.903   6.384 -1.4405 -0.7962  0.2021
24588SOL     OW75204   1.795   5.643  10.823 -0.6267  0.7439 -0.1864
24588SOL    HW175205   1.852   5.664  10.897  0.2965 -0.2364 -0.5711
24588SOL    HW275206   1.709   5.675  10.848 -0.3133  0.5377  1.2674
24589SOL     OW75207   6.981   2.694   0.501  0.0135  0.6243  0.0782
24589SOL    HW175208   7.014   2.681   0.590 -0.0147 -1.2629 -0.1560
24589SOL    HW275209   7.026   2.628   0.449  1.8666  3.1703 -1.8441
24590SOL     OW75210   2.130   6.917   0.279  0.3808 -0.3737 -0.6526
24590SOL    HW175211   2.214   6.873   0.287  0.1312 -0.6375  0.6473
24590SOL    HW275212   2.069   6.850   0.249  0.7317 -0.0459 -2.1752
24591SOL     OW75213   3.526   0.231   2.520 -0.0978  0.3804 -0.6505
24591SOL    HW175214   3.551   0.205   2.432 -0.7553  0.0746 -0.7558
24591SOL    HW275215   3.557   0.321   2.529 -1.5011  1.0212 -1.8154
24592SOL     OW75216   6.371   3.108  11.136 -0.0186 -0.0912  0.3913
24592SOL    HW175217   6.377   3.135  11.045 -0.9436 -0.0525  0.3339
24592SOL    HW275218   6.346   3.187  11.183 -0.2539 -0.2755  0.5786
24593SOL     OW75219   0.227   5.038   0.724 -0.3866 -0.3461 -0.1795
24593SOL    HW175220   0.209   5.131   0.710 -1.7693 -0.7414 -1.2182
24593SOL    HW275221   0.190   5.019   0.810 -0.1744  0.0370 -0.0006
24594SOL     OW75222   1.668   4.356   4.264  0.3583  0.1613  0.0290
24594SOL    HW175223   1.644   4.283   4.206  0.0608  0.5517 -0.3503
24594SOL    HW275224   1.640   4.434   4.216  0.7518  0.5293  0.3955
24595SOL     OW75225   4.243   2.384   7.623  0.6073  0.2948 -0.3404
24595SOL    HW175226   4.182   2.430   7.682 -0.1067  0.6163 -1.2981
24595SOL    HW275227   4.210   2.403   7.536  1.1002 -0.9478 -0.8161
24596SOL     OW75228   3.447   1.246  12.133  0.4844 -0.7906  0.4417
24596SOL    HW175229   3.405   1.257  12.047  0.9005  0.2179  0.3524
24596SOL    HW275230   3.442   1.333  12.173 -0.3061 -1.3904  1.7328
24597SOL     OW75231   4.430   2.318   0.305  0.5779  0.4005  0.6695
24597SOL    HW175232   4.488   2.371   0.360  1.2135 -1.7179  2.2114
24597SOL    HW275233   4.400   2.248   0.363 -3.6535  1.3746 -0.0371
24598SOL     OW75234   7.410   5.808  10.595 -0.0564 -0.0727 -0.8117
24598SOL    HW175235   7.452   5.848  10.518 -0.2359  0.2529 -0.7461
24598SOL    HW275236   7.374   5.883  10.643 -2.0764 -0.4262 -1.6627
24599SOL     OW75237   7.295   3.605   6.558 -0.3419 -0.0362 -0.4534
24599SOL    HW175238   7.280   3.688   6.603 -1.2116 -0.9033  0.9318
24599SOL    HW275239   7.364   3.624   6.494 -0.0016  1.5555  0.3472
24600SOL     OW75240   5.444   2.839   3.891  0.3018 -0.4066  0.4263
24600SOL    HW175241   5.408   2.892   3.819  0.0439  0.7471  1.3654
24600SOL    HW275242   5.529   2.810   3.859  0.3104  0.3258 -0.2570
24601SOL     OW75243   3.310   5.384   7.698  0.2787 -0.5434  0.2612
24601SOL    HW175244   3.355   5.414   7.619  1.0437 -0.2683  0.7918
24601SOL    HW275245   3.290   5.465   7.746 -1.9416 -0.5471 -0.5568
24602SOL     OW75246   4.915   3.958  11.578 -0.2910 -0.0009 -0.6507
24602SOL    HW175247   4.988   4.006  11.616 -0.1452 -0.5503 -0.2208
24602SOL    HW275248   4.858   3.937  11.652 -0.5184 -0.2101 -0.8798
24603SOL     OW75249   4.153   1.004   4.251 -0.8097  0.0668 -0.1253
24603SOL    HW175250   4.130   1.088   4.291  0.8816  0.4361  0.1474
24603SOL    HW275251   4.237   0.981   4.289 -1.4688 -2.0601  0.2137
24604SOL     OW75252   3.663   1.098   0.976 -0.3211  0.0641 -0.0791
24604SOL    HW175253   3.601   1.059   1.038  0.3602 -0.7712  0.0991
24604SOL    HW275254   3.654   1.046   0.896  0.5169 -0.4168  0.1243
24605SOL     OW75255   1.009   0.026   5.453  0.5750  0.4546  0.2284
24605SOL    HW175256   1.052   0.110   5.438 -0.2300  0.5215 -2.1576
24605SOL    HW275257   0.983  -0.003   5.366 -2.5339 -0.4424  1.3106
24606SOL     OW75258   1.063   0.182   8.825 -0.2544  0.1078  0.1226
24606SOL    HW175259   1.097   0.151   8.740  1.1279 -0.8265  0.9707
24606SOL    HW275260   0.972   0.206   8.807  0.0578  0.1172 -1.6636
24607SOL     OW75261   3.364   5.865   3.790  1.0447  0.0782  0.2592
24607SOL    HW175262   3.440   5.894   3.840  0.9584 -0.9345  0.9915
24607SOL    HW275263   3.366   5.770   3.796 -0.1178  0.0321  0.0422
24608SOL     OW75264   7.581   5.975   5.660 -0.4347  0.0086  0.7065
24608SOL    HW175265   7.582   5.880   5.650  3.5468 -0.2027  1.1802
24608SOL    HW275266   7.541   5.990   5.746 -1.5710 -1.1664  0.3995
24609SOL     OW75267   5.588   0.655   6.967  0.5428 -0.1805  0.4113
24609SOL    HW175268   5.642   0.680   6.891 -0.2260  1.2301  0.2922
24609SOL    HW275269   5.505   0.626   6.929 -0.0700  1.1150  0.6990
24610SOL     OW75270   7.231   4.904   7.536  0.2495  0.0678 -0.3717
24610SOL    HW175271   7.242   4.883   7.443 -1.6052 -1.7944 -0.2538
24610SOL    HW275272   7.137   4.923   7.545  0.2250 -0.6351  1.2500
24611SOL     OW75273   3.241   7.337   5.332  0.1297 -0.5920  0.2351
24611SOL    HW175274   3.224   7.338   5.238 -0.5549 -0.8695  0.3459
24611SOL    HW275275   3.303   7.408   5.346 -0.1611 -0.2128 -0.3507
24612SOL     OW75276   1.665   1.676  11.124 -0.3352  0.2574 -0.3117
24612SOL    HW175277   1.691   1.757  11.168 -0.4675 -0.6316  1.4695
24612SOL    HW275278   1.745   1.624  11.121 -0.7601 -0.4593  0.6195
24613SOL     OW75279   0.556   6.866  10.669  0.0316  0.5525 -0.4130
24613SOL    HW175280   0.632   6.890  10.615  1.6045 -0.0517  1.4108
24613SOL    HW275281   0.489   6.930  10.646  0.8766  0.7905 -2.4763
24614SOL     OW75282   0.262   3.321   6.477  0.5237 -0.3582  0.6852
24614SOL    HW175283   0.189   3.370   6.516 -0.7299 -0.9464 -0.7983
24614SOL    HW275284   0.339   3.348   6.528 -0.4711  1.4231  1.3443
24615SOL     OW75285   6.212   4.173   0.533 -0.0782 -0.0118  0.5299
24615SOL    HW175286   6.163   4.114   0.591 -0.1477  0.6862  1.2037
24615SOL    HW275287   6.159   4.252   0.530  0.6695  0.4997  0.7006
24616SOL     OW75288   1.604   2.490   1.299 -0.2133 -0.0769 -0.1185
24616SOL    HW175289   1.558   2.419   1.344 -0.3733 -0.1722 -0.4327
24616SOL    HW275290   1.634   2.547   1.370  1.8118 -1.5671  0.3212
24617SOL     OW75291   0.409   4.098   1.173  0.1730  0.1552 -0.0532
24617SOL    HW175292   0.498   4.102   1.139  0.1306 -0.6296 -0.2668
24617SOL    HW275293   0.384   4.006   1.165 -0.3493  0.2113  0.7977
24618SOL     OW75294   1.629   1.436   4.512 -0.3010 -0.3045 -0.1973
24618SOL    HW175295   1.567   1.488   4.461 -0.0809  0.0809 -0.0789
24618SOL    HW275296   1.592   1.433   4.600 -0.5253 -0.7091 -0.3014
24619SOL     OW75297   2.812   5.629   9.852 -0.3688  0.7922 -0.2801
24619SOL    HW175298   2.827   5.601   9.761  0.5965  1.7644 -0.4490
24619SOL    HW275299   2.834   5.552   9.904 -1.1004  0.1666 -0.8683
24620SOL     OW75300   0.470   6.539   8.474  0.0695  0.1431  0.5396
24620SOL    HW175301   0.478   6.448   8.503  0.2695  0.4090  1.3316
24620SOL    HW275302   0.402   6.536   8.407  0.4578 -0.6771  0.1685
24621SOL     OW75303   1.261   6.410   6.469  0.4273 -0.6131 -0.2132
24621SOL    HW175304   1.216   6.483   6.425  0.4414 -0.7351 -0.4327
24621SOL    HW275305   1.204   6.335   6.455 -1.0696 -0.0960  2.4997
24622SOL     OW75306   3.387   6.437   6.523 -0.2948 -0.3180  0.3666
24622SOL    HW175307   3.299   6.424   6.559 -0.5498  1.8425  0.6677
24622SOL    HW275308   3.445   6.393   6.586 -1.1288 -2.0591 -0.0129
24623SOL     OW75309   2.889   7.408  10.150 -0.2197 -0.1566 -0.2621
24623SOL    HW175310   2.832   7.382  10.077  1.6762 -1.4187 -1.3744
24623SOL    HW275311   2.918   7.325  10.189  0.3994  0.4629  0.6381
24624SOL     OW75312   0.797   6.888   2.254 -0.4319 -0.3814 -0.3339
24624SOL    HW175313   0.873   6.936   2.288 -0.3996  0.1467 -1.1363
24624SOL    HW275314   0.828   6.845   2.175 -0.7773 -0.7569 -0.2683
24625SOL     OW75315   4.887   7.799   9.953 -0.6864 -0.2980 -0.3289
24625SOL    HW175316   4.944   7.771   9.882  0.5684  0.5666  0.3035
24625SOL    HW275317   4.807   7.748   9.941 -0.8595  0.4552 -2.8443
24626SOL     OW75318   3.741   2.319   9.634  0.3276  0.1514  0.2034
24626SOL    HW175319   3.782   2.406   9.639  1.8995 -0.5384  0.0186
24626SOL    HW275320   3.697   2.318   9.549  2.8572 -0.2366 -1.1961
24627SOL     OW75321   0.220   2.542   2.033 -0.5479  0.2779  0.2474
24627SOL    HW175322   0.212   2.503   2.120 -1.5985  0.2195  0.1377
24627SOL    HW275323   0.246   2.633   2.050  1.8043 -0.3709  0.5072
24628SOL     OW75324   1.526   2.662   0.724  0.6728  0.7715 -0.2291
24628SOL    HW175325   1.473   2.614   0.788  2.0422 -1.5438 -0.6943
24628SOL    HW275326   1.462   2.707   0.668 -0.6461  0.4698  0.9972
24629SOL     OW75327   0.705   2.005  10.647  0.4150 -0.3453  1.1226
24629SOL    HW175328   0.795   1.987  10.673  0.6101 -1.1453 -0.0463
24629SOL    HW275329   0.661   1.920  10.651  0.2669 -0.3665 -0.3449
24630SOL     OW75330   4.561   6.207   3.894  0.3668  0.2790  0.2953
24630SOL    HW175331   4.601   6.129   3.855  1.2093  1.4311 -1.2396
24630SOL    HW275332   4.492   6.232   3.832 -0.9849 -0.1271  1.5730
24631SOL     OW75333   0.957   0.435   3.958 -0.4224 -0.0106 -0.4690
24631SOL    HW175334   1.029   0.449   3.896 -0.6337  0.5578 -0.5925
24631SOL    HW275335   0.976   0.351   3.999 -0.3655 -0.4827 -1.4357
24632SOL     OW75336   4.648   4.792   4.213  0.7859 -0.2653 -0.1126
24632SOL    HW175337   4.573   4.830   4.168  1.6825 -0.3534 -1.7283
24632SOL    HW275338   4.712   4.774   4.144  2.2588 -0.3061  1.1966
24633SOL     OW75339   7.615   6.467   6.210  0.1914  0.0241 -0.0263
24633SOL    HW175340   7.627   6.402   6.278  1.8589 -0.4363 -0.7114
24633SOL    HW275341   7.591   6.547   6.257  1.2285 -0.3038  1.1057
24634SOL     OW75342   0.220   5.790   1.873 -0.0102 -0.5889 -0.5625
24634SOL    HW175343   0.203   5.884   1.874  0.0066 -0.5711  1.3560
24634SOL    HW275344   0.176   5.756   1.951  0.8679 -2.0155 -0.6398
24635SOL     OW75345   1.206   5.744   6.466  0.1199  0.0730  0.6038
24635SOL    HW175346   1.219   5.649   6.456  1.2489  0.1935  0.7357
24635SOL    HW275347   1.113   5.754   6.483 -0.4104 -0.8328 -1.4867
24636SOL     OW75348   0.161   6.544  11.984 -0.0282  0.0168  0.0581
24636SOL    HW175349   0.215   6.527  12.061  1.4152 -0.1580 -0.9497
24636SOL    HW275350   0.080   6.582  12.019 -0.8807 -3.1313  1.9280
24637SOL     OW75351   7.837   7.029   3.227 -0.0903 -0.0201 -0.3591
24637SOL    HW175352   7.815   6.984   3.145 -0.3877  0.2776 -0.4425
24637SOL    HW275353   7.930   7.047   3.220 -0.3537  1.1327 -1.1916
24638SOL     OW75354   0.043   5.454   1.962  0.2255 -0.1360  0.8844
24638SOL    HW175355   0.052   5.359   1.954  0.0077 -0.0730 -0.3168
24638SOL    HW275356   0.077   5.474   2.049  2.7722 -1.0170  0.2013
24639SOL     OW75357   7.225   5.277   1.155  0.2061  0.3614  0.1627
24639SOL    HW175358   7.224   5.323   1.071  0.7423  1.3272  0.6690
24639SOL    HW275359   7.297   5.214   1.147 -0.3585 -0.2105 -0.4409
24640SOL     OW75360   5.538   4.559   7.772  0.0167 -0.2856  0.1467
24640SOL    HW175361   5.502   4.493   7.712  0.3823  0.7597 -1.2898
24640SOL    HW275362   5.621   4.522   7.802 -0.3335 -0.9733  0.2953
24641SOL     OW75363   6.587   7.669   5.731  0.2393  0.3570  0.1140
24641SOL    HW175364   6.502   7.665   5.686  0.5600 -0.3013 -0.4494
24641SOL    HW275365   6.564   7.676   5.824 -0.4416  0.0425 -0.0198
24642SOL     OW75366   7.515   4.183   7.087  0.1496  0.6648 -0.1343
24642SOL    HW175367   7.579   4.123   7.125 -1.4000 -1.9543 -1.4197
24642SOL    HW275368   7.564   4.232   7.020  0.8883 -1.1483 -0.9778
24643SOL     OW75369   4.437   6.300   5.856 -0.2432  0.5082 -0.3765
24643SOL    HW175370   4.463   6.249   5.932  2.4067  0.8000 -0.9903
24643SOL    HW275371   4.392   6.376   5.892 -1.7356 -0.7856  0.6742
24644SOL     OW75372   0.932   6.114   9.025 -0.1122 -0.0111 -0.1232
24644SOL    HW175373   1.005   6.066   8.987  0.4415  0.6828  0.0480
24644SOL    HW275374   0.910   6.064   9.104 -1.4152 -1.5862 -1.3970
24645SOL     OW75375   0.610   2.260   7.466  0.1091  0.2156  0.1609
24645SOL    HW175376   0.544   2.283   7.401  0.4207  1.6255  0.3279
24645SOL    HW275377   0.687   2.235   7.414  0.5400  1.8770 -0.0379
24646SOL     OW75378   4.684   0.206   1.386 -0.0022  0.0803  0.3714
24646SOL    HW175379   4.645   0.199   1.473  1.7520  0.4713  1.2388
24646SOL    HW275380   4.776   0.227   1.403  0.0482  1.7713 -1.6005
24647SOL     OW75381   1.627   1.555   9.828  0.1909 -0.2512  0.5034
24647SOL    HW175382   1.647   1.590   9.915  1.7210 -0.3129  0.2036
24647SOL    HW275383   1.713   1.539   9.788 -0.4644  0.3241 -1.2467
24648SOL     OW75384   3.967   5.003  11.276  0.6001 -0.1208  0.2847
24648SOL    HW175385   4.036   5.003  11.343  1.0060 -0.4536 -0.1256
24648SOL    HW275386   3.984   5.080  11.223  1.1087 -0.5976 -0.2637
24649SOL     OW75387   1.963   4.747   0.408 -0.1685 -0.6497 -0.9042
24649SOL    HW175388   1.921   4.832   0.414 -2.1917 -1.5367 -1.6493
24649SOL    HW275389   1.904   4.687   0.454  2.0408 -1.4376  1.1121
24650SOL     OW75390   0.247   2.846   5.754  0.1379 -0.2632  0.6200
24650SOL    HW175391   0.218   2.889   5.673  0.8188  1.2400  1.1364
24650SOL    HW275392   0.218   2.905   5.823  2.2012  0.0456  1.2882
24651SOL     OW75393   2.135   2.766   0.781  0.3944  0.3615  0.3503
24651SOL    HW175394   2.069   2.722   0.836 -0.2910  0.2265 -0.5520
24651SOL    HW275395   2.127   2.724   0.695  0.0563  1.8954 -0.4120
24652SOL     OW75396   6.344   4.364  12.245  0.4353  0.0211 -0.1444
24652SOL    HW175397   6.277   4.296  12.237 -0.5433  0.2230  3.9783
24652SOL    HW275398   6.316   4.433  12.186 -1.7203 -0.8646 -0.2420
24653SOL     OW75399   7.462   2.657   3.149  0.1204 -0.8110 -0.2085
24653SOL    HW175400   7.398   2.685   3.083 -0.9496 -2.4583  0.0851
24653SOL    HW275401   7.421   2.680   3.233  1.0110  0.3036 -0.0443
24654SOL     OW75402   6.274   5.867   0.175  0.1862 -0.0888 -0.0127
24654SOL    HW175403   6.222   5.826   0.243  1.4090 -1.9947 -0.1698
24654SOL    HW275404   6.360   5.882   0.215  0.5823 -0.2138 -0.7936
24655SOL     OW75405   2.850   1.817  11.602  0.7307  0.3435  0.2350
24655SOL    HW175406   2.940   1.833  11.631  0.9497 -2.2468  1.2952
24655SOL    HW275407   2.814   1.760  11.670 -1.0749 -0.2396 -1.1549
24656SOL     OW75408   2.285   3.932  10.146  0.1023  0.7642  0.2197
24656SOL    HW175409   2.376   3.938  10.174  0.0625 -2.4539  1.3318
24656SOL    HW275410   2.291   3.902  10.055  0.1574 -0.0503  0.4887
24657SOL     OW75411   0.371   5.086   4.777 -0.5744 -0.0251 -0.2385
24657SOL    HW175412   0.359   5.148   4.848  0.1368  1.2409 -1.1635
24657SOL    HW275413   0.284   5.074   4.740 -0.4621  2.1695 -1.3968
24658SOL     OW75414   3.031   1.744   1.396 -0.0638  0.2599  0.0590
24658SOL    HW175415   3.000   1.751   1.486  0.5076 -0.1362  0.2957
24658SOL    HW275416   3.027   1.833   1.362 -3.2073  0.0028 -0.5575
24659SOL     OW75417   1.043   3.970   1.919  0.2686 -0.1025  0.6271
24659SOL    HW175418   1.118   4.025   1.944  0.3093  0.5332 -0.7828
24659SOL    HW275419   0.974   4.033   1.898 -0.4385 -0.6711  1.2393
24660SOL     OW75420   1.706   3.102  10.256  0.0830  0.0078  0.7199
24660SOL    HW175421   1.741   3.187  10.281 -0.4480  0.4084  0.1429
24660SOL    HW275422   1.750   3.080  10.174 -0.2419  0.0309  0.5347
24661SOL     OW75423   0.431   1.078   8.005 -0.4817  0.2049 -0.3293
24661SOL    HW175424   0.370   1.149   7.986  0.5205  0.9905 -0.7298
24661SOL    HW275425   0.413   1.012   7.938  1.3189  1.8646 -2.6211
24662SOL     OW75426   7.727   1.690   4.569 -0.6197 -0.1695 -0.0969
24662SOL    HW175427   7.756   1.610   4.526 -0.0385 -1.9378  3.2597
24662SOL    HW275428   7.632   1.684   4.573 -0.6494 -0.1577 -0.7915
24663SOL     OW75429   6.021   0.216   3.417 -0.1279  0.8455  0.0177
24663SOL    HW175430   6.056   0.257   3.496 -1.1650  1.5347  0.1499
24663SOL    HW275431   6.009   0.288   3.355 -1.2509  0.6457 -0.0262
24664SOL     OW75432   7.427   3.347   5.321  0.3741  0.8916  0.0254
24664SOL    HW175433   7.487   3.422   5.315 -1.4166  2.5193  1.1974
24664SOL    HW275434   7.348   3.376   5.276 -0.5097 -0.1341  0.8704
24665SOL     OW75435   4.946   2.187   2.436 -0.1959  0.0721  0.6418
24665SOL    HW175436   4.886   2.168   2.507  1.4723  1.4566  2.5583
24665SOL    HW275437   5.001   2.109   2.428 -1.7695 -0.9550 -0.7087
24666SOL     OW75438   0.984   7.722   6.011 -0.1351 -0.2228  0.0936
24666SOL    HW175439   1.027   7.803   6.041  1.5938 -0.8882 -0.4875
24666SOL    HW275440   0.990   7.663   6.086 -0.4461 -0.1642  0.1641
24667SOL     OW75441   6.183   2.314   3.912  0.3028  0.3420  0.4306
24667SOL    HW175442   6.110   2.256   3.934  0.5852  0.8698  3.0840
24667SOL    HW275443   6.142   2.390   3.871 -0.2518 -0.8117 -1.2740
24668SOL     OW75444   4.306   6.297  11.728  0.1886 -0.2544 -0.2013
24668SOL    HW175445   4.213   6.305  11.706  0.2418  1.2103  0.0216
24668SOL    HW275446   4.349   6.366  11.677  1.2104 -1.0921 -0.5231
24669SOL     OW75447   4.919   3.532   3.991  0.0087  0.1897  0.0081
24669SOL    HW175448   4.904   3.616   4.035 -1.6631  0.0831 -0.2882
24669SOL    HW275449   4.832   3.505   3.960  0.4321 -1.8622  0.4501
24670SOL     OW75450   3.213   5.729   2.824 -0.2787  0.0906  0.3679
24670SOL    HW175451   3.249   5.817   2.838 -0.6573  0.3777 -0.4370
24670SOL    HW275452   3.272   5.688   2.760 -1.2144  0.4758 -0.7674
24671SOL     OW75453   1.074   4.036   8.912 -0.3948 -0.0179 -0.0821
24671SOL    HW175454   0.995   4.024   8.965  0.9147 -0.8638  1.7762
24671SOL    HW275455   1.082   3.955   8.862  0.0926 -0.5891  0.8879
24672SOL     OW75456   2.878   2.240   4.172 -0.6902  0.1373 -0.0883
24672SOL    HW175457   2.924   2.230   4.255  1.8994 -1.3166 -1.5716
24672SOL    HW275458   2.846   2.331   4.173 -1.0004  0.0787  2.5505
24673SOL     OW75459   3.568   4.331   9.574 -0.5077  0.4069 -0.7185
24673SOL    HW175460   3.549   4.352   9.483 -1.8340  0.1915 -0.5018
24673SOL    HW275461   3.520   4.396   9.625  1.2137  1.3050 -0.1645
24674SOL     OW75462   6.160   3.384  11.451  0.5235  0.4204  0.2775
24674SOL    HW175463   6.140   3.356  11.541  0.4817  1.2544  0.5353
24674SOL    HW275464   6.090   3.345  11.398 -0.3151  1.1263  0.8210
24675SOL     OW75465   2.531   6.338   2.998  0.4597  0.2539 -0.7875
24675SOL    HW175466   2.605   6.378   2.952  0.3930  0.7589 -0.4661
24675SOL    HW275467   2.500   6.270   2.939  1.5482 -0.3686 -0.6784
24676SOL     OW75468   6.687   7.745  10.073 -0.2272 -0.1264 -0.2920
24676SOL    HW175469   6.643   7.762  10.156 -0.4526  3.0486 -0.9543
24676SOL    HW275470   6.619   7.757  10.007  0.6290  0.4213 -1.0949
24677SOL     OW75471   1.378   1.686   0.873 -0.5041  0.0461  0.1114
24677SOL    HW175472   1.452   1.639   0.911 -0.0419  0.2297 -0.5381
24677SOL    HW275473   1.380   1.772   0.915  1.7151  1.2711 -2.2499
24678SOL     OW75474   0.757   1.567   0.576 -0.2853  0.2137 -0.2019
24678SOL    HW175475   0.705   1.588   0.654 -1.0062 -0.7158 -0.4195
24678SOL    HW275476   0.700   1.589   0.502 -0.5889 -1.2874 -0.4434
24679SOL     OW75477   6.939   1.494   7.173 -1.1124 -0.0790 -0.1446
24679SOL    HW175478   6.928   1.488   7.268  1.0261  1.9326  0.3287
24679SOL    HW275479   6.957   1.587   7.158 -0.4276 -0.5344 -2.4091
24680SOL     OW75480   5.396   7.743   3.172  0.2568 -0.1961  0.2281
24680SOL    HW175481   5.481   7.781   3.148 -0.7983  2.3132  0.2371
24680SOL    HW275482   5.352   7.729   3.088  0.8190 -2.0585  0.1820
24681SOL     OW75483   6.663   3.183  10.479 -0.3678  0.1074 -0.1244
24681SOL    HW175484   6.650   3.273  10.448 -0.4897 -0.2820 -1.2285
24681SOL    HW275485   6.582   3.162  10.526  0.3626  1.1885  1.7488
24682SOL     OW75486   0.855   1.863   1.236  0.0322 -0.1484  0.4909
24682SOL    HW175487   0.944   1.875   1.268  0.5581  0.2217 -0.9956
24682SOL    HW275488   0.831   1.775   1.262  1.4485 -0.8424 -0.4068
24683SOL     OW75489   4.216   7.245  12.469  0.3880 -0.4293  0.3780
24683SOL    HW175490   4.124   7.271  12.457  0.7607  1.2650  0.8938
24683SOL    HW275491   4.265   7.327  12.459  1.8078 -1.2375  0.5602
24684SOL     OW75492   5.252   0.087   2.227 -0.4682 -0.0646  0.1643
24684SOL    HW175493   5.185   0.077   2.160 -1.0672  1.3639  0.5109
24684SOL    HW275494   5.319   0.022   2.205 -1.2151 -0.4236 -1.1049
24685SOL     OW75495   0.054   2.071   7.210 -0.2635 -0.4323 -0.5504
24685SOL    HW175496  -0.026   2.026   7.182 -0.3380 -0.3221 -0.5139
24685SOL    HW275497   0.040   2.090   7.302 -0.2380 -0.3211 -0.5700
24686SOL     OW75498   3.300   1.535   4.708  0.2043  0.0982 -0.6544
24686SOL    HW175499   3.288   1.441   4.695  0.2758  0.0173 -0.1587
24686SOL    HW275500   3.232   1.560   4.770 -0.4249  0.5613 -1.5170
24687SOL     OW75501   7.748   4.422   4.092 -0.4681 -0.3702 -0.2125
24687SOL    HW175502   7.840   4.427   4.065 -0.5978 -0.3646 -0.6657
24687SOL    HW275503   7.708   4.361   4.029 -1.2775  1.3535 -1.4422
24688SOL     OW75504   3.871   7.132   9.041  0.2457 -0.1265  0.5833
24688SOL    HW175505   3.846   7.216   9.004 -0.6170 -0.4237  0.4857
24688SOL    HW275506   3.931   7.154   9.113 -0.0661  0.5719  0.6340
24689SOL     OW75507   5.268   1.966   4.845  0.3600  0.4977  0.3585
24689SOL    HW175508   5.282   1.872   4.835 -0.9944  0.1654  1.3700
24689SOL    HW275509   5.351   1.999   4.880  0.7753 -0.3402  0.1892
24690SOL     OW75510   1.686   3.441   2.385  0.3033  0.0833  0.2371
24690SOL    HW175511   1.781   3.428   2.386  0.0277 -2.5256  0.0297
24690SOL    HW275512   1.651   3.359   2.419 -1.9133  0.9019  0.0808
24691SOL     OW75513   2.720   5.285   6.105 -0.1493  0.1621  0.1029
24691SOL    HW175514   2.779   5.316   6.037 -1.9621  0.3774 -1.4766
24691SOL    HW275515   2.696   5.363   6.154 -2.7512  1.0186 -2.2894
24692SOL     OW75516   7.209   1.493   3.919  0.2085  0.0211 -0.2749
24692SOL    HW175517   7.295   1.531   3.905  0.2082  0.6626  1.2830
24692SOL    HW275518   7.178   1.533   4.001 -1.3151 -0.6316 -0.5052
24693SOL     OW75519   7.970   3.219   0.098  0.1505  0.2549 -0.2289
24693SOL    HW175520   7.978   3.204   0.004  1.0180 -0.5148 -0.0469
24693SOL    HW275521   8.060   3.220   0.131 -0.1787 -0.8412  0.7819
24694SOL     OW75522   2.222   6.150   7.750 -0.6769 -0.0570 -0.0913
24694SOL    HW175523   2.159   6.080   7.767 -2.4368  1.1947 -1.0475
24694SOL    HW275524   2.180   6.204   7.683  2.3685 -0.3066 -2.4250
24695SOL     OW75525   1.088   6.889  10.326  0.0477  0.0252  0.9289
24695SOL    HW175526   1.067   6.908  10.418  0.4514  0.0977  1.0083
24695SOL    HW275527   1.172   6.844  10.330 -0.6306 -1.3202  0.7100
24696SOL     OW75528   7.410   4.564  10.382 -0.5017 -0.0427  0.1135
24696SOL    HW175529   7.445   4.479  10.354  0.6290  0.3645  0.2118
24696SOL    HW275530   7.391   4.552  10.475 -0.0815 -0.1152  0.1933
24697SOL     OW75531   0.052   4.770  11.773 -0.0892 -0.0196  0.0205
24697SOL    HW175532  -0.011   4.728  11.714  0.0383  0.1981 -0.2767
24697SOL    HW275533   0.064   4.858  11.736 -0.7600  0.4774  0.9262
24698SOL     OW75534   4.745   1.862   7.062 -0.2268  0.3841  0.1543
24698SOL    HW175535   4.719   1.782   7.018  1.5704 -0.6316  0.8061
24698SOL    HW275536   4.680   1.874   7.132 -1.3269  0.3329 -0.8317
24699SOL     OW75537   0.964   4.414   1.709 -0.6182 -0.1118  0.3845
24699SOL    HW175538   0.957   4.368   1.625 -0.0097 -1.7039  1.1607
24699SOL    HW275539   0.874   4.435   1.733 -0.8935 -0.6875 -0.1152
24700SOL     OW75540   0.271   3.643   7.573  0.2129 -0.3554 -0.5670
24700SOL    HW175541   0.224   3.590   7.638  1.3500  0.7458  1.2303
24700SOL    HW275542   0.352   3.594   7.557  0.7893  0.2789  0.3095
24701SOL     OW75543   0.766   7.794   7.019 -0.3725  0.3401 -0.0010
24701SOL    HW175544   0.777   7.699   7.012 -1.3643  0.2932 -1.1890
24701SOL    HW275545   0.840   7.830   6.969 -1.8874  0.1029 -2.6044
24702SOL     OW75546   5.172   0.868   1.177 -0.4995  0.0834  0.7502
24702SOL    HW175547   5.120   0.831   1.106 -0.1858 -0.4330  0.7815
24702SOL    HW275548   5.167   0.802   1.246  1.4274 -0.6784  0.2020
24703SOL     OW75549   1.321   2.982  11.093 -0.0721 -0.0160  0.1093
24703SOL    HW175550   1.363   3.026  11.019 -1.9215 -0.8221 -1.5055
24703SOL    HW275551   1.298   2.895  11.059 -0.9940 -0.3977  1.6312
24704SOL     OW75552   7.433   2.339  12.264 -0.3579  0.1109 -0.0918
24704SOL    HW175553   7.382   2.411  12.227 -0.3492  1.2256  1.9008
24704SOL    HW275554   7.415   2.264  12.207 -1.6632  1.2800 -1.2855
24705SOL     OW75555   1.323   7.389   0.313 -0.1359  0.1748  0.1169
24705SOL    HW175556   1.349   7.435   0.234  0.1971 -2.9407 -1.7497
24705SOL    HW275557   1.398   7.333   0.334 -1.4514 -1.4411  0.6978
24706SOL     OW75558   1.574   1.875   8.323  0.1599  0.0850 -0.1597
24706SOL    HW175559   1.617   1.818   8.260 -0.2666 -0.5468  0.1144
24706SOL    HW275560   1.502   1.823   8.358  1.8639 -0.5435  2.7447
24707SOL     OW75561   5.816   3.330  10.782 -0.0891  0.3622  0.3463
24707SOL    HW175562   5.759   3.267  10.737 -0.7644  0.0583  1.5927
24707SOL    HW275563   5.868   3.369  10.711  0.4471 -1.6565 -0.4615
24708SOL     OW75564   2.485   3.117   7.104  0.0432 -0.2437  0.0672
24708SOL    HW175565   2.561   3.163   7.140 -0.4778  0.3861  0.3972
24708SOL    HW275566   2.522   3.047   7.051  0.8777  0.6756 -0.6048
24709SOL     OW75567   7.108   1.346   2.962 -0.2986  0.4822  0.0931
24709SOL    HW175568   7.188   1.398   2.972 -0.5539  0.4109  3.7127
24709SOL    HW275569   7.037   1.410   2.970 -0.6080  0.1246  0.2363
24710SOL     OW75570   5.916   5.181   0.597  0.1623  0.3072 -0.1649
24710SOL    HW175571   5.946   5.272   0.600  2.2471 -0.2382 -2.0599
24710SOL    HW275572   5.962   5.137   0.668  0.5609  0.3755 -0.3771
24711SOL     OW75573   2.002   4.717   4.263  0.7428 -0.0896  0.2021
24711SOL    HW175574   2.021   4.800   4.219  1.4094 -0.4238 -0.1522
24711SOL    HW275575   2.086   4.672   4.267 -0.3145 -3.1151 -4.3733
24712SOL     OW75576   0.390   0.992   0.298 -0.5083  0.3159  0.3043
24712SOL    HW175577   0.467   0.997   0.241 -0.0430 -2.1877  0.6104
24712SOL    HW275578   0.425   0.992   0.387 -0.9045 -0.2393  0.4653
24713SOL     OW75579   0.661   3.600   4.262  0.3108 -0.0827  0.4433
24713SOL    HW175580   0.657   3.592   4.167  0.9867 -0.4204  0.4329
24713SOL    HW275581   0.580   3.643   4.287 -0.4703 -1.1744 -0.1546
24714SOL     OW75582   2.404   2.951   9.608  0.2941  0.6105  0.4429
24714SOL    HW175583   2.449   2.991   9.682 -0.0120 -0.3089  1.1441
24714SOL    HW275584   2.316   2.931   9.640  0.5781 -1.0409  0.2924
24715SOL     OW75585   4.821   4.894   7.029  0.6720  1.1194 -0.3395
24715SOL    HW175586   4.796   4.942   7.109 -0.5653 -0.4646  0.2765
24715SOL    HW275587   4.792   4.804   7.045 -1.7782  1.1676 -3.4900
24716SOL     OW75588   4.269   6.036  11.582  0.2747 -0.0206  0.0395
24716SOL    HW175589   4.281   6.098  11.654 -2.0428  1.7107 -0.9461
24716SOL    HW275590   4.295   6.085  11.504  0.3006 -0.9934 -0.5758
24717SOL     OW75591   6.436   2.318   9.957  1.2873  0.1833 -0.7488
24717SOL    HW175592   6.502   2.284   9.897  0.9679 -0.4350 -0.7603
24717SOL    HW275593   6.361   2.339   9.902  1.0083 -0.3465 -0.5811
24718SOL     OW75594   7.155   5.787   2.636  0.2078  0.4755  0.1966
24718SOL    HW175595   7.180   5.802   2.727 -1.1475  1.4264  0.4427
24718SOL    HW275596   7.073   5.737   2.641  1.2242 -1.3458 -0.5574
24719SOL     OW75597   3.830   6.002   2.422  0.0630  0.4412 -0.3257
24719SOL    HW175598   3.819   6.062   2.348 -0.5333 -0.3341 -0.8870
24719SOL    HW275599   3.912   6.029   2.463  1.2137 -0.0224 -2.1615
24720SOL     OW75600   3.826   6.326   3.189  0.1376 -0.1272 -0.0009
24720SOL    HW175601   3.879   6.405   3.182  0.9579 -0.4878  1.5717
24720SOL    HW275602   3.861   6.267   3.123  1.3892 -0.1594  0.6662
24721SOL     OW75603   7.472   7.599   8.274  0.0332  0.0042  0.4087
24721SOL    HW175604   7.393   7.644   8.245 -0.3520  0.3675  1.9339
24721SOL    HW275605   7.449   7.506   8.271 -0.4767  0.1090  0.8622
24722SOL     OW75606   6.582   5.061   8.596 -0.4714 -0.6624  0.2511
24722SOL    HW175607   6.672   5.028   8.591  0.4846  1.7784  0.1226
24722SOL    HW275608   6.571   5.113   8.517 -2.0778 -1.0400  0.1969
24723SOL     OW75609   0.189   4.167  12.423  0.1775 -0.4990 -0.2964
24723SOL    HW175610   0.152   4.198  12.341 -0.4757 -0.0215  0.1636
24723SOL    HW275611   0.136   4.090  12.445 -0.0500 -0.2651 -0.0205
24724SOL     OW75612   6.153   4.252   9.974 -0.5587  0.2120  0.0488
24724SOL    HW175613   6.198   4.265   9.891  0.5023  1.7500  0.8223
24724SOL    HW275614   6.212   4.197  10.025 -1.0982 -0.5278 -0.1035
24725SOL     OW75615   0.174   7.179   8.527  0.3804  0.3582 -0.3883
24725SOL    HW175616   0.221   7.103   8.492 -1.4677 -1.5878  1.0918
24725SOL    HW275617   0.095   7.185   8.472  0.0677  0.6207  0.0827
24726SOL     OW75618   1.456   0.794  10.214  0.7178  0.3312  0.6748
24726SOL    HW175619   1.409   0.835  10.286  1.6557  1.1482  0.8349
24726SOL    HW275620   1.391   0.787  10.144 -0.0376  0.0742  1.3820
24727SOL     OW75621   4.891   6.865   1.281  0.4294  0.1346 -0.4752
24727SOL    HW175622   4.963   6.867   1.219  1.8551  0.5861  1.1265
24727SOL    HW275623   4.931   6.838   1.364 -1.1660  0.7936  0.5647
24728SOL     OW75624   3.061   0.160   5.083  0.0858 -0.4467 -0.1640
24728SOL    HW175625   2.991   0.131   5.143 -0.7364 -0.2911 -1.0229
24728SOL    HW275626   3.026   0.241   5.045  1.4377  0.5408  0.6032
24729SOL     OW75627   6.904   1.182   6.662  0.1722 -0.3437  0.0145
24729SOL    HW175628   6.816   1.145   6.662 -0.3938  0.9369 -0.8057
24729SOL    HW275629   6.956   1.122   6.609 -0.1772 -1.1544  0.5783
24730SOL     OW75630   3.444   2.487   9.466  0.2175  0.0840  0.1836
24730SOL    HW175631   3.434   2.581   9.453  0.9347  0.1937  0.4051
24730SOL    HW275632   3.535   2.469   9.444 -0.4442 -0.9257 -1.9930
24731SOL     OW75633   2.160   3.053   5.237  0.0453 -0.0061  0.4405
24731SOL    HW175634   2.237   3.035   5.184 -0.8962 -0.4504 -0.8191
24731SOL    HW275635   2.132   2.967   5.268 -0.7469 -0.0113 -0.2669
24732SOL     OW75636   6.632   4.467   1.981  0.1976  0.0765  0.1218
24732SOL    HW175637   6.546   4.489   2.017 -0.2322  1.6937 -1.7389
24732SOL    HW275638   6.621   4.378   1.946 -0.1035 -0.5097  1.6476
24733SOL     OW75639   2.453   2.872   8.945  0.0612  0.2887  0.2250
24733SOL    HW175640   2.513   2.899   8.875  1.7070  0.6297  1.7079
24733SOL    HW275641   2.473   2.931   9.018 -1.3836 -0.2734  1.1127
24734SOL     OW75642   0.972   4.957  12.151  0.0520  0.0105 -0.4113
24734SOL    HW175643   1.013   4.997  12.228  0.3218 -2.7846  1.0171
24734SOL    HW275644   0.886   4.999  12.146  1.0425  2.1984 -0.2964
24735SOL     OW75645   5.868   4.433   2.601 -0.6360  0.6520  0.3372
24735SOL    HW175646   5.776   4.407   2.611 -0.1871 -0.9460  0.6566
24735SOL    HW275647   5.871   4.482   2.519 -1.9192  1.5165  0.7776
24736SOL     OW75648   2.046   5.580   8.341  0.1788  0.0346 -0.2050
24736SOL    HW175649   2.135   5.587   8.376  0.1357  0.1923 -0.1240
24736SOL    HW275650   2.047   5.502   8.287  0.8121  0.9378 -1.5420
24737SOL     OW75651   1.743   7.260   4.719 -0.6352  0.3477  0.6231
24737SOL    HW175652   1.743   7.208   4.799  0.8897  1.6378  1.5251
24737SOL    HW275653   1.735   7.196   4.648  1.0352 -1.1104  1.6731
24738SOL     OW75654   4.544   7.089  10.137  0.1176  0.1766 -0.5863
24738SOL    HW175655   4.586   7.008  10.111  0.7222  0.8467 -1.8063
24738SOL    HW275656   4.615   7.145  10.168 -0.2994  0.2268  0.3106
24739SOL     OW75657   3.977   5.319   8.487  0.3041  0.1121 -0.4862
24739SOL    HW175658   4.045   5.368   8.533  1.6492  0.0626 -2.3099
24739SOL    HW275659   4.012   5.229   8.483  0.5813  0.2742 -2.2153
24740SOL     OW75660   6.979   3.766   5.945 -0.4692  0.0624  0.2211
24740SOL    HW175661   6.917   3.837   5.934 -0.8230 -0.3208 -0.3299
24740SOL    HW275662   6.950   3.698   5.883  0.9498  0.1908 -0.6485
24741SOL     OW75663   3.473   5.321   5.187  0.6472  0.3756  0.1128
24741SOL    HW175664   3.419   5.399   5.170 -1.0973 -1.0171 -1.1562
24741SOL    HW275665   3.561   5.347   5.159 -0.2502  1.3450 -2.0854
24742SOL     OW75666   3.502   1.526   1.125 -0.3510  0.2004 -0.1049
24742SOL    HW175667   3.552   1.509   1.205 -0.7106  3.2750  0.8832
24742SOL    HW275668   3.545   1.473   1.058  1.3628 -0.7317  1.6488
24743SOL     OW75669   1.739   2.950   1.657 -0.1794 -0.0789 -0.7393
24743SOL    HW175670   1.757   2.922   1.747  1.5881 -0.0303 -1.0427
24743SOL    HW275671   1.646   2.973   1.657 -0.0362  0.6927  1.2827
24744SOL     OW75672   1.248   7.786   8.156 -0.0717  0.4331 -0.1385
24744SOL    HW175673   1.252   7.853   8.225  1.3262  0.6483 -0.4083
24744SOL    HW275674   1.276   7.832   8.077  0.4879 -0.3678 -0.4130
24745SOL     OW75675   5.437   6.777  11.894 -0.3067 -0.0569  0.3746
24745SOL    HW175676   5.468   6.715  11.961  1.3352  0.0214 -0.2677
24745SOL    HW275677   5.390   6.844  11.944 -0.5289 -0.8532  1.2752
24746SOL     OW75678   5.482   0.212   3.060 -0.6874 -0.2874  0.4354
24746SOL    HW175679   5.490   0.308   3.056 -0.8158 -0.3010 -1.6887
24746SOL    HW275680   5.530   0.187   3.139  1.3393  1.3760 -0.1510
24747SOL     OW75681   4.627   1.671  10.954  0.7243 -0.3593 -0.2242
24747SOL    HW175682   4.605   1.593  11.006 -0.0661 -1.4039 -2.0407
24747SOL    HW275683   4.576   1.662  10.874  2.1811  1.0038 -1.3753
24748SOL     OW75684   0.231   1.187   3.439 -0.4015 -0.2451  0.6131
24748SOL    HW175685   0.283   1.111   3.464  0.5876  0.4247  0.6574
24748SOL    HW275686   0.282   1.262   3.470  0.5503  0.6170 -2.6583
24749SOL     OW75687   7.677   5.873   3.053 -0.3967 -0.1095 -0.0457
24749SOL    HW175688   7.755   5.917   3.088 -0.4937 -0.0496  0.0995
24749SOL    HW275689   7.605   5.934   3.073 -0.6600 -0.7124  0.9278
24750SOL     OW75690   0.238   7.641   5.871 -0.2209  0.2130 -0.0267
24750SOL    HW175691   0.332   7.645   5.885 -0.3405 -0.6311  1.2066
24750SOL    HW275692   0.224   7.557   5.826 -0.5497 -0.6725  1.6489
24751SOL     OW75693   1.916   6.435   6.000  0.1249  0.0324  0.7423
24751SOL    HW175694   1.954   6.516   5.966  0.2396 -0.8486 -1.3696
24751SOL    HW275695   1.822   6.449   5.995  0.1268 -0.2116 -0.3959
24752SOL     OW75696   1.072   4.500   1.166 -0.6720  0.5378  0.0642
24752SOL    HW175697   1.032   4.414   1.178 -1.1970  0.5279 -1.5129
24752SOL    HW275698   1.166   4.483   1.164 -0.6044  0.3562  2.2201
24753SOL     OW75699   7.947   5.920   5.233  0.1179 -0.4735 -0.7193
24753SOL    HW175700   7.921   5.954   5.319 -0.7299 -0.5631 -0.9397
24753SOL    HW275701   7.959   5.826   5.247 -0.5338 -0.5717 -0.8211
24754SOL     OW75702   4.687   2.196  12.419 -0.1583  0.4449  0.5908
24754SOL    HW175703   4.596   2.211  12.446 -0.2790  0.5866  0.1055
24754SOL    HW275704   4.737   2.264  12.464 -0.4599  1.1597 -0.1295
24755SOL     OW75705   6.637   7.905   9.525  0.3584 -0.3655 -0.4097
24755SOL    HW175706   6.703   7.943   9.582 -0.3171 -1.3404  1.0926
24755SOL    HW275707   6.558   7.900   9.580 -1.0927  1.0776 -2.2295
24756SOL     OW75708   6.044   3.370   5.535 -0.4045  0.4293 -0.7442
24756SOL    HW175709   6.048   3.455   5.579 -2.2997  1.6426 -2.7311
24756SOL    HW275710   5.951   3.357   5.516 -0.0559 -1.6697 -1.3241
24757SOL     OW75711   1.496   7.388   3.657  0.2058  0.2161  0.0722
24757SOL    HW175712   1.412   7.375   3.613 -0.5010 -2.4663  1.9703
24757SOL    HW275713   1.479   7.368   3.748  2.7771  0.3508  0.6595
24758SOL     OW75714   1.766   7.715   9.927  0.0348  0.3848 -0.5268
24758SOL    HW175715   1.823   7.676   9.994  1.6424  1.4860 -1.1660
24758SOL    HW275716   1.784   7.809   9.933 -0.7304  0.6227 -1.6697
24759SOL     OW75717   1.395   4.814   0.278 -0.0816  0.2763  0.0100
24759SOL    HW175718   1.477   4.832   0.324  0.3528  1.0411 -1.0031
24759SOL    HW275719   1.349   4.898   0.278  0.7730  0.8301 -2.5137
24760SOL     OW75720   3.392   2.651   7.560 -0.2422 -0.0488 -0.2839
24760SOL    HW175721   3.325   2.707   7.522  0.0124 -0.4439 -1.3589
24760SOL    HW275722   3.382   2.662   7.654 -0.7785  1.1117 -0.4547
24761SOL     OW75723   1.108   1.860  11.818  0.4811 -0.5709 -0.5465
24761SOL    HW175724   1.183   1.910  11.785  1.1796 -1.9804 -1.1706
24761SOL    HW275725   1.068   1.823  11.740 -0.6719 -0.1222 -0.1814
24762SOL     OW75726   5.818   0.729  11.439  0.3678  0.0743 -0.0831
24762SOL    HW175727   5.808   0.802  11.500 -0.0048 -0.4575  0.5116
24762SOL    HW275728   5.896   0.750  11.388  0.1859  0.9485 -0.0136
24763SOL     OW75729   6.028   5.225  10.562  0.4777 -0.5106 -0.2049
24763SOL    HW175730   5.997   5.171  10.635 -0.5267  0.4601  0.1094
24763SOL    HW275731   6.123   5.232  10.577  0.2629 -0.1417  1.1654
24764SOL     OW75732   6.744   3.687   5.766 -0.6029 -0.2736  0.0446
24764SOL    HW175733   6.667   3.667   5.820  0.0583 -3.3567  0.0339
24764SOL    HW275734   6.794   3.606   5.765  2.9291  1.7297  0.3698
24765SOL     OW75735   1.563   4.923   4.383 -0.4039 -0.1640  0.1907
24765SOL    HW175736   1.509   4.904   4.307 -1.6208  1.3083  0.6317
24765SOL    HW275737   1.603   4.839   4.406 -1.4332 -1.0021 -0.9712
24766SOL     OW75738   5.333   6.756   0.992 -0.3611  0.0293 -0.1293
24766SOL    HW175739   5.383   6.833   0.966 -1.2954  0.5010 -0.5440
24766SOL    HW275740   5.348   6.693   0.921  2.5735 -1.2463  1.4150
24767SOL     OW75741   3.997   1.569   2.939 -0.5649 -0.0669  0.2426
24767SOL    HW175742   4.016   1.487   2.895  1.6204  0.8144 -0.5680
24767SOL    HW275743   3.966   1.627   2.869 -4.1645 -0.6716  1.1071
24768SOL     OW75744   5.395   5.434   8.289  0.0124  0.4424  0.6861
24768SOL    HW175745   5.392   5.448   8.195 -1.1757 -1.0315  0.4718
24768SOL    HW275746   5.411   5.340   8.299  0.3890  0.6195  1.9663
24769SOL     OW75747   0.146   2.650   4.858  0.2255  0.0562  0.0667
24769SOL    HW175748   0.157   2.620   4.948  0.4097  0.8078  0.2959
24769SOL    HW275749   0.235   2.665   4.826  0.1497  0.0422 -0.1552
24770SOL     OW75750   0.035   6.649   9.681  0.0709  0.0208  0.4725
24770SOL    HW175751   0.054   6.586   9.751  0.2592 -0.8598 -0.3461
24770SOL    HW275752  -0.037   6.701   9.715 -0.1707 -0.7137  1.1359
24771SOL     OW75753   2.802   6.422   2.590 -0.3200 -0.2160 -0.2103
24771SOL    HW175754   2.873   6.485   2.572 -0.8158  0.5194  0.3206
24771SOL    HW275755   2.753   6.463   2.661  0.1926 -1.9006  1.1717
24772SOL     OW75756   0.510   0.030   8.169 -0.2638  0.6106  0.0788
24772SOL    HW175757   0.557   0.113   8.170  0.2040  0.4670 -2.7003
24772SOL    HW275758   0.424   0.051   8.133  0.3489 -0.2473 -2.0298
24773SOL     OW75759   6.038   6.854   1.157  0.2192 -0.5058  0.5104
24773SOL    HW175760   5.957   6.905   1.164  0.3961 -0.2375  0.6244
24773SOL    HW275761   6.009   6.766   1.132  0.0195  0.0363 -1.3243
24774SOL     OW75762   7.085   7.576   6.845  0.8845 -0.3446  0.9796
24774SOL    HW175763   7.122   7.656   6.881 -0.2382  1.5033 -1.6565
24774SOL    HW275764   7.149   7.546   6.781 -0.2924  0.6350 -0.7339
24775SOL     OW75765   5.659   5.175  10.695 -0.0389  0.0420  0.0895
24775SOL    HW175766   5.675   5.101  10.636  1.6112 -0.2560  0.8493
24775SOL    HW275767   5.627   5.244  10.638  2.0312 -0.0448 -1.3039
24776SOL     OW75768   2.627   4.399  11.124  0.2405  0.1835 -0.0124
24776SOL    HW175769   2.703   4.366  11.172  0.1743  2.6361  1.9692
24776SOL    HW275770   2.557   4.404  11.189 -0.7023  0.9541 -1.0405
24777SOL     OW75771   7.313   0.226   3.440  0.3229  0.0033 -0.2132
24777SOL    HW175772   7.259   0.159   3.398 -0.0992 -0.0918  0.4725
24777SOL    HW275773   7.287   0.224   3.532  1.2777  0.1711  0.0724
24778SOL     OW75774   5.169   6.477  10.785  0.2683  0.0814  0.0037
24778SOL    HW175775   5.148   6.384  10.776  2.2657 -0.4840  0.6319
24778SOL    HW275776   5.109   6.509  10.852  0.3473 -1.0507  0.6274
24779SOL     OW75777   6.768   4.327   8.486 -0.6822  0.1410 -0.1290
24779SOL    HW175778   6.809   4.354   8.568 -1.4542 -0.9355  0.6504
24779SOL    HW275779   6.674   4.327   8.506 -0.7665 -3.5896  0.2000
24780SOL     OW75780   1.392   6.945   2.109 -0.0546  0.1883 -0.3042
24780SOL    HW175781   1.435   6.891   2.175 -0.5774 -0.3812 -0.4168
24780SOL    HW275782   1.305   6.963   2.145 -0.4661 -0.4087 -0.9690
24781SOL     OW75783   4.091   2.902   2.421 -0.5926  0.3612  0.1599
24781SOL    HW175784   4.133   2.890   2.336 -0.0756 -1.2630  0.6163
24781SOL    HW275785   4.143   2.970   2.464 -0.2101  0.4309 -0.4003
24782SOL     OW75786   3.402   1.101   6.955 -0.6958  0.1798 -0.1873
24782SOL    HW175787   3.425   1.194   6.954 -0.1387  0.0723  1.1156
24782SOL    HW275788   3.309   1.100   6.978  0.1195  0.3741  3.9486
24783SOL     OW75789   6.708   1.135   3.517 -0.1628 -0.0509  0.0024
24783SOL    HW175790   6.619   1.111   3.490 -0.6164  0.7390  0.7228
24783SOL    HW275791   6.698   1.222   3.557  1.0039  0.2162 -0.2509
24784SOL     OW75792   4.207   0.581   9.168 -0.3305  0.2376 -0.5356
24784SOL    HW175793   4.226   0.571   9.261  3.1957 -1.5015 -1.2306
24784SOL    HW275794   4.139   0.647   9.163  0.4029  1.4762  3.1990
24785SOL     OW75795   5.079   0.731   6.104  0.5095 -0.4858 -0.4736
24785SOL    HW175796   4.996   0.763   6.067  0.3793 -0.4008 -0.1037
24785SOL    HW275797   5.055   0.652   6.152  0.5511 -0.1504  0.1080
24786SOL     OW75798   1.822   1.873   6.570  0.5002  0.1555 -0.5635
24786SOL    HW175799   1.778   1.950   6.536 -0.4869  0.1604  0.6615
24786SOL    HW275800   1.759   1.834   6.631  1.4761 -0.8866 -0.1873
24787SOL     OW75801   1.333   3.927   7.172  0.4648  1.0141 -0.0189
24787SOL    HW175802   1.277   3.855   7.201  0.9015  1.0214  0.8953
24787SOL    HW275803   1.322   3.995   7.239  2.4980  0.5311  0.8812
24788SOL     OW75804   1.320   2.678  10.643  0.0737  0.2813 -0.2759
24788SOL    HW175805   1.351   2.617  10.576 -0.8816  2.0889 -2.5144
24788SOL    HW275806   1.295   2.756  10.594 -2.5921  1.0120  1.9726
24789SOL     OW75807   4.058   7.112   9.563 -0.7104  0.0274 -0.3573
24789SOL    HW175808   4.093   7.162   9.636  0.5582  0.3175 -1.1349
24789SOL    HW275809   3.969   7.090   9.590 -0.5080  0.7146  0.9721
24790SOL     OW75810   4.268   2.113  11.947  0.3087  0.7069 -0.0341
24790SOL    HW175811   4.212   2.104  11.870  0.4115  0.8802 -0.1295
24790SOL    HW275812   4.354   2.082  11.918 -0.1091 -1.1627  0.5787
24791SOL     OW75813   0.846   5.686  11.021 -0.1515  0.5144  0.0152
24791SOL    HW175814   0.890   5.654  11.100  0.2408 -0.4251 -0.5673
24791SOL    HW275815   0.778   5.745  11.054  0.3109  0.4990  1.0287
24792SOL     OW75816   6.520   0.943   6.195 -0.0345  0.3442  0.0066
24792SOL    HW175817   6.568   0.996   6.131  0.1255  1.0150  0.6642
24792SOL    HW275818   6.443   0.913   6.148  0.3586  0.3645 -0.6707
24793SOL     OW75819   6.891   3.965  12.184  0.1147  0.0119 -0.0119
24793SOL    HW175820   6.963   4.000  12.131  0.6548 -0.7915  0.1767
24793SOL    HW275821   6.905   4.004  12.270  0.0846  0.1740 -0.0789
24794SOL     OW75822   3.377   7.385   0.355  0.0201 -0.1534 -0.4716
24794SOL    HW175823   3.320   7.347   0.289  0.4289 -0.9530 -0.3800
24794SOL    HW275824   3.448   7.426   0.306 -0.4422  0.5407 -0.5722
24795SOL     OW75825   7.444   3.647   5.912 -0.2505 -0.3361 -0.2698
24795SOL    HW175826   7.379   3.710   5.883  0.5469  1.1020  0.9324
24795SOL    HW275827   7.501   3.696   5.972  1.8460 -1.5552 -1.1413
24796SOL     OW75828   5.040   6.662   1.900 -0.6359  0.3782 -0.1641
24796SOL    HW175829   4.973   6.605   1.938  0.3956 -0.8249 -0.0706
24796SOL    HW275830   5.074   6.612   1.826  1.1364  0.3062  0.6504
24797SOL     OW75831   5.543   1.220   0.507 -0.3267 -0.3393  0.0265
24797SOL    HW175832   5.499   1.164   0.443 -0.7374 -0.4217  0.3762
24797SOL    HW275833   5.474   1.245   0.569 -0.2225  0.8179 -0.2976
24798SOL     OW75834   1.887   6.681   5.419 -0.6573 -0.6629 -0.3315
24798SOL    HW175835   1.886   6.639   5.333  1.9497 -0.5972 -0.4749
24798SOL    HW275836   1.936   6.762   5.406 -1.0538 -0.1716  1.0434
24799SOL     OW75837   0.674   7.177  11.803  0.1580  0.1914 -0.3449
24799SOL    HW175838   0.746   7.148  11.859  0.7173 -1.3866 -1.7953
24799SOL    HW275839   0.597   7.133  11.838  0.1408  0.7646  0.3532
24800SOL     OW75840   5.413   7.473   8.460 -0.2539 -0.1316  0.0047
24800SOL    HW175841   5.418   7.564   8.487  0.0876  0.3325 -1.5190
24800SOL    HW275842   5.336   7.438   8.505 -0.3810  0.8978  0.6062
24801SOL     OW75843   1.236   3.066  10.790  0.0139 -0.1717  0.0797
24801SOL    HW175844   1.196   3.153  10.790  1.1194  0.4063 -2.1246
24801SOL    HW275845   1.173   3.011  10.743  0.0262 -0.1944  0.0902
24802SOL     OW75846   7.815   7.696   4.627  0.1143 -0.0973  0.2359
24802SOL    HW175847   7.739   7.715   4.572 -0.0501 -0.6729  0.2610
24802SOL    HW275848   7.868   7.636   4.576  0.9671  0.9167 -0.1167
24803SOL     OW75849   6.816   4.716   1.356  0.7131  0.0834  0.2763
24803SOL    HW175850   6.722   4.725   1.339  0.0183 -1.6647  2.5706
24803SOL    HW275851   6.833   4.777   1.428  1.4176  0.5642 -0.2814
24804SOL     OW75852   5.841   1.629   2.393 -0.9365 -0.1853 -0.0201
24804SOL    HW175853   5.834   1.712   2.346  2.0354  1.1190  1.5507
24804SOL    HW275854   5.857   1.564   2.324  3.1494  1.6449 -1.0971
24805SOL     OW75855   5.506   0.705   1.086  0.2688  0.1051  0.0464
24805SOL    HW175856   5.424   0.663   1.058  0.2402  0.2056 -0.0230
24805SOL    HW275857   5.521   0.773   1.021  0.4548  0.0299  0.0120
24806SOL     OW75858   5.676   5.655   6.544  0.4695  0.0153 -0.0817
24806SOL    HW175859   5.694   5.672   6.636  2.1782 -1.7763 -0.0299
24806SOL    HW275860   5.719   5.727   6.497 -1.7796  1.8599  0.4944
24807SOL     OW75861   7.341   0.073   2.108 -0.0350 -0.0509 -0.0977
24807SOL    HW175862   7.350   0.160   2.147  0.6356 -0.4637  0.7000
24807SOL    HW275863   7.365   0.086   2.016  0.0379  0.6036  0.0036
24808SOL     OW75864   2.863   3.255   8.158  0.9135 -0.2052 -0.6747
24808SOL    HW175865   2.808   3.176   8.166 -0.1416  0.5969  0.3880
24808SOL    HW275866   2.934   3.229   8.099 -0.0895 -1.5760 -1.3438
24809SOL     OW75867   1.346   0.517  12.244  0.0467  0.0790  0.3009
24809SOL    HW175868   1.359   0.443  12.185  2.0399  0.0513  0.7152
24809SOL    HW275869   1.345   0.594  12.187 -2.5729 -0.2253 -0.1920
24810SOL     OW75870   4.370   5.798   8.513 -0.0895  0.2046  0.2285
24810SOL    HW175871   4.434   5.869   8.512  2.3120 -1.8337  0.4062
24810SOL    HW275872   4.398   5.741   8.585 -1.0546 -1.6415 -0.7740
24811SOL     OW75873   1.353   4.226  11.257  0.2117  0.1310 -0.6074
24811SOL    HW175874   1.409   4.285  11.308  0.7173 -0.3299 -0.6300
24811SOL    HW275875   1.411   4.155  11.229 -0.2979 -0.1579 -0.9464
24812SOL     OW75876   3.011   1.945   2.319  0.0125  0.7289  0.5087
24812SOL    HW175877   3.029   1.989   2.402 -0.3506  1.4112  0.2265
24812SOL    HW275878   3.095   1.946   2.274  0.1373  0.6304  0.7336
24813SOL     OW75879   6.309   7.795  12.302 -0.4092 -0.0896 -0.2871
24813SOL    HW175880   6.310   7.807  12.207 -3.4304 -1.0808 -0.5640
24813SOL    HW275881   6.300   7.701  12.314  0.7010 -0.0486  1.0378
24814SOL     OW75882   7.750   3.226  11.363 -0.1195  0.0874 -0.4898
24814SOL    HW175883   7.800   3.158  11.409 -0.5596  0.1440  0.0781
24814SOL    HW275884   7.740   3.193  11.274 -0.5777 -0.7263 -0.1449
24815SOL     OW75885   6.713   3.450   9.112  0.5914 -0.1623  0.1750
24815SOL    HW175886   6.634   3.423   9.158  0.3142  1.4692  0.7163
24815SOL    HW275887   6.696   3.429   9.020 -0.1998 -0.4260  0.3754
24816SOL     OW75888   4.830   0.600   9.368  0.2201  0.1004  0.0918
24816SOL    HW175889   4.899   0.555   9.319  1.2259  1.2747  0.3643
24816SOL    HW275890   4.752   0.590   9.314  0.9242 -0.0649 -0.9348
24817SOL     OW75891   3.030   1.893   7.387 -0.0123  0.2629  0.4637
24817SOL    HW175892   3.116   1.878   7.348 -0.3259  0.6404 -0.3968
24817SOL    HW275893   2.992   1.964   7.335 -1.1108 -0.3498  0.4057
24818SOL     OW75894   4.367   2.124   8.571 -0.2872  0.5569  0.0756
24818SOL    HW175895   4.329   2.128   8.658  0.3968 -0.7690  0.4663
24818SOL    HW275896   4.296   2.092   8.515 -0.3590  0.1254  0.4056
24819SOL     OW75897   6.129   7.399   7.894  0.4359  0.5756 -0.2994
24819SOL    HW175898   6.129   7.480   7.844  3.1740  0.0091 -1.4247
24819SOL    HW275899   6.063   7.344   7.851  1.6796  0.6484 -2.4674
24820SOL     OW75900   0.870   5.851   9.979 -0.1141  0.1799 -0.1817
24820SOL    HW175901   0.836   5.827  10.065  0.5128 -0.1173 -0.0111
24820SOL    HW275902   0.965   5.854   9.991  0.1154 -1.4959 -1.2456
24821SOL     OW75903   1.208   7.866   9.186 -0.4656 -0.5653 -0.6508
24821SOL    HW175904   1.223   7.847   9.094  0.8115  3.0886 -1.3743
24821SOL    HW275905   1.295   7.859   9.226 -0.7316 -0.5760 -0.0677
24822SOL     OW75906   7.276   2.962   9.790  0.3312  0.6053 -0.0762
24822SOL    HW175907   7.314   3.045   9.820  2.4308  0.3860 -1.8352
24822SOL    HW275908   7.263   2.975   9.696  0.5560 -0.9827 -0.3560
24823SOL     OW75909   6.307   3.522   2.400 -0.2090 -0.1801 -0.1537
24823SOL    HW175910   6.219   3.486   2.406  0.8191 -2.8411  0.4363
24823SOL    HW275911   6.325   3.558   2.487 -0.5126 -0.0697 -0.1349
24824SOL     OW75912   2.228   6.441   3.889 -0.0303 -0.0097  0.0116
24824SOL    HW175913   2.139   6.409   3.905 -0.3283  0.6768 -0.2298
24824SOL    HW275914   2.283   6.362   3.891 -0.9868 -0.8540 -2.4355
24825SOL     OW75915   3.809   1.457   3.716  0.2999  0.2745 -0.8161
24825SOL    HW175916   3.825   1.524   3.650 -0.5685  0.1605 -1.1622
24825SOL    HW275917   3.749   1.500   3.778 -1.2849 -0.5436 -1.7094
24826SOL     OW75918   1.537   5.906   0.749  0.0902 -0.5814  0.5817
24826SOL    HW175919   1.456   5.896   0.799 -0.7330 -0.3751 -0.6575
24826SOL    HW275920   1.525   5.987   0.699  0.2375 -1.5181 -1.0474
24827SOL     OW75921   5.942   6.785   7.785  0.3749  0.4195 -0.4027
24827SOL    HW175922   5.855   6.817   7.806  0.3921  0.7892 -0.8805
24827SOL    HW275923   5.942   6.777   7.689  0.2927 -1.2149 -0.2963
24828SOL     OW75924   4.229   5.027   4.964 -0.1803 -0.6579 -0.1845
24828SOL    HW175925   4.175   4.950   4.981 -1.0310  0.1830  1.1328
24828SOL    HW275926   4.183   5.099   5.007  0.5046  0.6349 -1.5290
24829SOL     OW75927   7.768   1.447   8.213  0.1153  0.4841  0.3412
24829SOL    HW175928   7.710   1.510   8.254 -1.4369 -0.5396 -0.2075
24829SOL    HW275929   7.710   1.387   8.166  1.6615 -0.0077 -1.0482
24830SOL     OW75930   3.468   5.407  11.606 -0.7196  0.0713  0.2037
24830SOL    HW175931   3.542   5.397  11.547 -0.6889  1.7773 -0.0935
24830SOL    HW275932   3.487   5.348  11.679  0.1243 -0.7028 -0.6157
24831SOL     OW75933   0.791   6.306   3.078 -0.2456 -0.4186 -0.4759
24831SOL    HW175934   0.801   6.366   3.004  1.6505  0.7097  0.6312
24831SOL    HW275935   0.739   6.354   3.142  1.0011 -0.0641  0.2840
24832SOL     OW75936   4.747   6.239  10.534 -0.1159  0.0285 -0.4944
24832SOL    HW175937   4.814   6.248  10.466 -1.1567 -0.9195 -1.6831
24832SOL    HW275938   4.664   6.253  10.489 -0.7956  0.3052  0.7750
24833SOL     OW75939   3.623   3.704   0.258  1.0039  0.3082  0.5127
24833SOL    HW175940   3.700   3.760   0.254  0.4008  1.0974 -0.4394
24833SOL    HW275941   3.635   3.641   0.187  1.9272 -1.1491  1.8941
24834SOL     OW75942   3.212   7.250   8.821  0.6189 -0.1673 -0.2627
24834SOL    HW175943   3.185   7.163   8.851  0.0915 -0.4232 -1.4349
24834SOL    HW275944   3.303   7.239   8.793  0.5163 -0.3791 -0.5205
24835SOL     OW75945   1.934   5.376   3.688 -0.7414  0.3089 -0.2800
24835SOL    HW175946   1.870   5.421   3.633 -1.7745  0.2182  0.8091
24835SOL    HW275947   1.884   5.309   3.733 -0.0907  0.8569  1.3316
24836SOL     OW75948   7.314   2.150   1.551 -0.0105  0.2663  0.3668
24836SOL    HW175949   7.364   2.219   1.595  0.1284 -0.4390  1.3597
24836SOL    HW275950   7.227   2.187   1.539  1.0696  2.1929 -2.9603
24837SOL     OW75951   2.953   7.379   6.516  0.3305  0.4970  0.8356
24837SOL    HW175952   2.942   7.290   6.482  2.7116 -1.1236  3.7043
24837SOL    HW275953   2.999   7.426   6.447  0.8225 -1.1563 -0.0159
24838SOL     OW75954   4.475   2.103   2.180  0.4990 -0.0973  0.6152
24838SOL    HW175955   4.497   2.030   2.237  0.2714  0.4718  1.4544
24838SOL    HW275956   4.397   2.074   2.132 -0.5299  0.1485  2.0747
24839SOL     OW75957   3.754   5.576  10.439 -0.6022  0.4926  0.2703
24839SOL    HW175958   3.721   5.510  10.500  0.7173  1.1704  1.7809
24839SOL    HW275959   3.739   5.537  10.352 -1.9766 -0.7502  1.0185
24840SOL     OW75960   6.212   3.986   3.952  0.3200 -0.5299  0.0894
24840SOL    HW175961   6.118   3.993   3.967  0.3996 -1.2495  0.9802
24840SOL    HW275962   6.247   3.944   4.031  1.2074 -1.5258 -0.7921
24841SOL     OW75963   7.500   4.169   5.873 -0.4476 -0.3495  0.9117
24841SOL    HW175964   7.544   4.254   5.872 -0.6246 -0.2563  0.1736
24841SOL    HW275965   7.443   4.172   5.796 -0.0328 -1.3603  0.5577
24842SOL     OW75966   1.895   5.645   7.442  0.4765 -0.1661  0.6621
24842SOL    HW175967   1.872   5.575   7.502  0.6278  0.0551  0.9791
24842SOL    HW275968   1.822   5.706   7.447  1.6086  1.1268  2.5589
24843SOL     OW75969   1.774   6.044  12.029 -0.2406 -0.1086 -0.0196
24843SOL    HW175970   1.693   6.073  11.986 -0.6545 -1.3399 -0.1164
24843SOL    HW275971   1.768   5.948  12.027  0.9746 -0.2000  0.4549
24844SOL     OW75972   5.885   2.016   9.849  0.3959 -0.9067  0.6332
24844SOL    HW175973   5.901   1.928   9.815 -0.8632 -1.0972  0.4652
24844SOL    HW275974   5.797   2.038   9.817 -0.2782 -0.5444  2.6064
24845SOL     OW75975   2.413   4.422   4.367  0.2020 -0.1220 -0.0969
24845SOL    HW175976   2.500   4.461   4.379 -0.2469  0.7845  0.2897
24845SOL    HW275977   2.425   4.330   4.390  0.8981  0.1519  0.6665
24846SOL     OW75978   7.417   2.773   6.122  0.0136  0.7562  0.1504
24846SOL    HW175979   7.341   2.724   6.090  0.7329 -0.1792 -0.1798
24846SOL    HW275980   7.478   2.771   6.049  0.6033  0.9432  0.6346
24847SOL     OW75981   5.067   4.756   6.694 -0.5391  0.4236 -0.7587
24847SOL    HW175982   5.064   4.783   6.785 -1.1008  0.9233 -0.9187
24847SOL    HW275983   4.977   4.768   6.662 -0.1829  0.9827 -1.5856
24848SOL     OW75984   4.864   2.207   5.484  0.0994  0.8206  0.4398
24848SOL    HW175985   4.925   2.194   5.411 -0.8511  0.5713 -0.3382
24848SOL    HW275986   4.814   2.125   5.487  0.3573  0.6872  1.6125
24849SOL     OW75987   0.877   4.685  11.891  0.1246  0.1807  0.1525
24849SOL    HW175988   0.968   4.701  11.863 -0.1621  0.3175 -0.7161
24849SOL    HW275989   0.838   4.772  11.896 -0.3215  0.0421 -0.7492
24850SOL     OW75990   4.453   2.269   3.931  0.1440  0.0645 -0.0323
24850SOL    HW175991   4.470   2.351   3.976 -1.5358 -0.3553  1.4962
24850SOL    HW275992   4.443   2.294   3.839 -1.7045  1.8345  0.5746
24851SOL     OW75993   0.592   3.050   1.127  0.2103  0.0147 -0.1979
24851SOL    HW175994   0.510   3.061   1.176  0.5872  1.8804  0.1086
24851SOL    HW275995   0.595   3.126   1.068  2.1211  0.4948  0.4456
24852SOL     OW75996   6.202   0.586   9.443 -0.7773  0.7043  0.2867
24852SOL    HW175997   6.228   0.541   9.524 -1.4203  0.1577  0.2070
24852SOL    HW275998   6.195   0.678   9.468  0.6659  0.7945  0.4317
24853SOL     OW75999   2.669   5.176   4.934 -0.0045 -0.4814 -0.6893
24853SOL    HW176000   2.755   5.189   4.973  0.2312 -0.4552 -1.2038
24853SOL    HW276001   2.622   5.120   4.996  0.3878 -0.5032 -0.4109
24854SOL     OW76002   5.458   1.162  11.254 -0.3953 -0.5203  0.4849
24854SOL    HW176003   5.380   1.216  11.254 -1.5328 -2.0853  1.4071
24854SOL    HW276004   5.453   1.112  11.336  2.6270  0.7559  1.6125
24855SOL     OW76005   0.621   3.759   4.767 -0.1395 -0.1060 -0.3566
24855SOL    HW176006   0.700   3.751   4.714 -1.3145 -0.8156 -2.0994
24855SOL    HW276007   0.628   3.688   4.831  0.1853 -0.8121 -1.1456
24856SOL     OW76008   3.598   1.577  10.540 -0.1888 -0.1741  0.3281
24856SOL    HW176009   3.550   1.498  10.515  0.3196 -0.7096  0.9841
24856SOL    HW276010   3.635   1.610  10.458  0.2273 -1.0518  0.1464
24857SOL     OW76011   7.902   5.360   6.898  0.6902  0.3193  0.2807
24857SOL    HW176012   7.883   5.421   6.827 -0.5127  0.0181  0.3191
24857SOL    HW276013   7.828   5.369   6.958  2.2658  1.4604  2.1464
24858SOL     OW76014   4.073   6.797   0.031  0.0605 -0.1046 -0.2629
24858SOL    HW176015   3.993   6.784  -0.020  0.5084  0.3296 -1.0854
24858SOL    HW276016   4.041   6.822   0.118 -0.7038 -0.0437 -0.5502
24859SOL     OW76017   4.062   2.584   1.126 -0.4387 -0.2158  0.2482
24859SOL    HW176018   4.027   2.532   1.199 -0.7800  0.2310  0.4050
24859SOL    HW276019   3.985   2.604   1.072 -0.6593  1.7589  1.2008
24860SOL     OW76020   5.748   0.081  10.771 -0.0673  0.5383 -0.1321
24860SOL    HW176021   5.655   0.105  10.770 -0.0045  0.7834 -0.0799
24860SOL    HW276022   5.748  -0.015  10.763 -0.3332  0.5156  0.1306
24861SOL     OW76023   3.610   2.014  11.031 -0.3000  0.3768  0.0705
24861SOL    HW176024   3.621   1.977  11.119 -0.0436  0.1244 -0.0656
24861SOL    HW276025   3.698   2.043  11.006 -0.2725  0.0034 -0.2951
24862SOL     OW76026   0.474   1.516   3.380  0.0250 -0.2325  0.0025
24862SOL    HW176027   0.488   1.434   3.332 -1.1370  0.6154 -1.8803
24862SOL    HW276028   0.380   1.529   3.377  0.3095  1.9226 -1.0570
24863SOL     OW76029   6.730   6.169  12.082  0.4744 -0.0229 -0.1422
24863SOL    HW176030   6.746   6.231  12.011 -0.6533  0.0513 -0.3483
24863SOL    HW276031   6.742   6.220  12.162  2.9979 -0.4035 -0.1969
24864SOL     OW76032   2.646   4.632   1.011  0.2839 -0.3482  0.5618
24864SOL    HW176033   2.692   4.714   0.994 -0.0537 -0.3034 -0.1937
24864SOL    HW276034   2.713   4.564   1.004  0.4984 -0.1698  0.8568
24865SOL     OW76035   5.393   1.328   1.518  0.2512  0.5073  0.0952
24865SOL    HW176036   5.461   1.279   1.472  0.2763 -0.8713  1.4771
24865SOL    HW276037   5.392   1.414   1.477  2.4339  0.3873 -0.3389
24866SOL     OW76038   6.727   1.102   9.913 -0.1206 -0.2734 -0.1475
24866SOL    HW176039   6.646   1.062   9.881 -0.5598  0.4719  0.0055
24866SOL    HW276040   6.701   1.151   9.990  0.5455 -0.3051  0.1016
24867SOL     OW76041   2.004   0.802   5.543 -0.5304  0.0502  0.0537
24867SOL    HW176042   2.017   0.707   5.545 -0.0833  0.1213  0.5327
24867SOL    HW276043   2.087   0.839   5.571 -0.6930  0.5916 -0.1524
24868SOL     OW76044   2.788   2.760   4.126 -0.1329  0.5175 -0.2365
24868SOL    HW176045   2.857   2.723   4.072 -0.9674  0.7223 -1.4709
24868SOL    HW276046   2.818   2.746   4.216  2.4866  2.3755 -0.7030
24869SOL     OW76047   0.057   4.268   5.257  0.2749 -0.2324 -0.1860
24869SOL    HW176048  -0.023   4.252   5.207 -0.0806  0.0238  0.2971
24869SOL    HW276049   0.029   4.270   5.348  0.3881  2.5053 -0.1435
24870SOL     OW76050   5.608   5.411  10.580  0.2586  0.1023 -0.1844
24870SOL    HW176051   5.646   5.474  10.641  1.3516 -0.6720 -0.0330
24870SOL    HW276052   5.597   5.459  10.498 -0.4919  0.9360  0.3884
24871SOL     OW76053   1.545   5.182   7.325  0.4377 -0.1361 -0.1752
24871SOL    HW176054   1.594   5.263   7.312  1.3624 -0.6780 -0.1410
24871SOL    HW276055   1.606   5.123   7.368  0.0258 -1.1074 -0.8749
24872SOL     OW76056   5.094   3.573   5.178  0.5631 -0.1935  0.5190
24872SOL    HW176057   5.165   3.599   5.236  1.2586  2.0595 -1.1787
24872SOL    HW276058   5.123   3.601   5.091 -2.2294  0.4784 -0.2893
24873SOL     OW76059   3.392   5.713   3.091  0.5085  0.1935  0.3944
24873SOL    HW176060   3.365   5.704   3.183 -0.5732 -1.5818 -0.0424
24873SOL    HW276061   3.326   5.769   3.051  0.7545  0.6362  0.6050
24874SOL     OW76062   5.872   7.604   6.296  0.0520  0.3237  0.3315
24874SOL    HW176063   5.958   7.615   6.254 -0.2146  0.0426 -0.2923
24874SOL    HW276064   5.832   7.530   6.249 -0.0705 -0.2855  1.3680
24875SOL     OW76065   2.056   4.308   7.358  0.2806 -0.1309 -0.1722
24875SOL    HW176066   2.140   4.263   7.364  0.0051 -0.7061 -0.4638
24875SOL    HW276067   2.022   4.284   7.271  0.0453  0.5090 -0.2643
24876SOL     OW76068   4.298   3.085   0.867 -0.4918 -0.1627  0.6043
24876SOL    HW176069   4.317   3.162   0.812 -1.0908 -1.5277 -1.6203
24876SOL    HW276070   4.379   3.072   0.918  0.5941  0.3897 -0.9117
24877SOL     OW76071   0.960   7.711   6.701  0.2503 -0.1637  0.0837
24877SOL    HW176072   0.923   7.671   6.622  0.6040  0.8658 -0.6210
24877SOL    HW276073   0.925   7.658   6.773 -0.5123 -0.7889 -0.7233
24878SOL     OW76074   6.807   3.982   6.915 -0.3752  0.1080 -0.0332
24878SOL    HW176075   6.874   3.921   6.883 -0.9347 -0.8973  0.6453
24878SOL    HW276076   6.857   4.057   6.947  0.3196  0.1059 -1.0644
24879SOL     OW76077   7.606   4.848   0.984 -0.5773  0.6445  0.6454
24879SOL    HW176078   7.618   4.799   0.902  0.8716  0.6253  0.8431
24879SOL    HW276079   7.557   4.789   1.041  2.0688 -1.1152  1.2751
24880SOL     OW76080   7.783   1.076   9.619  0.2235  0.2169  0.2098
24880SOL    HW176081   7.821   0.997   9.655  0.6153 -0.0681 -0.8070
24880SOL    HW276082   7.795   1.068   9.524 -1.3874  0.6222 -0.0607
24881SOL     OW76083   3.232   5.384   8.026  0.0469  0.0271 -0.4782
24881SOL    HW176084   3.324   5.360   8.017  0.3521  1.2744 -0.9592
24881SOL    HW276085   3.214   5.374   8.119  1.1383  1.2746 -0.1013
24882SOL     OW76086   6.415   6.314   0.476  0.2948 -0.4428  0.7476
24882SOL    HW176087   6.410   6.278   0.388  0.6385 -0.3220  0.6761
24882SOL    HW276088   6.508   6.334   0.488  0.0381  0.9183  0.5913
24883SOL     OW76089   6.930   0.769   5.198  0.2648  0.9295 -0.6329
24883SOL    HW176090   6.940   0.787   5.291 -2.8515 -0.5798  0.1328
24883SOL    HW276091   6.898   0.852   5.161  0.9254  1.3499 -0.3001
24884SOL     OW76092   1.721   1.430   2.139 -0.3350  0.7478 -0.0074
24884SOL    HW176093   1.634   1.452   2.172 -0.4489 -1.2184  1.1609
24884SOL    HW276094   1.739   1.343   2.174  1.1775  0.1374 -2.1030
24885SOL     OW76095   3.448   7.829   7.957  0.1577 -0.1119  0.0411
24885SOL    HW176096   3.454   7.755   7.897 -1.8558 -1.0435  0.8828
24885SOL    HW276097   3.463   7.906   7.903  1.3788 -1.0555 -1.0386
24886SOL     OW76098   5.944   5.621  12.095  0.9404  0.3346  0.0059
24886SOL    HW176099   5.989   5.703  12.073  0.0866  1.0766  0.9021
24886SOL    HW276100   5.988   5.591  12.175  2.0096 -0.7074 -0.9560
24887SOL     OW76101   4.254   3.847   8.498  0.6726  0.5037  0.5965
24887SOL    HW176102   4.306   3.770   8.519 -0.3648 -0.1218  0.9295
24887SOL    HW276103   4.290   3.880   8.416  2.2632  0.7022  1.3357
24888SOL     OW76104   2.464   4.994   1.194  0.8815  0.3313  0.3871
24888SOL    HW176105   2.536   4.953   1.146  1.4421  0.5182  1.0547
24888SOL    HW276106   2.395   4.928   1.194  1.5049 -0.3287  0.8101
24889SOL     OW76107   1.135   3.218   3.854  0.4876  0.2644 -0.7246
24889SOL    HW176108   1.177   3.160   3.917 -0.1698  0.5812  0.0160
24889SOL    HW276109   1.106   3.160   3.784  1.4893 -0.0520 -0.9035
24890SOL     OW76110   2.475   6.711   6.531  0.4387  0.3076 -0.1863
24890SOL    HW176111   2.387   6.730   6.500  1.1898  3.4828 -0.7207
24890SOL    HW276112   2.511   6.652   6.465 -0.2876  1.4750 -1.6947
24891SOL     OW76113   4.506   6.278   8.890  0.1454 -0.2807 -0.1970
24891SOL    HW176114   4.570   6.220   8.848 -0.2708 -0.9866  0.1279
24891SOL    HW276115   4.436   6.220   8.919 -0.3172  0.3978  0.0754
24892SOL     OW76116   4.709   3.124  10.722  0.0997 -0.0604  0.0595
24892SOL    HW176117   4.710   3.036  10.683  1.1549 -0.8462  1.7016
24892SOL    HW276118   4.622   3.131  10.762 -1.0919  0.8624 -2.5097
24893SOL     OW76119   2.585   2.844   4.355 -0.2904 -0.2496 -0.1313
24893SOL    HW176120   2.554   2.754   4.368 -0.3842 -0.1538  0.3437
24893SOL    HW276121   2.678   2.841   4.379 -0.2442 -0.2632 -0.3119
24894SOL     OW76122   6.316   2.359   5.054 -0.1185 -0.5366  0.2650
24894SOL    HW176123   6.361   2.321   5.129 -0.0659 -0.3270  0.3371
24894SOL    HW276124   6.353   2.446   5.044 -2.0758  0.5220  1.7160
24895SOL     OW76125   7.067   5.279   2.724 -0.0431 -0.1073  0.2028
24895SOL    HW176126   7.131   5.346   2.698  1.4181 -1.5552 -0.0862
24895SOL    HW276127   7.062   5.287   2.820  1.0374 -0.3476  0.2941
24896SOL     OW76128   2.346   7.278   7.511 -0.4537 -0.5310 -0.0750
24896SOL    HW176129   2.272   7.287   7.571 -1.1582  0.2039 -1.0182
24896SOL    HW276130   2.423   7.285   7.567 -1.0516  2.1579  0.5779
24897SOL     OW76131   5.540   6.852   8.839 -0.4376 -0.1047  0.4709
24897SOL    HW176132   5.535   6.762   8.806 -1.1393 -0.0816  0.4874
24897SOL    HW276133   5.496   6.848   8.924 -0.2472  0.2064  0.5841
24898SOL     OW76134   3.270   6.767  11.816 -0.6200  0.6566  0.0520
24898SOL    HW176135   3.200   6.831  11.803  0.6266  1.8623 -1.0283
24898SOL    HW276136   3.348   6.810  11.782  0.4532 -1.0727  0.2259
24899SOL     OW76137   2.914   2.244   2.142  0.7437  0.4502 -0.9555
24899SOL    HW176138   2.904   2.339   2.145  0.2743  0.3969  1.6948
24899SOL    HW276139   2.855   2.212   2.210 -0.1864 -1.8835 -2.7348
24900SOL     OW76140   4.458   3.995   1.839  0.3078 -0.1584 -0.6992
24900SOL    HW176141   4.520   4.056   1.879  0.0288 -0.1207 -0.3103
24900SOL    HW276142   4.393   3.980   1.908  0.9425 -1.7360 -0.3936
24901SOL     OW76143   0.160   4.595  12.409 -0.0084  0.6872  0.0299
24901SOL    HW176144   0.141   4.513  12.456 -1.0469  0.1305 -1.3069
24901SOL    HW276145   0.129   4.579  12.320  1.5536  1.8698 -0.7511
24902SOL     OW76146   1.782   0.263  10.874  0.2430 -0.1451  0.6423
24902SOL    HW176147   1.849   0.275  10.807  1.0471  2.3723  1.7623
24902SOL    HW276148   1.726   0.341  10.866 -1.0629 -0.9700  1.3777
24903SOL     OW76149   1.917   7.496   1.315  0.2350 -0.5831 -0.3920
24903SOL    HW176150   1.823   7.492   1.301 -0.1714  2.2444  0.7525
24903SOL    HW276151   1.933   7.438   1.390 -1.4621  2.2544  2.4156
24904SOL     OW76152   6.417   0.862   9.197  0.6301 -0.1357  0.1866
24904SOL    HW176153   6.402   0.792   9.134 -0.6540  0.3278 -0.0466
24904SOL    HW276154   6.331   0.901   9.211  1.4404  2.0403 -0.4544
24905SOL     OW76155   4.898   6.832  12.138  0.1286 -0.6611 -0.2623
24905SOL    HW176156   4.970   6.847  12.078  0.1145 -1.0326 -0.3782
24905SOL    HW276157   4.901   6.905  12.200 -0.7345  0.5210 -1.5534
24906SOL     OW76158   7.865   0.369   4.104  0.0949  0.5365 -0.1119
24906SOL    HW176159   7.861   0.418   4.022 -3.2138  1.9845  0.7675
24906SOL    HW276160   7.786   0.394   4.151  0.1022 -2.8859  2.0578
24907SOL     OW76161   2.900   3.274   4.871 -1.0672  0.2974 -0.4270
24907SOL    HW176162   2.948   3.350   4.904  0.3133 -0.2217 -1.1673
24907SOL    HW276163   2.958   3.236   4.805 -0.2284 -3.2912  2.0954
24908SOL     OW76164   4.376   1.672  11.274  0.0824 -0.0845 -0.2563
24908SOL    HW176165   4.291   1.631  11.287 -0.5207  0.8806 -1.0773
24908SOL    HW276166   4.368   1.720  11.192  1.8159 -0.9923 -1.0229
24909SOL     OW76167   1.501   3.068   7.385  0.2203 -0.4875 -0.0600
24909SOL    HW176168   1.407   3.079   7.369  0.3115  0.6830  0.1069
24909SOL    HW276169   1.506   2.998   7.450 -0.5683 -0.3388  0.1761
24910SOL     OW76170   6.633   1.602   2.068 -0.4919  0.2065  0.0055
24910SOL    HW176171   6.636   1.687   2.111  0.3050 -0.0800  0.5437
24910SOL    HW276172   6.578   1.616   1.991  0.1490  1.3701 -0.2682
24911SOL     OW76173   7.911   3.810   3.347  0.5581  0.2039  0.0678
24911SOL    HW176174   7.936   3.762   3.268  0.7800 -0.3346  0.4566
24911SOL    HW276175   7.982   3.792   3.409 -0.2972 -0.5344  0.8590
24912SOL     OW76176   1.008   5.668   5.842 -0.1495 -0.6376  0.0384
24912SOL    HW176177   1.080   5.729   5.854 -1.2533  0.8316 -0.5694
24912SOL    HW276178   1.000   5.624   5.927 -0.8483  1.7730  1.3093
24913SOL     OW76179   6.184   4.031  10.447  0.3667  0.1952 -0.6328
24913SOL    HW176180   6.220   4.120  10.452 -0.6031  0.6092 -0.8184
24913SOL    HW276181   6.157   4.022  10.356 -0.0745 -0.0742 -0.4746
24914SOL     OW76182   2.754   3.692  10.411 -0.6941  0.0516 -0.0399
24914SOL    HW176183   2.741   3.713  10.504 -1.5948 -1.1885  0.1426
24914SOL    HW276184   2.848   3.678  10.403 -0.4536  1.3095  0.4261
24915SOL     OW76185   1.402   5.253   3.255  0.1820 -0.3222 -0.2135
24915SOL    HW176186   1.357   5.168   3.258 -1.2830  0.4164 -0.6941
24915SOL    HW276187   1.336   5.314   3.223  0.7252  1.3256  1.6196
24916SOL     OW76188   3.275   3.286   2.704 -1.0035 -0.0351  0.1414
24916SOL    HW176189   3.368   3.265   2.712 -0.6890  1.1833 -0.1092
24916SOL    HW276190   3.258   3.283   2.610 -1.5364 -1.4389  0.2477
24917SOL     OW76191   6.573   0.781   4.891  0.4731 -0.0579  0.0626
24917SOL    HW176192   6.611   0.864   4.861 -1.3475  0.4062 -1.1360
24917SOL    HW276193   6.576   0.724   4.814 -0.3184 -0.3418  0.2372
24918SOL     OW76194   6.517   6.457   6.984  0.0633 -0.6584 -0.2978
24918SOL    HW176195   6.524   6.376   6.934  0.8467 -0.9636  0.2975
24918SOL    HW276196   6.605   6.474   7.016 -0.5058 -0.8120  1.4910
24919SOL     OW76197   4.192   2.587   1.597 -0.0539 -0.3882 -0.2165
24919SOL    HW176198   4.160   2.539   1.520  1.9097 -1.5104 -0.3938
24919SOL    HW276199   4.268   2.635   1.565  0.3779 -0.3246  0.8716
24920SOL     OW76200   6.220   3.152   5.588  0.3441  0.3582  0.4588
24920SOL    HW176201   6.176   3.067   5.599  0.3019  0.3049 -0.1247
24920SOL    HW276202   6.148   3.215   5.581  0.3722  0.3881  0.4401
24921SOL     OW76203   5.694   3.323   3.022 -0.6317 -0.1436 -0.1597
24921SOL    HW176204   5.746   3.263   2.968 -1.8956 -0.5247 -0.9840
24921SOL    HW276205   5.759   3.367   3.077  0.4331 -1.5377 -0.2335
24922SOL     OW76206   6.142   1.692   7.414 -0.4147 -0.4932  0.0480
24922SOL    HW176207   6.098   1.639   7.347 -0.7125 -1.6230  1.1009
24922SOL    HW276208   6.235   1.673   7.401 -0.2563  0.9986 -1.4249
24923SOL     OW76209   3.725   4.537  11.623  0.2718 -0.0319 -0.2046
24923SOL    HW176210   3.811   4.560  11.588  0.4362  1.6789  1.1778
24923SOL    HW276211   3.664   4.596  11.579 -0.0826 -0.5965 -0.4909
24924SOL     OW76212   5.396   5.806   0.978  0.2224  0.8519  0.9501
24924SOL    HW176213   5.451   5.763   1.044  0.7127 -0.6558 -0.3823
24924SOL    HW276214   5.459   5.849   0.919 -0.1528  1.1301  0.7472
24925SOL     OW76215   2.414   6.990   2.857  0.0300  0.2048  0.0128
24925SOL    HW176216   2.414   7.005   2.762 -0.1476 -1.0658 -0.2138
24925SOL    HW276217   2.440   6.898   2.866  2.5078  0.9491  1.3305
24926SOL     OW76218   7.600   4.779   2.658  0.1775  0.2067  0.0055
24926SOL    HW176219   7.683   4.825   2.671 -0.4636  1.1666  0.9688
24926SOL    HW276220   7.625   4.690   2.635  1.4683  0.7257 -0.7044
24927SOL     OW76221   7.782   4.665   7.129 -0.3029 -0.0550 -0.2095
24927SOL    HW176222   7.781   4.651   7.224 -2.0064 -0.0465 -0.2009
24927SOL    HW276223   7.690   4.670   7.104  0.1100 -0.3302 -1.9184
24928SOL     OW76224   6.758   0.268  12.384 -0.0281  0.0885  0.3595
24928SOL    HW176225   6.772   0.316  12.303 -1.8566 -0.0984 -0.0947
24928SOL    HW276226   6.710   0.190  12.359  1.5459 -1.2453  1.3079
24929SOL     OW76227   1.793   5.499   9.355 -0.0297 -0.1823 -0.2843
24929SOL    HW176228   1.746   5.572   9.316 -0.2601 -0.4484 -0.5094
24929SOL    HW276229   1.877   5.536   9.383 -0.6992  0.4953  0.8886
24930SOL     OW76230   7.359   2.863  10.386 -0.0597  0.5398  0.1412
24930SOL    HW176231   7.313   2.910  10.455 -1.3641  0.6114 -0.7368
24930SOL    HW276232   7.446   2.847  10.422 -0.4050  1.3767  1.4341
24931SOL     OW76233   5.548   1.594  10.987 -0.3999  0.0907 -0.2461
24931SOL    HW176234   5.644   1.590  10.985 -0.4076  0.0903 -1.0315
24931SOL    HW276235   5.528   1.644  11.066  0.1508 -2.3054  1.5249
24932SOL     OW76236   4.780   5.454   8.304 -0.6066  0.0086 -0.4629
24932SOL    HW176237   4.835   5.402   8.362 -0.2466 -0.4170 -1.1706
24932SOL    HW276238   4.749   5.392   8.238  0.0989  0.7324 -1.5172
24933SOL     OW76239   6.930   2.375  11.348 -0.2801 -0.0717 -0.6100
24933SOL    HW176240   6.956   2.456  11.304 -1.4274 -0.5468 -2.2577
24933SOL    HW276241   6.963   2.305  11.292 -1.3392 -0.7088 -0.4665
24934SOL     OW76242   0.100   3.608   3.126 -0.1105 -0.2955 -0.4239
24934SOL    HW176243   0.186   3.566   3.128  0.2513  0.4559  0.0796
24934SOL    HW276244   0.118   3.699   3.103 -1.0522 -0.8081 -3.7845
24935SOL     OW76245   6.185   2.390   8.297  0.1813  0.1947 -0.4156
24935SOL    HW176246   6.092   2.375   8.277  0.2915 -1.4978  0.1201
24935SOL    HW276247   6.232   2.339   8.231  0.6423 -1.0894  0.8478
24936SOL     OW76248   4.642   3.878   1.259  0.0845 -0.1416  0.2456
24936SOL    HW176249   4.683   3.795   1.281 -0.1368  0.0858  1.5823
24936SOL    HW276250   4.555   3.873   1.298 -0.6554 -0.0487 -1.3383
24937SOL     OW76251   1.028   0.710   6.608 -0.5277 -0.4414 -0.0148
24937SOL    HW176252   0.997   0.800   6.597  0.6306 -0.2123 -1.7517
24937SOL    HW276253   0.961   0.656   6.567 -1.7925 -0.5258  2.0163
24938SOL     OW76254   6.897   4.911   4.973 -0.9052  0.0794  0.1962
24938SOL    HW176255   6.882   4.983   4.912  0.0519 -0.7858 -1.0992
24938SOL    HW276256   6.830   4.922   5.040 -2.2605  0.8276 -1.2257
24939SOL     OW76257   3.669   6.041   4.978  0.5482 -0.4853  0.0894
24939SOL    HW176258   3.745   5.992   5.011  1.8002  0.9410 -0.5753
24939SOL    HW276259   3.659   6.013   4.888 -0.3429 -1.3725  0.4433
24940SOL     OW76260   2.862   5.439   8.327  0.0944  0.1161  0.1543
24940SOL    HW176261   2.821   5.478   8.404 -1.3079 -0.8045 -0.1015
24940SOL    HW276262   2.937   5.497   8.308 -0.1290  0.9152  1.5870
24941SOL     OW76263   3.829   6.566   3.791 -0.5763 -0.1966 -0.2028
24941SOL    HW176264   3.742   6.524   3.795 -0.3102 -0.7641 -0.2954
24941SOL    HW276265   3.851   6.567   3.698  0.1137 -1.3158 -0.0693
24942SOL     OW76266   6.390   0.477   9.238 -0.2181  0.3528  0.1019
24942SOL    HW176267   6.312   0.510   9.284 -0.9627  0.5144 -1.2378
24942SOL    HW276268   6.461   0.490   9.301 -1.0187  1.6025  0.8091
24943SOL     OW76269   3.717   0.672   7.082 -0.3444 -0.0769  0.2426
24943SOL    HW176270   3.806   0.643   7.100 -0.3310 -0.0584  0.2075
24943SOL    HW276271   3.682   0.605   7.023 -0.6190 -0.5042  0.8833
24944SOL     OW76272   1.707   7.722   0.706  0.0736  0.5487 -0.6244
24944SOL    HW176273   1.650   7.769   0.766 -1.6250 -1.4906 -0.5116
24944SOL    HW276274   1.648   7.666   0.655  1.9925 -2.9095  0.6206
24945SOL     OW76275   6.072   0.658   5.098 -0.7870 -0.1072 -0.0893
24945SOL    HW176276   6.019   0.719   5.047  0.3035  0.9453 -0.0270
24945SOL    HW276277   6.109   0.712   5.169  0.3887 -0.7725 -0.1563
24946SOL     OW76278   6.958   6.384   6.537 -0.0640 -0.3846  0.3067
24946SOL    HW176279   6.978   6.477   6.539  0.9516 -0.5664 -0.4950
24946SOL    HW276280   7.022   6.343   6.595  0.2646 -0.7053 -0.2722
24947SOL     OW76281   6.402   7.815  10.746  0.9680  0.7838  0.1691
24947SOL    HW176282   6.426   7.834  10.655  1.2591  1.0935  0.3086
24947SOL    HW276283   6.389   7.720  10.748 -1.3654  1.0308 -0.7474
24948SOL     OW76284   7.501   4.088   4.976  0.0026  0.0223 -0.1194
24948SOL    HW176285   7.408   4.104   4.993 -0.6457 -1.8580 -1.5392
24948SOL    HW276286   7.509   4.088   4.880  1.5986  0.7437 -0.0263
24949SOL     OW76287   7.175   7.890   9.073 -0.5047  0.4778  0.4332
24949SOL    HW176288   7.192   7.831   9.146  1.7174  0.2320 -0.2071
24949SOL    HW276289   7.178   7.833   8.996  0.7288  1.2486 -0.1145
24950SOL     OW76290   4.072   5.471   1.492 -0.0356 -0.2269  0.1866
24950SOL    HW176291   4.017   5.393   1.497  0.2219 -0.5072 -1.0333
24950SOL    HW276292   4.129   5.456   1.416 -0.9630  1.7598 -0.9746
24951SOL     OW76293   4.354   6.721   4.443  0.1567  0.0822  0.0742
24951SOL    HW176294   4.410   6.648   4.471  0.0138 -0.0044  0.1346
24951SOL    HW276295   4.384   6.742   4.355 -0.6395 -0.8779 -0.4394
24952SOL     OW76296   6.117   5.889   0.557 -0.1971 -0.2232  0.2531
24952SOL    HW176297   6.192   5.946   0.574  0.6929 -0.9983 -0.8521
24952SOL    HW276298   6.154   5.816   0.507 -1.5879 -0.9548  0.2423
24953SOL     OW76299   1.215   1.945   5.644 -0.2024  0.2038  0.0235
24953SOL    HW176300   1.136   1.895   5.623 -0.6077  0.5369  0.7291
24953SOL    HW276301   1.188   2.037   5.636  0.3565  0.3208 -0.6080
24954SOL     OW76302   0.158   5.612   6.340  0.6964  0.1662  0.0674
24954SOL    HW176303   0.186   5.576   6.424 -3.0931 -0.2552  1.3410
24954SOL    HW276304   0.182   5.545   6.276 -2.0681 -2.7291  1.7919
24955SOL     OW76305   4.281   2.830   1.734  0.2355 -0.5348  0.7469
24955SOL    HW176306   4.331   2.778   1.671 -0.9687 -0.8498  0.0286
24955SOL    HW276307   4.195   2.841   1.694  0.2002  1.3476  1.2272
24956SOL     OW76308   2.352   4.565   9.792 -0.0654  0.4234 -0.1274
24956SOL    HW176309   2.299   4.555   9.713 -0.1928  1.2730 -0.1556
24956SOL    HW276310   2.325   4.492   9.848 -1.4675  0.9743 -0.0309
24957SOL     OW76311   2.419   2.302   1.130 -0.4995 -0.0403 -0.1569
24957SOL    HW176312   2.477   2.301   1.053 -0.1410  0.4519  0.0969
24957SOL    HW276313   2.394   2.394   1.138 -2.3298 -0.4196 -1.0045
24958SOL     OW76314   3.896   0.657   3.661 -0.0160 -0.4848  0.0430
24958SOL    HW176315   3.950   0.622   3.591  0.4013  0.1646  0.0400
24958SOL    HW276316   3.821   0.698   3.617  1.5223  2.2468 -0.2297
24959SOL     OW76317   4.141   3.900   2.373 -0.8515 -0.2559 -0.0036
24959SOL    HW176318   4.105   3.824   2.328  0.5357 -1.5847  1.0423
24959SOL    HW276319   4.191   3.864   2.446 -0.9833  1.7065  1.1467
24960SOL     OW76320   6.317   3.252   8.867 -0.6337 -0.0102  0.0729
24960SOL    HW176321   6.383   3.274   8.800  0.6368  0.0037  1.2776
24960SOL    HW276322   6.360   3.186   8.921 -0.5551  1.8631  2.4609
24961SOL     OW76323   7.169   0.548   4.894 -0.0467  0.1286  0.0010
24961SOL    HW176324   7.171   0.470   4.950  1.2753  0.4912  0.4925
24961SOL    HW276325   7.223   0.612   4.941 -1.8239  1.6750  0.0712
24962SOL     OW76326   3.810   0.589   1.274  0.3633  0.3915  0.2173
24962SOL    HW176327   3.905   0.598   1.285  0.5964 -1.6607  0.2027
24962SOL    HW276328   3.789   0.507   1.319 -1.4081  0.7847  0.1437
24963SOL     OW76329   7.508   7.426   7.401 -0.1849 -0.3023  0.4049
24963SOL    HW176330   7.420   7.416   7.438 -0.6942  0.6265 -0.5133
24963SOL    HW276331   7.527   7.520   7.410  1.1098 -0.6211  1.4294
24964SOL     OW76332   2.997   5.984  10.059 -0.2028  0.0543 -0.2165
24964SOL    HW176333   2.972   6.036   9.982  0.6936  1.1248  0.1847
24964SOL    HW276334   3.011   5.896  10.025  0.5504  0.5916 -1.3606
24965SOL     OW76335   1.208   5.375   8.995  0.8346 -0.0650 -0.2086
24965SOL    HW176336   1.121   5.408   9.015  1.6308  1.6291  0.7419
24965SOL    HW276337   1.228   5.316   9.068  0.4199 -0.6144 -0.5339
24966SOL     OW76338   0.050   4.443   0.618 -0.1188 -0.2362 -0.6807
24966SOL    HW176339   0.052   4.480   0.707 -1.4376 -0.1800 -0.6618
24966SOL    HW276340   0.141   4.418   0.601  0.5184  1.4920 -0.0548
24967SOL     OW76341   4.294   7.811   7.803 -0.0943 -0.2533 -0.5310
24967SOL    HW176342   4.363   7.752   7.772  0.6523  0.0126  0.5728
24967SOL    HW276343   4.294   7.800   7.898  2.5349  4.0802  0.2389
24968SOL     OW76344   5.852   4.261   6.122  0.5292 -0.4024 -0.6645
24968SOL    HW176345   5.765   4.302   6.122 -0.0820 -1.4712 -3.3730
24968SOL    HW276346   5.865   4.232   6.212 -1.3754  0.8692  0.0819
24969SOL     OW76347   3.097   7.379   9.761  0.5123  0.2143 -0.1183
24969SOL    HW176348   3.136   7.300   9.799 -1.9473 -1.3867 -0.6603
24969SOL    HW276349   3.088   7.439   9.835 -0.9374 -1.4805  1.1973
24970SOL     OW76350   3.955   2.917   6.212  0.4986  0.6067 -0.2123
24970SOL    HW176351   3.923   2.869   6.289 -0.8285 -1.2603 -1.8291
24970SOL    HW276352   3.956   3.009   6.240 -1.4823  0.1779  1.5517
24971SOL     OW76353   7.373   5.979   7.856  0.1543 -0.1390  0.1885
24971SOL    HW176354   7.445   6.021   7.903 -0.0594  0.2646  0.1659
24971SOL    HW276355   7.374   6.019   7.769  1.2638 -1.7069 -0.5666
24972SOL     OW76356   3.482   0.390  11.732 -0.6111  0.6116  0.4164
24972SOL    HW176357   3.404   0.349  11.695 -0.1181 -0.2017  0.2659
24972SOL    HW276358   3.549   0.322  11.730  0.1165  1.3032  0.5273
24973SOL     OW76359   5.615   5.247   9.016  0.2471 -0.1792  0.4532
24973SOL    HW176360   5.546   5.257   8.950  0.7208 -0.4441 -0.0935
24973SOL    HW276361   5.587   5.172   9.068  0.6659 -0.9979 -0.4724
24974SOL     OW76362   3.754   5.359   7.105 -0.8422 -0.3064 -0.0327
24974SOL    HW176363   3.728   5.386   7.017  0.6931 -0.4159 -0.5551
24974SOL    HW276364   3.806   5.279   7.091 -1.6248 -1.0388  1.0947
24975SOL     OW76365   0.715   5.093   3.133  0.1731  0.5747 -0.0255
24975SOL    HW176366   0.651   5.034   3.172  0.4540 -0.7795 -1.4937
24975SOL    HW276367   0.663   5.167   3.101 -0.9965 -1.2176 -2.5969
24976SOL     OW76368   0.815   5.294   2.192  0.0717 -0.6177  0.6678
24976SOL    HW176369   0.893   5.318   2.141  0.1993  0.4173  1.3378
24976SOL    HW276370   0.847   5.288   2.282 -0.8921  1.2843  1.1838
24977SOL     OW76371   4.676   1.347   1.734 -0.0701 -0.5606 -0.1343
24977SOL    HW176372   4.644   1.316   1.819  0.8659  0.1397  0.5076
24977SOL    HW276373   4.598   1.379   1.689 -0.5601 -0.7566  0.5516
24978SOL     OW76374   2.294   6.063   4.844  0.0944  0.2050  0.5836
24978SOL    HW176375   2.377   6.020   4.825 -0.5360 -0.1268 -1.6956
24978SOL    HW276376   2.304   6.151   4.806 -1.1916 -0.4452 -1.3846
24979SOL     OW76377   2.478   4.563  10.244 -0.2904 -0.4677  0.0467
24979SOL    HW176378   2.419   4.622  10.197  1.0564  2.1606  1.4528
24979SOL    HW276379   2.444   4.562  10.334  0.2230 -1.1347  0.2375
24980SOL     OW76380   3.306   6.410   0.562  0.0205 -0.5559  0.4622
24980SOL    HW176381   3.353   6.493   0.558  0.3669 -0.7915 -0.9129
24980SOL    HW276382   3.251   6.410   0.483 -2.0931 -0.4170  1.8461
24981SOL     OW76383   1.816   6.596   0.324  0.0539 -0.1122  0.1822
24981SOL    HW176384   1.863   6.532   0.270  1.0073  0.3207  0.4787
24981SOL    HW276385   1.789   6.546   0.401 -1.7232 -0.8548 -0.8515
24982SOL     OW76386   3.265   2.299   1.104  0.2252  0.4863  0.3381
24982SOL    HW176387   3.335   2.349   1.064  2.1485  0.3151  3.2035
24982SOL    HW276388   3.241   2.349   1.182 -1.9443 -0.1466  0.1467
24983SOL     OW76389   4.269   6.836   1.432 -0.6652  0.1260  0.5772
24983SOL    HW176390   4.216   6.915   1.431  0.8985  1.3244  2.8398
24983SOL    HW276391   4.205   6.764   1.430 -2.0982  1.3580 -1.8925
24984SOL     OW76392   7.028   6.028   6.153 -0.5894 -0.1028 -0.2482
24984SOL    HW176393   7.096   5.962   6.138 -1.5592 -1.2903  0.4334
24984SOL    HW276394   6.945   5.981   6.142 -1.3119  0.8062  0.9824
24985SOL     OW76395   3.394   4.920   1.839  0.2044 -0.3005 -0.5282
24985SOL    HW176396   3.367   5.011   1.822 -0.3351 -0.6509 -1.6527
24985SOL    HW276397   3.457   4.901   1.769  0.1138 -0.8814 -0.4536
24986SOL     OW76398   3.498   7.551   9.432 -0.1977  0.5377  0.0943
24986SOL    HW176399   3.487   7.504   9.349  0.3253 -2.2160  1.4717
24986SOL    HW276400   3.408   7.565   9.464 -0.3728  0.7305 -0.4787
24987SOL     OW76401   4.727   0.296   6.762  0.1691 -0.4369  0.0104
24987SOL    HW176402   4.750   0.377   6.716 -2.3062  1.0824  1.2126
24987SOL    HW276403   4.646   0.267   6.720 -0.7339 -0.4443  1.6645
24988SOL     OW76404   0.179   6.749   6.004  0.0429  0.3247 -0.4618
24988SOL    HW176405   0.162   6.791   5.920 -1.8027  2.1078  0.7160
24988SOL    HW276406   0.183   6.656   5.984 -0.8539  0.6688 -2.4712
24989SOL     OW76407   3.499   1.482   5.164 -0.0581 -0.2527  0.2946
24989SOL    HW176408   3.410   1.502   5.137 -1.0978 -3.2378  1.1157
24989SOL    HW276409   3.497   1.487   5.260  1.4605  2.2500  0.3055
24990SOL     OW76410   7.360   1.777   0.177  0.2792 -0.1106 -0.0866
24990SOL    HW176411   7.445   1.812   0.203  1.7518 -1.7252 -2.4673
24990SOL    HW276412   7.350   1.698   0.229  0.3021 -0.0076  0.0759
24991SOL     OW76413   7.838   4.952   7.212  0.2867  0.2252  0.2414
24991SOL    HW176414   7.910   4.950   7.275  0.9590  0.0568 -0.5141
24991SOL    HW276415   7.853   4.876   7.156  0.6479  1.2555 -1.1262
24992SOL     OW76416   2.456   2.081   4.898  0.3220  0.4695 -0.0534
24992SOL    HW176417   2.523   2.036   4.948  1.2349  0.0922 -1.5547
24992SOL    HW276418   2.412   2.012   4.848  1.4743  1.1129 -2.0785
24993SOL     OW76419   0.635   2.340   5.624  0.0300 -0.2735  0.2964
24993SOL    HW176420   0.652   2.380   5.709 -0.2091  0.1024  0.1685
24993SOL    HW276421   0.628   2.414   5.563  0.6473 -0.5556 -0.1361
24994SOL     OW76422   0.653   6.818   6.323 -0.1851  0.3583  0.2615
24994SOL    HW176423   0.629   6.844   6.412 -1.4523 -1.8863  0.6565
24994SOL    HW276424   0.569   6.805   6.278  0.4154  0.1689 -0.8388
24995SOL     OW76425   4.003   7.951   4.738 -0.5618 -0.5211 -0.0814
24995SOL    HW176426   3.915   7.913   4.745 -0.7952  0.1359  0.7032
24995SOL    HW276427   3.989   8.045   4.750 -0.0005 -0.1406 -2.0581
24996SOL     OW76428   4.771   5.384   4.398  0.0923  0.6397  0.8198
24996SOL    HW176429   4.703   5.451   4.384 -0.4165 -0.1289 -0.5991
24996SOL    HW276430   4.814   5.376   4.313 -0.3755 -1.3751  0.7297
24997SOL     OW76431   0.983   7.030   1.682  0.2382 -0.8093 -0.1138
24997SOL    HW176432   1.078   7.029   1.686  0.2248 -1.3620  0.1725
24997SOL    HW276433   0.959   7.121   1.697  0.6532 -0.9868  1.8419
24998SOL     OW76434   6.166   6.149   5.871  0.7771 -0.0451 -0.3181
24998SOL    HW176435   6.162   6.222   5.809 -0.8697  0.4969  0.3588
24998SOL    HW276436   6.108   6.083   5.834  1.8096 -0.7796 -0.6356
24999SOL     OW76437   7.703   3.714   7.720 -0.8017  0.6731 -0.1255
24999SOL    HW176438   7.783   3.661   7.721 -2.0628 -1.3764  1.6234
24999SOL    HW276439   7.653   3.680   7.646 -2.6097 -2.4710  2.2688
25000SOL     OW76440   2.617   2.783   3.521  0.0896 -0.0452 -0.2354
25000SOL    HW176441   2.584   2.719   3.458  0.1586 -0.3801  0.0658
25000SOL    HW276442   2.712   2.780   3.511  0.1833 -1.0590  0.7990
25001SOL     OW76443   0.752   6.888  11.706  0.5917 -0.0704  0.4492
25001SOL    HW176444   0.834   6.846  11.680 -0.4433 -2.1384  0.3166
25001SOL    HW276445   0.715   6.829  11.772 -1.1154  0.4607 -0.0003
25002SOL     OW76446   1.480   5.064  11.459  0.6299 -0.2377 -0.2587
25002SOL    HW176447   1.538   5.052  11.534  0.2613 -2.3894 -0.2663
25002SOL    HW276448   1.422   4.988  11.461  0.4375 -0.2239 -2.5781
25003SOL     OW76449   4.849   5.664   2.706  0.2942  0.0372  0.2576
25003SOL    HW176450   4.919   5.680   2.644  0.3616 -0.3960  0.2177
25003SOL    HW276451   4.809   5.582   2.677  2.4767 -2.0507  2.6640
25004SOL     OW76452   1.619   0.863   6.494 -0.3334  0.6126  0.1872
25004SOL    HW176453   1.632   0.868   6.400 -1.1944 -0.8686 -0.0366
25004SOL    HW276454   1.544   0.805   6.506 -0.0991  0.5717  1.7909
25005SOL     OW76455   0.857   2.176   2.671  0.0907 -0.2607  0.1532
25005SOL    HW176456   0.824   2.093   2.637  1.8968 -0.5109 -1.1558
25005SOL    HW276457   0.906   2.153   2.750  0.4049 -0.4303 -0.0873
25006SOL     OW76458   2.284   6.110   1.968 -0.0988  0.0748 -0.4720
25006SOL    HW176459   2.351   6.042   1.979 -0.8829 -0.2894  3.0354
25006SOL    HW276460   2.249   6.094   1.880  2.4418 -1.5054 -1.3100
25007SOL     OW76461   1.355   3.040   1.481 -0.0406 -0.1405 -0.5512
25007SOL    HW176462   1.296   3.106   1.445 -1.3070 -0.2325  1.2446
25007SOL    HW276463   1.350   2.967   1.420  0.5671  0.9785 -1.9998
25008SOL     OW76464   6.013   1.848   3.797 -0.6594  0.2337  0.3605
25008SOL    HW176465   5.945   1.890   3.745  0.8808  0.3280 -1.7197
25008SOL    HW276466   5.995   1.754   3.790  0.3216  0.1511 -1.6238
25009SOL     OW76467   5.325   1.575   9.354 -0.0640 -0.4253  0.1197
25009SOL    HW176468   5.277   1.630   9.416  1.6197  0.4536  0.7275
25009SOL    HW276469   5.417   1.598   9.369  0.5686 -2.1266 -0.8758
25010SOL     OW76470   2.992   6.124  10.295 -0.3250 -0.2130  0.7199
25010SOL    HW176471   2.902   6.155  10.287  0.7076  2.7160 -1.3704
25010SOL    HW276472   3.011   6.083  10.210  0.7758  0.7450  0.4777
25011SOL     OW76473   7.740   0.373   6.188  0.0158  0.2467  0.1173
25011SOL    HW176474   7.798   0.445   6.215 -0.2414 -0.3154  2.3840
25011SOL    HW276475   7.656   0.415   6.173  0.3649  0.7004 -0.6108
25012SOL     OW76476   0.854   3.793   4.618  0.4869 -0.1394  0.1061
25012SOL    HW176477   0.916   3.723   4.642 -0.0611 -0.2295  1.3044
25012SOL    HW276478   0.891   3.831   4.538  2.6438  0.4804  1.3268
25013SOL     OW76479   0.974   5.597   0.107 -0.0375  0.1118  0.6335
25013SOL    HW176480   0.942   5.507   0.117 -0.0037  0.1599  1.2201
25013SOL    HW276481   0.921   5.648   0.168 -0.3084  0.5564  0.0324
25014SOL     OW76482   4.431   5.011   1.928  0.3574 -0.3276  0.1915
25014SOL    HW176483   4.469   4.955   1.996  0.9704 -0.5141 -0.2921
25014SOL    HW276484   4.506   5.054   1.888 -0.0070 -0.1297 -0.2840
25015SOL     OW76485   5.572   4.337   1.188 -0.4280  0.1081 -0.1999
25015SOL    HW176486   5.658   4.331   1.229 -0.4046 -0.4332 -0.3226
25015SOL    HW276487   5.533   4.250   1.199 -2.5745  1.3016  3.3464
25016SOL     OW76488   3.575   5.979   3.547  0.3746  0.0878 -0.1763
25016SOL    HW176489   3.598   6.011   3.634 -0.4097 -0.3205  0.1962
25016SOL    HW276490   3.610   6.044   3.487 -1.5804  1.9487  0.5616
25017SOL     OW76491   3.369   1.642  11.688 -0.2539  0.0329 -0.2038
25017SOL    HW176492   3.410   1.621  11.771 -2.2489 -3.0745  0.1690
25017SOL    HW276493   3.429   1.607  11.622 -0.0636 -0.1746  0.0776
25018SOL     OW76494   7.727   5.617   7.319 -0.1072 -0.1204  0.0662
25018SOL    HW176495   7.684   5.617   7.405 -0.2390 -0.3822  0.0014
25018SOL    HW276496   7.750   5.525   7.304  0.0406 -0.0539 -0.1170
25019SOL     OW76497   0.473   3.116  11.188  0.2301  0.8653  0.8116
25019SOL    HW176498   0.485   3.189  11.249  0.1373  1.1942  0.4450
25019SOL    HW276499   0.387   3.132  11.149 -0.5228 -0.3335  1.9072
25020SOL     OW76500   1.623   3.906   2.086  0.3259 -0.4345  0.1780
25020SOL    HW176501   1.549   3.902   2.146  0.6737  0.2230  0.6740
25020SOL    HW276502   1.638   3.816   2.060 -0.3863 -0.6254  0.3921
25021SOL     OW76503   3.392   2.920   1.530 -0.0784 -0.6928  0.0363
25021SOL    HW176504   3.474   2.874   1.547  0.0606 -0.6156 -0.4114
25021SOL    HW276505   3.339   2.906   1.609  1.2117  1.1564  1.3138
25022SOL     OW76506   4.620   1.786   0.933  0.2287  0.1515 -0.2256
25022SOL    HW176507   4.598   1.810   0.843  0.2785  1.8687  0.1827
25022SOL    HW276508   4.551   1.725   0.959  0.8885 -1.3695 -1.7975
25023SOL     OW76509   2.474   0.688   7.909 -0.4362  0.4087  0.4657
25023SOL    HW176510   2.569   0.696   7.903 -0.4153 -0.3041 -0.3729
25023SOL    HW276511   2.449   0.637   7.833 -1.3872 -0.3651  1.2659
25024SOL     OW76512   1.901   1.242   8.488 -0.0381 -0.4192 -0.4658
25024SOL    HW176513   1.861   1.243   8.575 -0.5375  1.0641 -0.6822
25024SOL    HW276514   1.877   1.157   8.451 -1.0855 -0.4603  0.2743
25025SOL     OW76515   2.525   1.653   1.996 -0.1465 -0.0442  0.3109
25025SOL    HW176516   2.469   1.582   2.028  0.0914 -0.0634  0.6850
25025SOL    HW276517   2.556   1.623   1.911 -1.2204  0.2422 -0.2006
25026SOL     OW76518   2.002   4.500  11.424  0.2916  0.3671 -0.0595
25026SOL    HW176519   1.919   4.482  11.380 -0.6679 -0.3235  1.8836
25026SOL    HW276520   2.022   4.590  11.402 -0.9023  0.5101 -0.6784
25027SOL     OW76521   2.410   2.011   2.878 -0.4504 -0.1055  0.0216
25027SOL    HW176522   2.389   1.973   2.793  1.1459 -1.5957  0.2320
25027SOL    HW276523   2.405   1.937   2.939  2.2805  0.0195  0.5402
25028SOL     OW76524   2.594   1.459   3.036 -0.4273 -0.2481 -0.0321
25028SOL    HW176525   2.626   1.371   3.016 -2.4647 -0.9546 -0.3741
25028SOL    HW276526   2.652   1.490   3.106  1.3358 -1.1894 -0.9996
25029SOL     OW76527   6.124   2.800   0.618 -0.3878  0.5477 -0.6953
25029SOL    HW176528   6.104   2.763   0.704 -0.5863 -1.5969 -1.6052
25029SOL    HW276529   6.194   2.863   0.635  0.7489 -1.0262  0.8289
25030SOL     OW76530   3.959   2.581  12.234  0.7865 -0.2906 -0.6103
25030SOL    HW176531   3.890   2.563  12.299  0.7638 -0.5448 -0.7043
25030SOL    HW276532   3.921   2.554  12.151  0.6665  0.4196 -0.7884
25031SOL     OW76533   1.732   4.849   7.257  0.3691  0.0139 -0.4414
25031SOL    HW176534   1.727   4.757   7.282  0.9822  0.6974  2.5458
25031SOL    HW276535   1.665   4.859   7.189 -0.3434 -2.4405 -0.1833
25032SOL     OW76536   0.860   6.765   6.033 -0.6813 -0.4998 -0.0519
25032SOL    HW176537   0.938   6.718   6.063 -0.3208  1.1397  1.7851
25032SOL    HW276538   0.787   6.719   6.075 -0.7221 -1.7603 -1.4183
25033SOL     OW76539   0.629   6.021   8.495 -0.4358  0.2154  0.1965
25033SOL    HW176540   0.663   6.057   8.412 -0.1383 -0.1884  0.1387
25033SOL    HW276541   0.583   5.941   8.469  0.4846 -0.4343  0.5182
25034SOL     OW76542   1.450   7.416   6.532 -0.5769 -0.0837  0.0353
25034SOL    HW176543   1.452   7.326   6.565 -3.7509 -0.1968  0.2356
25034SOL    HW276544   1.387   7.461   6.589  1.2645  2.4481  0.2241
25035SOL     OW76545   5.792   0.455  11.341 -0.0244 -0.4525 -0.3256
25035SOL    HW176546   5.790   0.495  11.254 -0.4697  0.3573  0.0533
25035SOL    HW276547   5.821   0.525  11.399 -1.1809 -0.5644  0.4086
25036SOL     OW76548   1.023   2.597   0.801 -0.0458 -0.7042  0.0910
25036SOL    HW176549   1.001   2.511   0.836  0.2707 -0.3174  1.3031
25036SOL    HW276550   0.948   2.652   0.823 -0.6458 -0.8609 -1.4808
25037SOL     OW76551   2.091   7.831   9.672  0.1593  0.0588 -0.0567
25037SOL    HW176552   2.103   7.926   9.663  1.4214  0.3003  2.9031
25037SOL    HW276553   2.053   7.803   9.589  1.0875  2.9240 -1.5645
25038SOL     OW76554   0.245   6.934  11.855 -0.2762 -0.3619 -0.0629
25038SOL    HW176555   0.238   6.931  11.951  0.3388  0.6713  0.0294
25038SOL    HW276556   0.166   6.981  11.827 -0.4081 -0.5796 -0.0579
25039SOL     OW76557   1.218   4.616   4.203 -0.6326  0.0608  0.6399
25039SOL    HW176558   1.189   4.706   4.188  1.2864  0.3159 -2.2587
25039SOL    HW276559   1.137   4.566   4.214 -1.7616  1.9629  1.6558
25040SOL     OW76560   7.105   2.287   8.052 -0.3235 -0.3641 -0.1946
25040SOL    HW176561   7.026   2.241   8.079 -1.4237 -0.1289 -2.7096
25040SOL    HW276562   7.073   2.370   8.017  1.1111  0.0460 -0.5913
25041SOL     OW76563   3.372   1.113   4.342  0.2277  0.0020  0.4116
25041SOL    HW176564   3.292   1.060   4.339  1.5720 -2.2300  1.5059
25041SOL    HW276565   3.403   1.114   4.251  1.1542 -2.8069  0.6061
25042SOL     OW76566   5.857   0.406  11.757  0.0200 -0.1634  0.5400
25042SOL    HW176567   5.792   0.477  11.758 -0.3401 -0.3022 -2.8944
25042SOL    HW276568   5.936   0.446  11.721  0.6045 -0.9694  0.8890
25043SOL     OW76569   2.838   1.360  11.205  0.5225  0.7053  0.0059
25043SOL    HW176570   2.840   1.370  11.301 -0.5966 -1.4122  0.3076
25043SOL    HW276571   2.930   1.365  11.179  0.8009  1.8451  1.0971
25044SOL     OW76572   6.459   5.489   2.134  0.0206  0.0569 -0.4483
25044SOL    HW176573   6.525   5.421   2.153 -1.5522 -1.4945 -0.2845
25044SOL    HW276574   6.405   5.492   2.213 -0.3990  0.9810 -0.7621
25045SOL     OW76575   5.182   7.086  10.240  0.5883  0.1312  0.4578
25045SOL    HW176576   5.167   7.180  10.248  0.7114  0.2180 -0.3088
25045SOL    HW276577   5.277   7.077  10.230  0.4094  0.0767 -1.3962
25046SOL     OW76578   0.875   7.205   2.197 -0.4314 -0.4489 -0.1866
25046SOL    HW176579   0.932   7.134   2.170  0.1751  0.2820 -0.8845
25046SOL    HW276580   0.794   7.192   2.147  0.6724  0.8844 -2.4695
25047SOL     OW76581   2.136   5.276   6.464  0.0168 -0.0773 -0.7297
25047SOL    HW176582   2.178   5.239   6.387 -0.7369 -1.4456 -0.5209
25047SOL    HW276583   2.200   5.337   6.500  1.2889 -1.1299 -1.1468
25048SOL     OW76584   7.114   2.561   9.714  0.0241  0.0412 -0.1648
25048SOL    HW176585   7.182   2.543   9.780  0.6406  0.5271 -0.6540
25048SOL    HW276586   7.050   2.615   9.760  0.4190  0.3230  0.0652
25049SOL     OW76587   7.055   2.212   4.721 -0.4149 -0.5106 -0.1811
25049SOL    HW176588   7.085   2.202   4.631  0.4569  0.6032 -0.0335
25049SOL    HW276589   7.133   2.193   4.774  0.1163  2.3933  0.2114
25050SOL     OW76590   7.670   0.712   6.444 -0.1957 -0.1276  0.0274
25050SOL    HW176591   7.602   0.739   6.382  0.4860  1.7575  0.0392
25050SOL    HW276592   7.739   0.675   6.389 -0.0555  0.5381 -0.2516
25051SOL     OW76593   2.386   6.460   7.236  0.2900 -0.6175 -0.5462
25051SOL    HW176594   2.424   6.424   7.156  1.3383 -0.7926  0.0029
25051SOL    HW276595   2.445   6.429   7.305  0.2244  0.7165  0.1245
25052SOL     OW76596   1.093   4.511   5.214  0.4393  0.2523  0.1272
25052SOL    HW176597   1.011   4.472   5.183  0.3475  0.5619 -0.0217
25052SOL    HW276598   1.154   4.437   5.218 -0.1434 -0.1940  1.3230
25053SOL     OW76599   4.968   5.980   0.474 -0.4323 -0.1587  0.1150
25053SOL    HW176600   5.041   5.918   0.468  0.9013  1.3556  0.0143
25053SOL    HW276601   4.993   6.039   0.545 -1.6484  0.2854  0.1813
25054SOL     OW76602   7.073   2.827   6.332  0.0961 -0.0774 -0.8214
25054SOL    HW176603   7.075   2.755   6.268 -2.0447 -0.2612 -0.7359
25054SOL    HW276604   6.984   2.861   6.327  0.9113  2.2325 -0.4395
25055SOL     OW76605   5.331   7.273  11.791  0.0232 -0.3849  0.4891
25055SOL    HW176606   5.359   7.355  11.750  1.3850 -0.1623  1.7931
25055SOL    HW276607   5.386   7.264  11.868 -1.8235 -1.2757  1.7782
25056SOL     OW76608   6.478   7.804   4.346  0.0945  0.2504  0.1872
25056SOL    HW176609   6.476   7.710   4.364 -0.9042 -0.1965 -1.9223
25056SOL    HW276610   6.518   7.843   4.424  1.7818 -2.0464  0.5543
25057SOL     OW76611   6.810   2.310   7.569 -0.0977  0.3135  0.1810
25057SOL    HW176612   6.877   2.319   7.637 -0.0001  1.8217 -0.0718
25057SOL    HW276613   6.799   2.399   7.535  0.0690 -0.4442 -1.9787
25058SOL     OW76614   7.855   5.963   9.826  0.0994  0.1345 -0.4159
25058SOL    HW176615   7.946   5.987   9.844  0.6691 -1.8093 -0.4345
25058SOL    HW276616   7.820   6.036   9.775  1.6812  0.8818 -0.4802
25059SOL     OW76617   7.376   5.057   1.776  0.5013  0.1916  0.3065
25059SOL    HW176618   7.306   5.002   1.741  1.1290 -0.0377 -0.6248
25059SOL    HW276619   7.332   5.137   1.805 -0.2856 -0.4007  0.7811
25060SOL     OW76620   5.667   5.873  11.172 -0.1263  0.2616  0.1184
25060SOL    HW176621   5.594   5.935  11.170 -0.3745 -0.0517 -0.9595
25060SOL    HW276622   5.701   5.879  11.261 -0.5165  1.5236  0.1994
25061SOL     OW76623   4.948   0.763   2.464  0.3771 -0.0376  0.1868
25061SOL    HW176624   5.025   0.783   2.411  0.1735  1.3014  0.3748
25061SOL    HW276625   4.904   0.847   2.476 -1.2992 -0.8121 -0.1746
25062SOL     OW76626   7.484   5.328  10.406 -0.1195 -0.5011  0.6079
25062SOL    HW176627   7.446   5.252  10.450  3.6764 -1.5767  2.4124
25062SOL    HW276628   7.501   5.391  10.476  0.1631  0.5277 -0.3487
25063SOL     OW76629   7.761   2.135  10.177 -0.1111  0.6749 -0.1400
25063SOL    HW176630   7.831   2.075  10.151 -0.4765  0.8384 -1.5527
25063SOL    HW276631   7.757   2.200  10.107 -1.0805  1.1960  0.3715
25064SOL     OW76632   2.353   3.585   1.582  0.0420  0.1457 -0.1698
25064SOL    HW176633   2.385   3.598   1.672 -0.5171 -1.6742  0.3476
25064SOL    HW276634   2.284   3.519   1.591 -0.1374  0.0503 -1.9279
25065SOL     OW76635   6.649   7.493   7.567  0.2317 -0.1512 -0.4015
25065SOL    HW176636   6.593   7.511   7.492 -0.6818  0.2131  0.3392
25065SOL    HW276637   6.705   7.421   7.540 -1.5621 -1.4789 -0.6945
25066SOL     OW76638   3.093   2.035  12.430 -0.0103  0.4361 -0.4045
25066SOL    HW176639   3.107   1.943  12.452  0.2676  0.4610 -0.4739
25066SOL    HW276640   3.176   2.077  12.454 -0.5017  0.8502  0.6459
25067SOL     OW76641   3.400   2.524   1.022  0.5284  0.4388  0.4449
25067SOL    HW176642   3.423   2.538   0.930  0.6486  0.4643  0.4795
25067SOL    HW276643   3.403   2.611   1.061  0.2754  0.4563  0.4258
25068SOL     OW76644   4.197   2.689   7.097 -0.1063  0.1106 -0.6295
25068SOL    HW176645   4.281   2.728   7.075  0.2023 -0.8366 -1.1692
25068SOL    HW276646   4.178   2.721   7.185  0.7926  0.3648 -0.5214
25069SOL     OW76647   0.220   0.399   8.810 -0.2729 -0.0786  0.2378
25069SOL    HW176648   0.153   0.336   8.782 -0.2839 -0.1301  0.3813
25069SOL    HW276649   0.172   0.482   8.817 -0.3832 -0.1733  0.6188
25070SOL     OW76650   5.910   2.526   2.753  0.0442  0.6005  0.2346
25070SOL    HW176651   5.932   2.560   2.840  0.4620  1.2893 -0.1286
25070SOL    HW276652   5.944   2.592   2.692 -1.5248  0.8418 -0.4197
25071SOL     OW76653   5.519   2.499   1.485  0.3776  0.3481  0.5436
25071SOL    HW176654   5.508   2.409   1.454  0.3962 -0.0811  1.7346
25071SOL    HW276655   5.435   2.541   1.467  1.0779  0.7904 -2.1091
25072SOL     OW76656   3.456   3.399  10.599 -0.4136  0.2352  0.4263
25072SOL    HW176657   3.467   3.322  10.655  0.8254  0.3626  0.3875
25072SOL    HW276658   3.454   3.365  10.510  2.1245  0.3392  0.2503
25073SOL     OW76659   5.722   3.131   4.814 -0.1044  0.2109 -0.2245
25073SOL    HW176660   5.808   3.104   4.784 -1.1516 -1.7178 -1.7304
25073SOL    HW276661   5.718   3.102   4.905  0.8086  0.3054 -0.1464
25074SOL     OW76662   4.466   0.730   8.050  0.1174  0.6941  0.2593
25074SOL    HW176663   4.393   0.694   8.100 -0.0609  1.0884  0.2907
25074SOL    HW276664   4.521   0.655   8.029 -1.2261  0.0898 -1.3438
25075SOL     OW76665   0.423   7.647  11.691  0.2184  0.3203 -0.2174
25075SOL    HW176666   0.442   7.636  11.598  1.9211 -0.3639  0.1722
25075SOL    HW276667   0.509   7.654  11.732 -0.3828 -1.7989  1.6004
25076SOL     OW76668   0.604   4.662  10.209  0.3324 -0.0105 -0.2737
25076SOL    HW176669   0.606   4.669  10.304  1.4776  0.0602 -0.2930
25076SOL    HW276670   0.684   4.706  10.179  0.4373 -0.7935 -1.2053
25077SOL     OW76671   3.218   3.518   1.292  0.4332 -0.6925 -0.1329
25077SOL    HW176672   3.265   3.460   1.232  1.1771  0.4986 -0.7433
25077SOL    HW276673   3.281   3.538   1.361 -0.3731 -1.9366  1.0105
25078SOL     OW76674   7.591   2.925   2.926  0.0916  0.3058  0.1567
25078SOL    HW176675   7.504   2.949   2.956 -0.4018  0.5174 -1.3786
25078SOL    HW276676   7.608   2.840   2.969 -0.9322  0.1703  0.3226
25079SOL     OW76677   5.836   1.862   8.717 -0.1044 -0.3801 -0.3083
25079SOL    HW176678   5.881   1.787   8.756  0.0340 -0.6728 -1.0206
25079SOL    HW276679   5.744   1.850   8.741  0.1058 -0.0286  0.7558
25080SOL     OW76680   2.652   4.663   6.627 -0.0516 -0.2633 -0.0657
25080SOL    HW176681   2.700   4.586   6.596 -0.3079 -0.2912 -0.4081
25080SOL    HW276682   2.678   4.732   6.566  1.3489  0.3201  1.1323
25081SOL     OW76683   5.052   7.828   5.926  0.0695 -0.4261  0.3005
25081SOL    HW176684   5.027   7.915   5.894  1.0600 -0.8277 -1.7629
25081SOL    HW276685   5.145   7.820   5.902 -0.2307 -2.3748 -0.3918
25082SOL     OW76686   1.027   3.024   5.471  0.0987  0.5148  0.2208
25082SOL    HW176687   1.117   3.054   5.456 -0.1317  0.4539 -1.5859
25082SOL    HW276688   1.029   2.932   5.447 -0.7767  0.9102 -1.5135
25083SOL     OW76689   2.375   4.830  11.069 -0.6136 -0.1711  0.7414
25083SOL    HW176690   2.339   4.878  10.994  1.4236  1.0610  0.4823
25083SOL    HW276691   2.312   4.847  11.139 -0.3438  2.4077  0.4773
25084SOL     OW76692   7.734   1.218  10.280 -0.3120  0.0339  0.1940
25084SOL    HW176693   7.650   1.249  10.247  0.0236 -0.4620 -1.2053
25084SOL    HW276694   7.789   1.296  10.284 -0.6812  0.2762  0.6510
25085SOL     OW76695   3.085   7.582   3.082  0.0003 -0.0535 -0.3414
25085SOL    HW176696   2.994   7.559   3.065  0.3692  0.1732 -3.0458
25085SOL    HW276697   3.132   7.499   3.079 -0.0503 -0.1521  0.9085
25086SOL     OW76698   5.957   4.520   5.473  0.3547 -0.0374 -0.0746
25086SOL    HW176699   5.874   4.563   5.452  0.9389  1.4964  0.5741
25086SOL    HW276700   5.997   4.501   5.388 -0.9125 -1.3344 -0.3954
25087SOL     OW76701   0.911   1.204   8.856 -0.0278  0.4785  0.1595
25087SOL    HW176702   0.900   1.211   8.950 -0.1296 -2.6079  0.4947
25087SOL    HW276703   0.997   1.242   8.838 -0.4294  2.0109  1.2969
25088SOL     OW76704   4.364   5.525   5.286 -0.2641  0.1535  0.3724
25088SOL    HW176705   4.283   5.475   5.300  0.7441 -1.9048 -0.6440
25088SOL    HW276706   4.433   5.466   5.317  0.9104  1.6338  0.6778
25089SOL     OW76707   4.957   1.735   8.661 -0.3343 -0.0105  0.2837
25089SOL    HW176708   4.926   1.798   8.726  1.9320 -1.5940  3.1166
25089SOL    HW276709   4.916   1.652   8.685 -0.9823 -0.2739 -1.5848
25090SOL     OW76710   0.405   1.543   2.937 -0.4066 -0.1184 -0.1759
25090SOL    HW176711   0.400   1.579   3.026  0.4766  0.4200 -0.3295
25090SOL    HW276712   0.387   1.618   2.880 -3.8021 -0.9968 -0.4700
25091SOL     OW76713   3.870   0.038   8.204  0.3625  0.0831 -0.4857
25091SOL    HW176714   3.846   0.003   8.290  0.0376  0.3931 -0.4494
25091SOL    HW276715   3.887  -0.040   8.150  4.5596 -0.2178  0.9068
25092SOL     OW76716   1.752   5.109   5.939 -0.2514  0.5113  0.4449
25092SOL    HW176717   1.713   5.196   5.946  0.6202  0.8658  0.9834
25092SOL    HW276718   1.751   5.074   6.028  0.3181  0.3762  0.4024
25093SOL     OW76719   6.947   7.008  10.600  0.5511 -0.4625 -0.0015
25093SOL    HW176720   6.899   6.936  10.559  0.0711 -0.5777  0.7551
25093SOL    HW276721   6.952   7.075  10.532  0.7393 -1.0841 -0.6138
25094SOL     OW76722   1.607   1.932   2.667 -0.2140  0.2391 -0.1047
25094SOL    HW176723   1.656   2.014   2.668  0.5305 -0.1829 -0.8172
25094SOL    HW276724   1.529   1.950   2.719  0.4455  1.0807  0.6327
25095SOL     OW76725   1.222   7.955   3.159 -0.1056 -0.0436 -0.4033
25095SOL    HW176726   1.295   7.897   3.176 -0.3593  0.2337  1.9063
25095SOL    HW276727   1.230   8.025   3.224 -1.8654  0.5265 -0.7242
25096SOL     OW76728   6.415   3.896   8.256 -0.0367  0.2874 -0.7465
25096SOL    HW176729   6.387   3.805   8.271  2.2086 -0.2571  0.7503
25096SOL    HW276730   6.384   3.944   8.333 -0.2752  0.5332 -0.9967
25097SOL     OW76731   2.322   3.845   3.752  0.1823  0.1385 -0.1778
25097SOL    HW176732   2.304   3.822   3.843  0.1795 -1.1482 -0.4793
25097SOL    HW276733   2.410   3.883   3.754  0.5636 -0.7409  0.2457
25098SOL     OW76734   5.006   1.024   2.764 -0.1301  0.2520  0.1024
25098SOL    HW176735   4.924   1.012   2.812 -0.0648  1.1049  0.4524
25098SOL    HW276736   4.984   1.008   2.673 -0.3199 -1.1244  0.3684
25099SOL     OW76737   2.918   0.985   0.842  0.3386 -0.5805 -0.2303
25099SOL    HW176738   2.924   0.921   0.914 -1.1248 -2.2400 -1.4776
25099SOL    HW276739   2.846   1.043   0.868  0.8838 -0.1579  0.3643
25100SOL     OW76740   0.985   6.792  11.334 -0.2625  0.0631  0.0483
25100SOL    HW176741   0.897   6.797  11.298 -0.7032 -0.6325  0.9692
25100SOL    HW276742   1.025   6.718  11.288  0.6018  1.6081 -1.8560
25101SOL     OW76743   5.204   1.602   0.863 -0.4894 -0.6494  0.2293
25101SOL    HW176744   5.230   1.534   0.925 -0.5321 -2.0155 -1.1985
25101SOL    HW276745   5.108   1.603   0.866 -0.5304 -1.3702 -0.4562
25102SOL     OW76746   2.453   6.782  11.922 -0.1939 -0.0131 -0.2028
25102SOL    HW176747   2.500   6.865  11.913 -1.1620  0.5467 -0.2839
25102SOL    HW276748   2.513   6.716  11.886  0.6846  0.6096  0.0835
25103SOL     OW76749   4.223   5.894   6.506  0.5205  0.2497 -0.2238
25103SOL    HW176750   4.204   5.802   6.523 -0.8869  0.5109 -0.2444
25103SOL    HW276751   4.138   5.938   6.513  0.9077  1.3300 -1.6268
25104SOL     OW76752   0.002   1.841   1.226  0.3085  0.4065  0.5711
25104SOL    HW176753   0.095   1.822   1.240 -0.0834 -1.1700  1.2119
25104SOL    HW276754  -0.023   1.896   1.300  0.9919  1.8942 -0.2557
25105SOL     OW76755   4.557   5.532  11.224  0.2463 -0.5996 -0.3024
25105SOL    HW176756   4.583   5.594  11.293  1.4127 -1.5829  0.1796
25105SOL    HW276757   4.627   5.466  11.223 -0.1400 -1.0446 -1.9005
25106SOL     OW76758   1.580   6.069   9.439 -0.5793  0.0882  0.3513
25106SOL    HW176759   1.645   6.008   9.402 -1.0823  0.3905 -1.0943
25106SOL    HW276760   1.625   6.153   9.442 -1.1093  0.4955 -1.4799
25107SOL     OW76761   0.282   6.459  10.669  0.0916  0.4232 -0.3107
25107SOL    HW176762   0.374   6.447  10.642  0.2474  2.2499 -0.7538
25107SOL    HW276763   0.282   6.542  10.717 -1.3514  0.4990 -0.4038
25108SOL     OW76764   0.428   5.009   9.277  0.4591  0.2529  0.3979
25108SOL    HW176765   0.428   4.925   9.231 -0.1883  1.0414 -1.1021
25108SOL    HW276766   0.471   4.990   9.361 -0.1174 -1.6778  0.3101
25109SOL     OW76767   1.403   3.935   9.024 -0.6620 -0.2765 -0.0324
25109SOL    HW176768   1.485   3.934   9.075 -0.9111 -3.9761  0.5628
25109SOL    HW276769   1.421   3.996   8.952  2.1724  0.0192  0.7853
25110SOL     OW76770   1.518   5.431   6.904  0.0321  0.2001 -0.4763
25110SOL    HW176771   1.504   5.336   6.913 -0.1060  0.3310  0.7682
25110SOL    HW276772   1.444   5.461   6.851 -0.7467 -0.1720  0.3686
25111SOL     OW76773   5.864   7.659   2.658  0.3782  0.7009 -0.1245
25111SOL    HW176774   5.909   7.581   2.626 -1.6164 -0.5145 -0.1078
25111SOL    HW276775   5.899   7.731   2.605  2.5313 -0.0994  0.1168
25112SOL     OW76776   7.267   1.503   4.231 -0.6328  0.0706 -0.7010
25112SOL    HW176777   7.294   1.448   4.304  0.8547 -0.6869 -1.7595
25112SOL    HW276778   7.200   1.562   4.268 -0.5407 -0.8448  1.0258
25113SOL     OW76779   6.433   4.539   1.222  0.9067  0.4028 -0.1645
25113SOL    HW176780   6.372   4.591   1.169 -0.8838 -1.6149 -0.2297
25113SOL    HW276781   6.481   4.604   1.274 -1.7033  2.0987  0.3317
25114SOL     OW76782   3.554   0.517   6.546 -0.0381 -0.3366  0.1951
25114SOL    HW176783   3.552   0.421   6.538  1.5861 -0.3591 -0.3708
25114SOL    HW276784   3.644   0.537   6.571  0.0604  1.1261 -1.1296
25115SOL     OW76785   2.793   6.718  11.413 -0.3586  0.4072 -0.2148
25115SOL    HW176786   2.826   6.628  11.407  0.6136  0.7434 -0.1106
25115SOL    HW276787   2.714   6.711  11.467 -0.4328 -0.4187 -0.4193
25116SOL     OW76788   0.842   5.416   7.653 -0.3671 -0.3383 -1.1266
25116SOL    HW176789   0.832   5.447   7.564 -1.9446  1.6313 -0.3367
25116SOL    HW276790   0.825   5.492   7.708  0.0046 -1.6065  0.8937
25117SOL     OW76791   5.125   2.231  11.965 -0.7644 -0.1815  0.3101
25117SOL    HW176792   5.086   2.143  11.964  1.9221 -1.4765 -0.3071
25117SOL    HW276793   5.192   2.226  12.032 -0.7762  1.5495  0.4923
25118SOL     OW76794   1.324   0.780   8.514  0.1938  0.1814  0.6014
25118SOL    HW176795   1.367   0.840   8.453  0.1207 -1.0347 -0.6957
25118SOL    HW276796   1.230   0.797   8.502  0.1919  0.2532  0.7136
25119SOL     OW76797   7.971   7.106   1.323  0.3315  0.5033 -0.3634
25119SOL    HW176798   7.938   7.147   1.403  0.6360  0.3124 -0.1352
25119SOL    HW276799   8.056   7.070   1.348  0.1449 -0.1170 -0.6028
25120SOL     OW76800   5.966   5.998   4.568  0.2292  0.0477  0.2416
25120SOL    HW176801   5.927   6.011   4.482  0.0597  0.2945  0.3518
25120SOL    HW276802   6.033   5.931   4.555  0.7168  0.6156 -0.2355
25121SOL     OW76803   7.337   4.638   4.478 -0.5679  0.1187  0.2220
25121SOL    HW176804   7.383   4.692   4.542  0.8768 -2.7933  1.8802
25121SOL    HW276805   7.363   4.674   4.393  0.5131  1.8366  1.2195
25122SOL     OW76806   2.188   7.080   6.488 -0.2186  0.1378  0.1333
25122SOL    HW176807   2.189   7.059   6.582 -0.9484 -0.9849 -0.0899
25122SOL    HW276808   2.242   7.012   6.448  2.3219  2.1120 -0.0283
25123SOL     OW76809   4.086   1.966   5.494  0.7172  0.2615  0.1960
25123SOL    HW176810   4.046   2.031   5.436  0.9678  0.7856  0.6028
25123SOL    HW276811   4.179   1.987   5.493  0.6860  0.4945  1.0470
25124SOL     OW76812   4.737   2.894   7.124  0.1188  0.0559 -0.0496
25124SOL    HW176813   4.771   2.910   7.036 -0.6745 -1.9135 -0.7438
25124SOL    HW276814   4.814   2.904   7.181  0.4614  2.2741 -0.8005
25125SOL     OW76815   5.539   5.524   5.200  0.0674  0.8427 -0.0045
25125SOL    HW176816   5.464   5.564   5.244 -1.0767 -0.7254 -0.4388
25125SOL    HW276817   5.611   5.534   5.263 -1.0258  0.4871  1.3593
25126SOL     OW76818   2.891   2.716   3.598  0.4316 -0.4288 -0.3662
25126SOL    HW176819   2.910   2.622   3.599  3.1307  0.0520  0.1532
25126SOL    HW276820   2.893   2.743   3.690 -0.3970  0.1503 -0.5023
25127SOL     OW76821   7.491   0.239   4.632  0.2109  0.0268 -0.3493
25127SOL    HW176822   7.509   0.236   4.538  0.2410 -0.1909 -0.3377
25127SOL    HW276823   7.565   0.193   4.672  0.1131 -0.0292 -0.2312
25128SOL     OW76824   7.324   4.682   5.483 -0.3556  0.0572 -0.4381
25128SOL    HW176825   7.383   4.703   5.411 -0.8189  0.0978 -0.8082
25128SOL    HW276826   7.304   4.589   5.471 -0.6655  0.1343 -0.5406
25129SOL     OW76827   1.527   6.797   0.550  0.1065  0.3824  0.1080
25129SOL    HW176828   1.616   6.783   0.584  0.4585 -0.2814 -1.0219
25129SOL    HW276829   1.477   6.722   0.583  0.1903  0.2805  0.0045
25130SOL     OW76830   7.956   4.738  10.886  0.0846 -0.1279  0.0261
25130SOL    HW176831   7.876   4.787  10.866 -0.3049 -0.7742 -0.0270
25130SOL    HW276832   8.025   4.788  10.842 -0.5434 -0.6443 -1.6597
25131SOL     OW76833   1.375   0.464   0.418 -0.2021 -0.2086 -0.1648
25131SOL    HW176834   1.410   0.392   0.365 -2.6899 -0.7087 -1.2378
25131SOL    HW276835   1.364   0.536   0.356  1.9452  1.0963  0.8365
25132SOL     OW76836   4.516   5.972  11.200 -0.7087 -0.0173  0.0801
25132SOL    HW176837   4.456   6.006  11.134 -0.7361 -2.0967 -1.0629
25132SOL    HW276838   4.584   5.927  11.149  1.9633  2.2822  1.2899
25133SOL     OW76839   0.802   2.626  11.614  0.6448  0.3623  0.1735
25133SOL    HW176840   0.777   2.589  11.529  0.7084 -0.3671  0.4703
25133SOL    HW276841   0.734   2.594  11.674  0.7899  0.6008  0.4624
25134SOL     OW76842   7.563   1.589   9.156  0.3332 -0.3513  0.2233
25134SOL    HW176843   7.590   1.533   9.082 -1.3412 -0.1841 -0.5558
25134SOL    HW276844   7.467   1.587   9.153  0.2400 -0.0901  2.2284
25135SOL     OW76845   7.255   2.981   4.273  0.0492  0.4152  0.0905
25135SOL    HW176846   7.215   2.906   4.317 -1.1820  1.1802  0.3332
25135SOL    HW276847   7.180   3.033   4.242  0.7930  2.6002  1.6985
25136SOL     OW76848   7.928   2.174   9.123 -0.0023  0.4472  0.4498
25136SOL    HW176849   7.967   2.088   9.139  0.2283  0.2752 -0.9343
25136SOL    HW276850   7.955   2.197   9.034 -0.8656  1.5151  0.4415
25137SOL     OW76851   7.645   6.340   9.302 -0.7423 -0.2220 -0.5678
25137SOL    HW176852   7.591   6.333   9.380 -1.2875 -1.6916 -1.0503
25137SOL    HW276853   7.735   6.341   9.335 -0.9693 -0.6913  0.0833
25138SOL     OW76854   5.805   1.953   1.560 -0.1435 -0.1275 -0.0650
25138SOL    HW176855   5.835   1.969   1.471  0.1384 -0.9966 -0.1347
25138SOL    HW276856   5.857   1.878   1.590 -2.4739 -1.9445 -0.3152
25139SOL     OW76857   6.043   3.602   5.672  0.4019  0.1757 -0.0238
25139SOL    HW176858   6.125   3.643   5.699  0.4125 -0.6764  1.3007
25139SOL    HW276859   5.981   3.675   5.669  1.1731  0.8116 -0.9561
25140SOL     OW76860   7.477   4.902   2.891  0.0695  0.3113  0.3569
25140SOL    HW176861   7.518   4.853   2.819 -0.5021 -0.2517  0.4038
25140SOL    HW276862   7.420   4.965   2.847  0.4172  0.5846  0.3015
25141SOL     OW76863   6.524   0.179   2.096  0.5338  0.0680  0.4569
25141SOL    HW176864   6.551   0.259   2.050  1.0377  0.4428  1.3789
25141SOL    HW276865   6.605   0.143   2.131  0.0867  0.1802  1.6541
25142SOL     OW76866   7.950   2.062   3.388 -0.0845  0.0560 -0.2762
25142SOL    HW176867   7.980   1.993   3.447  0.5769  0.7249  0.1859
25142SOL    HW276868   8.008   2.136   3.405 -0.7237  0.7056 -0.8230
25143SOL     OW76869   0.478   5.480   8.057 -0.6484  0.4786 -0.1895
25143SOL    HW176870   0.469   5.574   8.073 -0.5793  0.3065  0.9973
25143SOL    HW276871   0.432   5.439   8.131  0.0771 -0.4146 -0.2151
25144SOL     OW76872   3.744   0.341   1.368 -0.0038  0.5553  0.5178
25144SOL    HW176873   3.703   0.255   1.373 -0.5172  0.6322 -1.4317
25144SOL    HW276874   3.838   0.322   1.358  0.0478  0.2807  1.4339
25145SOL     OW76875   6.991   0.532   9.711 -0.8631 -0.7069 -0.3605
25145SOL    HW176876   6.916   0.482   9.680 -0.6335  0.0704 -2.3072
25145SOL    HW276877   6.954   0.614   9.744 -0.8629  0.0960 -2.2210
25146SOL     OW76878   4.350   3.485   5.043  0.0955  0.0190 -0.6929
25146SOL    HW176879   4.444   3.498   5.032  0.0784 -0.1606 -1.0477
25146SOL    HW276880   4.344   3.408   5.101  0.1660 -0.1087 -0.8530
25147SOL     OW76881   4.590   1.507  11.196 -0.1056 -0.0047  0.3163
25147SOL    HW176882   4.506   1.543  11.225 -0.8517 -2.0507  0.8868
25147SOL    HW276883   4.652   1.532  11.265 -0.9069 -0.9377  1.4214
25148SOL     OW76884   7.021   2.622  11.234  0.5997  0.0587 -0.0897
25148SOL    HW176885   6.954   2.670  11.186 -0.5201 -1.5878 -0.2419
25148SOL    HW276886   7.096   2.621  11.174  0.6918  1.6039 -0.0573
25149SOL     OW76887   1.143   2.187  12.244 -0.5032  0.2015  0.0543
25149SOL    HW176888   1.121   2.181  12.151  0.9512  0.0372 -0.3105
25149SOL    HW276889   1.077   2.246  12.280 -1.3700 -0.0987 -0.9840
25150SOL     OW76890   6.924   7.195   6.026  0.2400  0.4855 -0.3501
25150SOL    HW176891   6.926   7.272   5.968  0.3016  1.2629  0.6630
25150SOL    HW276892   6.832   7.185   6.049 -0.4121 -1.9782 -3.3202
25151SOL     OW76893   6.701   2.566   1.638  0.5244 -0.1784  0.1143
25151SOL    HW176894   6.656   2.649   1.623 -2.2085 -1.1946  1.7532
25151SOL    HW276895   6.759   2.583   1.712  0.2160  0.3629  0.2382
25152SOL     OW76896   5.028   4.626   9.485 -0.5717  0.1885  0.1424
25152SOL    HW176897   4.998   4.600   9.397  2.5006 -1.2419 -0.6065
25152SOL    HW276898   4.977   4.572   9.545 -0.7880 -0.8359 -0.9328
25153SOL     OW76899   2.412   4.296   1.164 -0.3974 -0.6748  0.1861
25153SOL    HW176900   2.477   4.271   1.097 -0.1118 -2.4804  1.0599
25153SOL    HW276901   2.345   4.228   1.158 -0.8265 -0.3449  1.1227
25154SOL     OW76902   7.647   5.400   3.514  0.1193  0.3278 -0.0225
25154SOL    HW176903   7.708   5.433   3.580 -1.0077 -1.9348  2.3205
25154SOL    HW276904   7.701   5.347   3.455  1.2337  2.8330 -1.4274
25155SOL     OW76905   3.348   0.976  10.638 -0.0441 -0.4477  0.4398
25155SOL    HW176906   3.394   0.966  10.554  0.9675  0.9432  0.7967
25155SOL    HW276907   3.344   0.887  10.673  0.1342 -0.9538 -0.7582
25156SOL     OW76908   7.410   4.726   4.211 -0.7278 -0.0043  0.0860
25156SOL    HW176909   7.375   4.700   4.126  1.0490 -0.3569 -0.5767
25156SOL    HW276910   7.505   4.720   4.201 -0.3916  2.0677  1.4180
25157SOL     OW76911   6.211   0.603   2.984 -0.1702 -0.4331  0.5229
25157SOL    HW176912   6.301   0.576   2.968  0.2997  0.5130  1.4944
25157SOL    HW276913   6.218   0.681   3.039 -1.5484  0.2967 -0.2725
25158SOL     OW76914   1.921   2.381   1.709  0.1040  0.1782 -0.0672
25158SOL    HW176915   1.897   2.322   1.638 -0.5711  1.2290 -0.7376
25158SOL    HW276916   1.992   2.434   1.673 -1.5591  2.0865 -0.7401
25159SOL     OW76917   7.112   1.919   6.564  0.1525 -0.2992  0.1967
25159SOL    HW176918   7.192   1.928   6.617  1.6646  0.3507 -2.0618
25159SOL    HW276919   7.120   1.986   6.496 -1.9467 -0.7601 -0.5884
25160SOL     OW76920   3.397   0.488   6.276  0.2906 -0.0631  0.2649
25160SOL    HW176921   3.463   0.469   6.208  0.2902  0.9873 -0.0365
25160SOL    HW276922   3.320   0.438   6.248 -0.1782  1.4432 -1.2924
25161SOL     OW76923   0.825   4.571   4.505  0.3244  0.1136  0.4015
25161SOL    HW176924   0.782   4.486   4.501 -0.5188  0.5238  0.4621
25161SOL    HW276925   0.829   4.601   4.414 -0.8854  0.7251  0.5288
25162SOL     OW76926   2.192   1.616   9.042  0.0301  0.0960  0.2786
25162SOL    HW176927   2.282   1.621   9.072 -0.2592  1.2575  1.0273
25162SOL    HW276928   2.199   1.615   8.946  0.8021  2.3134  0.2530
25163SOL     OW76929   5.760   1.174   3.951  0.1039  0.1287 -0.5199
25163SOL    HW176930   5.710   1.169   3.870  0.7034 -2.3287 -0.8395
25163SOL    HW276931   5.832   1.234   3.932 -0.2942  0.3036 -1.4990
25164SOL     OW76932   5.915   0.364   7.103  0.6087  0.4138 -0.0827
25164SOL    HW176933   5.875   0.344   7.018 -0.0524  0.3251  0.2411
25164SOL    HW276934   5.841   0.384   7.160  0.9233 -0.9802  0.8602
25165SOL     OW76935   7.899   2.083  10.644  0.3796 -0.3972  0.1013
25165SOL    HW176936   7.928   2.149  10.582  0.2819 -1.5649 -1.2297
25165SOL    HW276937   7.812   2.056  10.613  1.1134 -2.3408 -0.4135
25166SOL     OW76938   0.304   2.549   5.084 -0.1847 -0.5123  0.4311
25166SOL    HW176939   0.315   2.482   5.153  0.3228 -1.5000 -0.5808
25166SOL    HW276940   0.385   2.600   5.087  0.1756 -1.0565  0.0445
25167SOL     OW76941   0.518   6.680   4.701  0.7566 -0.5574 -0.1222
25167SOL    HW176942   0.578   6.682   4.775 -0.2658  0.1779  0.7139
25167SOL    HW276943   0.487   6.770   4.692 -1.6820 -1.2440  0.7248
25168SOL     OW76944   1.477   3.237   5.125  0.2762 -0.2391 -0.4513
25168SOL    HW176945   1.547   3.241   5.189  0.8414 -3.3155 -0.7163
25168SOL    HW276946   1.413   3.177   5.163 -0.8185  0.2184 -1.4965
25169SOL     OW76947   4.228   1.402  10.622 -0.0651  0.8074 -0.5368
25169SOL    HW176948   4.149   1.454  10.641 -0.6381  0.4374 -1.8012
25169SOL    HW276949   4.238   1.407  10.527  1.2509  0.5554 -0.4312
25170SOL     OW76950   7.923   7.500   7.112  0.2881  0.4560 -0.1683
25170SOL    HW176951   7.874   7.571   7.070  0.8591  1.4538  0.7837
25170SOL    HW276952   7.857   7.452   7.162 -0.2712 -0.3087 -1.5873
25171SOL     OW76953   7.181   2.987   8.900 -0.9192 -0.0476  0.1822
25171SOL    HW176954   7.118   3.044   8.945 -1.2582  0.7797 -1.2866
25171SOL    HW276955   7.264   3.035   8.904 -0.8884 -0.0992  0.1656
25172SOL     OW76956   3.826   1.805   0.604  0.0597  0.8813 -0.4039
25172SOL    HW176957   3.889   1.784   0.536  0.9072  1.3500  0.2214
25172SOL    HW276958   3.877   1.851   0.671 -0.8470  0.8535  0.3264
25173SOL     OW76959   4.949   1.850  10.428  0.2318 -0.3381  0.3179
25173SOL    HW176960   4.858   1.881  10.424  0.5042  0.5317  0.4938
25173SOL    HW276961   4.942   1.755  10.424 -0.7115 -0.3018  0.6750
25174SOL     OW76962   1.423   4.910   3.053 -0.5442  0.2359  0.5430
25174SOL    HW176963   1.403   4.957   2.972  1.4637  0.6697  0.2541
25174SOL    HW276964   1.352   4.847   3.061 -0.9337  0.3373 -1.4360
25175SOL     OW76965   6.855   7.257   0.036  0.1095  0.0576 -0.0143
25175SOL    HW176966   6.824   7.277  -0.053  0.7700  0.5505 -0.1428
25175SOL    HW276967   6.867   7.162   0.036  2.4630  0.2715 -1.2832
25176SOL     OW76968   5.536   1.864  10.384 -0.4352 -0.3583 -0.2607
25176SOL    HW176969   5.574   1.789  10.429  1.1090  0.4864 -0.1044
25176SOL    HW276970   5.566   1.940  10.433 -1.0999  0.4349 -1.0302
25177SOL     OW76971   3.391   3.305  11.816 -0.3819  0.1575 -0.0187
25177SOL    HW176972   3.407   3.234  11.753  0.2073 -2.3910  2.7722
25177SOL    HW276973   3.438   3.380  11.779 -2.0069 -0.4404 -3.7074
25178SOL     OW76974   1.479   1.100   7.650 -0.0826 -0.6570 -0.0974
25178SOL    HW176975   1.505   1.165   7.585 -2.1140 -0.6600 -0.9962
25178SOL    HW276976   1.557   1.087   7.704  0.9629  1.0546 -1.1062
25179SOL     OW76977   0.129   0.933  11.170  0.8121  0.3774  0.5653
25179SOL    HW176978   0.180   1.002  11.127  1.3496  0.0016  0.5778
25179SOL    HW276979   0.052   0.922  11.115  1.0191  0.5716  0.2281
25180SOL     OW76980   1.890   0.430   4.208 -0.3529 -0.7383 -0.0143
25180SOL    HW176981   1.828   0.501   4.191 -0.4167 -0.6632  0.5104
25180SOL    HW276982   1.839   0.350   4.192 -0.0898 -0.6685 -1.2557
25181SOL     OW76983   5.994   1.926   7.426  0.0072 -0.1561  0.1221
25181SOL    HW176984   5.956   1.902   7.511 -1.5165 -1.1690 -0.7917
25181SOL    HW276985   6.040   1.848   7.397  0.2245  0.0688 -0.1440
25182SOL     OW76986   0.207   6.531   2.407 -0.4646  0.3672  0.1900
25182SOL    HW176987   0.119   6.505   2.379  0.2472 -2.6877  0.3832
25182SOL    HW276988   0.192   6.595   2.476 -2.6326 -1.1046  1.2242
25183SOL     OW76989   5.172   0.132   5.617 -0.7800 -0.1969 -0.4314
25183SOL    HW176990   5.259   0.154   5.651 -0.8651 -1.8221  1.0212
25183SOL    HW276991   5.158   0.192   5.544  1.3157  0.4971 -0.3271
25184SOL     OW76992   4.581   0.374   4.605  0.3448  0.4872 -0.0141
25184SOL    HW176993   4.500   0.331   4.578  0.6701 -0.3039  0.2543
25184SOL    HW276994   4.647   0.342   4.544  0.3299  1.6634 -0.6640
25185SOL     OW76995   5.518   7.384   5.785 -0.2048 -0.3498  1.3469
25185SOL    HW176996   5.588   7.415   5.843  1.0201 -1.7573  0.7003
25185SOL    HW276997   5.470   7.320   5.838  1.7666 -2.6860  0.5110
25186SOL     OW76998   1.344   3.753   5.457  0.1551  0.2063  0.0356
25186SOL    HW176999   1.254   3.782   5.441  0.0125 -0.0607  0.3424
25186SOL    HW277000   1.360   3.773   5.549  0.1950 -0.3036  0.1455
25187SOL     OW77001   5.313   7.267   9.962  0.2880 -0.0654 -0.1497
25187SOL    HW177002   5.381   7.295  10.023 -0.0312 -0.4203  0.3803
25187SOL    HW277003   5.340   7.179   9.935  1.0311  0.5152 -1.4277
25188SOL     OW77004   1.259   6.480   7.820  0.3680  0.1157  0.6777
25188SOL    HW177005   1.221   6.395   7.796  1.5758 -0.2900  0.1465
25188SOL    HW277006   1.213   6.504   7.901 -1.5025 -0.0102 -0.2829
25189SOL     OW77007   2.514   4.778   1.516  0.3292  0.1938  0.3681
25189SOL    HW177008   2.515   4.691   1.557  1.6730  0.6887  1.4192
25189SOL    HW277009   2.492   4.838   1.587  2.7613  1.0665  0.4591
25190SOL     OW77010   4.392   2.284   3.411  0.5550 -0.4307 -0.9634
25190SOL    HW177011   4.483   2.270   3.437  0.6936 -1.5259 -1.9354
25190SOL    HW277012   4.342   2.268   3.491  1.2862  2.2499  0.1446
25191SOL     OW77013   7.123   6.590   4.752 -0.3242 -0.0922  0.4459
25191SOL    HW177014   7.110   6.496   4.739  0.1067  0.0826 -1.6150
25191SOL    HW277015   7.218   6.601   4.748 -0.3788  0.4406  0.5579
25192SOL     OW77016   2.270   7.504  10.608 -0.2839  0.0922 -0.1768
25192SOL    HW177017   2.320   7.429  10.575 -0.6626 -0.0837 -0.3664
25192SOL    HW277018   2.185   7.467  10.631 -0.5557  0.5111 -0.4968
25193SOL     OW77019   7.502   7.616   0.939 -0.0209 -0.2993 -0.2931
25193SOL    HW177020   7.428   7.619   0.879  0.5190 -1.9786 -1.0938
25193SOL    HW277021   7.498   7.529   0.979  0.2539  0.3955  1.3325
25194SOL     OW77022   1.703   2.095   9.620  0.0196  0.1713 -0.0330
25194SOL    HW177023   1.719   2.129   9.708 -1.8752  1.7278 -0.2348
25194SOL    HW277024   1.626   2.038   9.630  0.5004 -0.5846 -0.5077
25195SOL     OW77025   3.367   5.281   2.639 -0.0054  0.1389  0.5697
25195SOL    HW177026   3.462   5.284   2.627 -0.0743 -1.2117 -0.4989
25195SOL    HW277027   3.343   5.371   2.662  1.3192  0.8785 -0.7794
25196SOL     OW77028   3.777   3.878   9.892  0.3557 -0.3339  0.0246
25196SOL    HW177029   3.845   3.894   9.827 -0.4375  0.1294 -0.7152
25196SOL    HW277030   3.775   3.957   9.945  0.8157 -0.6014  0.4489
25197SOL     OW77031   0.206   0.696  10.876 -0.7405 -0.3490  0.1058
25197SOL    HW177032   0.155   0.773  10.850 -1.7205 -0.9626  0.1554
25197SOL    HW277033   0.208   0.642  10.797 -0.1777 -0.3427  0.1132
25198SOL     OW77034   5.613   4.619  10.284  0.1447  0.6303  0.3604
25198SOL    HW177035   5.614   4.701  10.234 -3.7028  0.6192 -0.0331
25198SOL    HW277036   5.603   4.647  10.375 -0.1793  0.6246  0.3281
25199SOL     OW77037   6.964   4.096   4.503  0.0633 -0.5691  0.6415
25199SOL    HW177038   6.961   4.180   4.547  0.9294 -1.6395  2.9216
25199SOL    HW277039   7.051   4.092   4.464  0.8760 -1.2240  2.4166
25200SOL     OW77040   6.465   6.407  12.372 -0.4829 -0.0976  0.4740
25200SOL    HW177041   6.400   6.470  12.341 -1.0859 -0.7685  0.3643
25200SOL    HW277042   6.428   6.321  12.352 -0.0601 -0.5109  1.3988
25201SOL     OW77043   0.884   4.037   2.768 -0.3912  0.6431 -0.4719
25201SOL    HW177044   0.864   3.944   2.754  0.3707  0.2226  1.0075
25201SOL    HW277045   0.801   4.075   2.795 -0.1752 -0.2212  1.6063
25202SOL     OW77046   3.861   2.808   5.588 -0.6570 -0.1851 -0.0285
25202SOL    HW177047   3.950   2.785   5.559 -0.2323  1.2554  0.0767
25202SOL    HW277048   3.866   2.901   5.607 -1.3815 -0.6747  2.9540
25203SOL     OW77049   0.002   3.611   3.690  0.3156  0.4520  0.0456
25203SOL    HW177050   0.017   3.696   3.650  0.4807  2.2234  3.5509
25203SOL    HW277051  -0.090   3.613   3.716  0.1936 -0.6613 -0.2556
25204SOL     OW77052   6.038   0.370   0.505 -0.4287  0.3803 -0.7231
25204SOL    HW177053   6.121   0.324   0.518 -0.7167  0.1411  0.4021
25204SOL    HW277054   6.054   0.430   0.433  0.0765 -1.2240 -1.9910
25205SOL     OW77055   5.963   1.283   9.116  0.1229 -0.0365  0.0641
25205SOL    HW177056   6.054   1.299   9.093  0.0474  0.7245  0.2699
25205SOL    HW277057   5.931   1.223   9.049  1.7391 -3.1875  1.9027
25206SOL     OW77058   1.593   4.781  11.878 -0.0615 -0.5354 -0.3083
25206SOL    HW177059   1.652   4.709  11.900 -0.0152 -0.0953  1.0888
25206SOL    HW277060   1.513   4.761  11.926 -0.2926 -0.0190 -0.4815
25207SOL     OW77061   2.984   6.695   4.815  0.3665 -0.6712 -0.4736
25207SOL    HW177062   2.907   6.737   4.776  0.6883 -1.1835 -1.6844
25207SOL    HW277063   2.962   6.602   4.820  0.3416 -0.6264  0.5757
25208SOL     OW77064   1.659   0.641   4.136 -0.5214 -0.0448  0.3794
25208SOL    HW177065   1.721   0.706   4.105  1.4565 -1.1706  1.7576
25208SOL    HW277066   1.606   0.688   4.201 -0.1101  0.5651  0.2834
25209SOL     OW77067   6.829   4.647   7.909 -0.1446  0.2574  0.3500
25209SOL    HW177068   6.747   4.695   7.921  0.4123  1.3625 -0.2093
25209SOL    HW277069   6.842   4.645   7.814  0.9953  0.9808  0.4838
25210SOL     OW77070   4.342   1.450   4.081 -0.0827  0.0686 -0.1919
25210SOL    HW177071   4.335   1.379   4.146 -0.5991 -1.5739 -1.9459
25210SOL    HW277072   4.252   1.473   4.060  0.0222 -0.6704 -1.5777
25211SOL     OW77073   0.387   7.231  10.194  0.3207 -0.7356 -0.1669
25211SOL    HW177074   0.432   7.208  10.113  2.1760 -0.1433  0.6386
25211SOL    HW277075   0.457   7.258  10.254 -1.0711 -0.3026  1.3507
25212SOL     OW77076   7.449   0.478   6.314 -0.2232 -0.5184 -0.4831
25212SOL    HW177077   7.443   0.476   6.219 -0.0829  2.8658 -0.6826
25212SOL    HW277078   7.419   0.565   6.338  0.6352 -0.9411  2.5244
25213SOL     OW77079   3.463   3.477   2.236 -0.0672 -0.1407  0.3350
25213SOL    HW177080   3.395   3.431   2.187  0.3772 -0.4895  0.0456
25213SOL    HW277081   3.432   3.567   2.240 -0.7184 -0.3609  0.5085
25214SOL     OW77082   5.767   1.478   9.509  0.3601  0.0159 -0.0087
25214SOL    HW177083   5.690   1.436   9.546  1.8226 -1.5414  1.3849
25214SOL    HW277084   5.747   1.487   9.416 -0.9365 -1.6591  0.0711
25215SOL     OW77085   2.172   1.189  11.917 -0.1535  0.4318  0.1284
25215SOL    HW177086   2.087   1.155  11.943 -0.1711 -0.6372 -1.2213
25215SOL    HW277087   2.217   1.206  12.000 -1.7678  1.3118  0.8619
25216SOL     OW77088   5.606   4.461  11.681  1.2277  0.6055  0.0350
25216SOL    HW177089   5.612   4.476  11.587  1.4588 -0.2952 -0.1017
25216SOL    HW277090   5.530   4.403  11.691 -0.2550  2.5543  0.6423
25217SOL     OW77091   7.874   0.942   2.541 -0.3674  0.1464 -0.9332
25217SOL    HW177092   7.841   0.852   2.547 -1.9018  0.7619  0.9411
25217SOL    HW277093   7.969   0.932   2.538 -0.5378 -1.5632 -1.5000
25218SOL     OW77094   0.585   4.431   7.166  0.6109 -0.1070 -0.4931
25218SOL    HW177095   0.503   4.382   7.164 -0.0747  0.9153  0.9995
25218SOL    HW277096   0.644   4.377   7.218  0.3631 -0.0939 -0.1948
25219SOL     OW77097   4.979   3.573  10.454  0.5018 -0.4306 -0.1452
25219SOL    HW177098   4.925   3.498  10.430  0.2873 -0.6556  0.9879
25219SOL    HW277099   5.048   3.537  10.510  0.6135  0.1551  0.1097
25220SOL     OW77100   5.674   0.742  10.083 -0.5861  0.1165 -0.2941
25220SOL    HW177101   5.651   0.809  10.147  0.4302  0.3255 -0.1162
25220SOL    HW277102   5.749   0.696  10.122 -0.0235  0.1643 -1.2571
25221SOL     OW77103   2.041   6.537   4.207 -0.4739  0.0483  0.0627
25221SOL    HW177104   1.989   6.595   4.151  0.6219  1.5236  0.5003
25221SOL    HW277105   2.020   6.449   4.176 -1.6466  0.6983 -1.1182
25222SOL     OW77106   3.887   2.837   4.400 -0.2856  0.1294  0.3082
25222SOL    HW177107   3.860   2.929   4.389 -1.3782 -0.0172  1.5399
25222SOL    HW277108   3.924   2.834   4.488  0.6509 -0.4277 -0.0931
25223SOL     OW77109   1.868   2.908   2.263 -0.2332  0.1315  0.3255
25223SOL    HW177110   1.910   2.906   2.349  1.3369  0.8374 -0.3783
25223SOL    HW277111   1.866   2.817   2.235 -0.0018 -0.0142  0.7635
25224SOL     OW77112   7.359   4.908  11.240  0.0434  0.7940  0.5439
25224SOL    HW177113   7.434   4.872  11.286 -0.1011  0.7620  0.7545
25224SOL    HW277114   7.300   4.834  11.227 -0.7495  1.1436  1.9446
25225SOL     OW77115   1.145   0.446   2.907  0.1538  0.2543 -0.1718
25225SOL    HW177116   1.092   0.368   2.922  1.6126 -0.6853  0.3707
25225SOL    HW277117   1.087   0.520   2.925 -0.6748 -0.7344  1.3583
25226SOL     OW77118   6.989   5.886   3.066  0.3576 -0.0513  0.2334
25226SOL    HW177119   6.907   5.927   3.091  0.0594 -0.7101  0.3569
25226SOL    HW277120   7.056   5.938   3.110  0.0041  0.4183  0.2225
25227SOL     OW77121   7.332   3.165   9.434 -0.0238  0.2578  0.5536
25227SOL    HW177122   7.322   3.210   9.350 -0.2925 -1.4326 -0.3533
25227SOL    HW277123   7.269   3.093   9.430  1.4836 -1.1387  1.3086
25228SOL     OW77124   4.218   3.947   5.142 -0.0824  0.0227  0.3380
25228SOL    HW177125   4.132   3.925   5.107 -0.5139  1.0416  0.7217
25228SOL    HW277126   4.209   4.037   5.172  0.5654 -0.4586  2.1294
25229SOL     OW77127   6.039   1.031   0.618 -0.1019 -0.3372  0.2756
25229SOL    HW177128   5.961   1.012   0.566 -0.6055 -0.1285  0.9412
25229SOL    HW277129   6.049   1.127   0.613 -0.0325 -0.3370  0.3960
25230SOL     OW77130   0.631   0.956  12.361 -0.1368  0.0946  0.2765
25230SOL    HW177131   0.582   0.901  12.300 -0.7556  0.5120  0.3926
25230SOL    HW277132   0.665   1.028  12.307  3.7754 -2.1644 -0.6942
25231SOL     OW77133   4.190   5.871   3.773  0.3512  0.1264  0.3673
25231SOL    HW177134   4.234   5.923   3.841  2.0663  0.6661 -1.0741
25231SOL    HW277135   4.184   5.783   3.811  1.3350  0.3955  1.2068
25232SOL     OW77136   6.004   2.145   4.419 -0.3875 -0.3805  0.7347
25232SOL    HW177137   6.074   2.081   4.411  0.7177  0.8974 -0.1056
25232SOL    HW277138   6.031   2.202   4.491 -0.5598  0.1371  0.3929
25233SOL     OW77139   6.487   6.107   8.310 -0.3130 -0.6522 -0.3322
25233SOL    HW177140   6.455   6.194   8.285  0.5353  0.1075  1.1068
25233SOL    HW277141   6.507   6.115   8.403  0.2717 -2.2569 -0.2975
25234SOL     OW77142   6.578   0.124   8.967  0.2181  0.0314  0.7622
25234SOL    HW177143   6.650   0.092   8.913  1.3197 -0.5055  2.4738
25234SOL    HW277144   6.503   0.071   8.942  0.5432  0.1726 -0.6006
25235SOL     OW77145   1.218   2.450   9.297 -0.0503  0.5213 -0.0147
25235SOL    HW177146   1.262   2.508   9.235  0.3743  0.7498  0.4925
25235SOL    HW277147   1.278   2.376   9.307 -0.4484  0.1388 -0.4243
25236SOL     OW77148   6.633   1.888   9.601 -0.2758  0.2214 -0.0440
25236SOL    HW177149   6.627   1.797   9.629  3.1715 -0.2815 -0.4879
25236SOL    HW277150   6.723   1.913   9.621 -0.8130  3.2246 -0.9012
25237SOL     OW77151   2.542   6.696  10.176 -0.3007  0.4287  0.1929
25237SOL    HW177152   2.629   6.728  10.200 -0.7492  1.5690  0.3898
25237SOL    HW277153   2.511   6.760  10.111 -0.4455 -0.7387 -0.9285
25238SOL     OW77154   0.324   3.343   7.006 -0.1181  0.1752 -0.0681
25238SOL    HW177155   0.337   3.418   6.948  0.5211  0.8328  0.8841
25238SOL    HW277156   0.402   3.343   7.063 -0.1426 -1.1653  0.0032
25239SOL     OW77157   5.965   5.654  11.003  0.5416  0.4720  0.2159
25239SOL    HW177158   5.905   5.615  10.940  2.0784  0.4553 -1.3306
25239SOL    HW277159   5.947   5.608  11.085 -0.0744 -1.0358 -0.7266
25240SOL     OW77160   0.870   4.869   7.826 -0.1937 -0.4573 -0.1200
25240SOL    HW177161   0.952   4.902   7.789  0.2581  0.2214  1.4066
25240SOL    HW277162   0.807   4.876   7.754  0.0208  3.1992 -0.1149
25241SOL     OW77163   1.555   6.770   0.093  0.1684  0.2781  0.1041
25241SOL    HW177164   1.605   6.710   0.038  1.5514  1.4523  0.0228
25241SOL    HW277165   1.519   6.834   0.032  0.3121  0.6215  0.3756
25242SOL     OW77166   6.545   0.332   4.776  0.0584 -0.2047  0.4588
25242SOL    HW177167   6.612   0.387   4.816 -0.2040 -0.4686  1.2715
25242SOL    HW277168   6.553   0.350   4.682  0.3459  0.8002  0.6615
25243SOL     OW77169   4.696   3.736   8.300  0.4212  0.0045  0.3610
25243SOL    HW177170   4.770   3.786   8.334  0.7836 -0.9237  0.9980
25243SOL    HW277171   4.658   3.792   8.233  1.5699  0.5903  0.1684
25244SOL     OW77172   3.475   6.736   9.017  0.3707  0.0860  0.0425
25244SOL    HW177173   3.381   6.723   9.028  0.2602  0.4578 -0.4004
25244SOL    HW277174   3.483   6.826   8.984  0.9694  0.4950  1.2526
25245SOL     OW77175   5.504   2.081   9.011  0.0661  0.2809 -0.0922
25245SOL    HW177176   5.450   2.026   8.953  0.5702 -0.9059  0.5311
25245SOL    HW277177   5.441   2.130   9.064 -0.4751 -1.8848  1.3914
25246SOL     OW77178   1.382   4.798   9.988  0.3766  0.0604  0.2722
25246SOL    HW177179   1.465   4.812  10.033 -0.1031 -0.6135  1.4207
25246SOL    HW277180   1.394   4.717   9.940  0.3710 -0.0546  0.4647
25247SOL     OW77181   6.801   5.150  12.105  0.8427 -0.0024  0.0925
25247SOL    HW177182   6.768   5.069  12.065  0.5916  0.8223 -1.4453
25247SOL    HW277183   6.867   5.182  12.045 -0.8953  2.2953 -0.7627
25248SOL     OW77184   0.011   4.765   0.850 -0.3388  0.6080  0.1824
25248SOL    HW177185  -0.044   4.827   0.802 -1.4188  1.5940  2.5626
25248SOL    HW277186   0.090   4.815   0.871 -0.1173  0.3579 -0.0420
25249SOL     OW77187   3.292   4.424   8.353  0.0208 -0.0044 -0.0474
25249SOL    HW177188   3.267   4.473   8.275  0.6319 -0.2285 -0.3952
25249SOL    HW277189   3.382   4.453   8.372 -0.2119  0.2451  0.7317
25250SOL     OW77190   7.932   2.461  11.050  0.8021  0.0232  0.3144
25250SOL    HW177191   7.996   2.455  10.978  0.3723  0.7601 -0.1381
25250SOL    HW277192   7.984   2.490  11.125  1.2042 -0.4771  0.2395
25251SOL     OW77193   5.861   1.007   8.398  0.0434 -0.0809  0.7389
25251SOL    HW177194   5.792   0.987   8.335  0.0749  2.1661 -0.1087
25251SOL    HW277195   5.923   0.934   8.391 -1.9081 -1.8469  1.1048
25252SOL     OW77196   0.918   3.825   3.022 -0.1375 -0.0934 -0.4056
25252SOL    HW177197   0.934   3.866   2.937  2.9879 -0.3962 -0.0984
25252SOL    HW277198   0.917   3.898   3.084 -0.2374 -0.0314 -0.4809
25253SOL     OW77199   2.715   5.888   6.803  0.3963 -0.8948 -0.0574
25253SOL    HW177200   2.708   5.961   6.864  1.0929 -0.8144 -0.0691
25253SOL    HW277201   2.624   5.866   6.781  0.1653 -0.4877  0.4812
25254SOL     OW77202   1.632   2.767   0.302 -0.2137  0.1169  0.1235
25254SOL    HW177203   1.538   2.779   0.320 -0.2932  0.5995 -0.5683
25254SOL    HW277204   1.639   2.777   0.207  0.9579  3.1928  0.4325
25255SOL     OW77205   7.425   4.541   8.145  1.0200  0.3731  0.4317
25255SOL    HW177206   7.446   4.491   8.066 -0.4907  1.1425 -0.5003
25255SOL    HW277207   7.346   4.499   8.179 -0.4111  2.1617 -0.4876
25256SOL     OW77208   0.264   5.199  10.200  0.2744  0.7962 -0.3666
25256SOL    HW177209   0.314   5.182  10.121 -0.5016  0.1269 -0.7264
25256SOL    HW277210   0.194   5.134  10.199  1.2575 -0.3869  1.7737
25257SOL     OW77211   7.683   3.101   7.828 -0.4795 -0.6969  0.2155
25257SOL    HW177212   7.650   3.068   7.912 -0.9412  0.7572  0.6374
25257SOL    HW277213   7.765   3.054   7.815  0.9911  0.8834  2.8311
25258SOL     OW77214   1.841   5.572   3.495  0.8016 -0.4758  0.1760
25258SOL    HW177215   1.851   5.661   3.530 -1.8783  0.5089 -1.2991
25258SOL    HW277216   1.769   5.578   3.434  1.7368 -3.3302 -1.3952
25259SOL     OW77217   7.100   4.502   0.199 -0.0058  0.2912  0.2813
25259SOL    HW177218   7.063   4.415   0.183 -0.1809  0.0288  1.9703
25259SOL    HW277219   7.106   4.509   0.294  1.6535  1.4523  0.1372
25260SOL     OW77220   0.110   6.995   5.240 -0.4731  0.1696 -0.2338
25260SOL    HW177221   0.046   6.946   5.189  0.6828 -0.3620 -1.2443
25260SOL    HW277222   0.136   7.068   5.183 -1.4819  1.4551  0.8826
25261SOL     OW77223   2.447   4.799   4.427  0.0562 -0.2160  0.2831
25261SOL    HW177224   2.411   4.886   4.445 -0.1654 -0.5510  1.5562
25261SOL    HW277225   2.531   4.816   4.386 -1.2834  0.5951 -2.3721
25262SOL     OW77226   1.700   5.275   9.491  0.5428  0.4563  0.3838
25262SOL    HW177227   1.683   5.352   9.436 -2.5612  0.1235  0.6599
25262SOL    HW277228   1.729   5.207   9.430 -2.4118  0.2130 -0.9265
25263SOL     OW77229   0.948   6.517   1.546 -0.6538 -0.5082  0.0373
25263SOL    HW177230   0.955   6.448   1.480  0.7496 -0.0947 -0.2722
25263SOL    HW277231   1.020   6.500   1.607  1.4862  2.1333 -1.4996
25264SOL     OW77232   0.032   5.543   8.353 -0.0249  0.3412  0.5090
25264SOL    HW177233  -0.006   5.563   8.268 -0.1127  0.3598  0.5517
25264SOL    HW277234  -0.033   5.576   8.416 -1.4851 -2.4218  0.6049
25265SOL     OW77235   2.705   4.300   5.792  0.1934  0.2134 -0.2604
25265SOL    HW177236   2.756   4.300   5.711  0.5080  1.3698 -0.0851
25265SOL    HW277237   2.734   4.221   5.838  2.2757  1.1094  0.0846
25266SOL     OW77238   0.636   2.953   4.842  0.0379  0.8110 -0.3141
25266SOL    HW177239   0.558   2.966   4.896  0.0163  1.1151 -0.4177
25266SOL    HW277240   0.657   3.040   4.808  0.3222  0.7010 -0.4252
25267SOL     OW77241   6.276   1.472   5.237 -0.2232 -0.1950  0.0281
25267SOL    HW177242   6.296   1.565   5.239  1.1741 -0.4776  2.1171
25267SOL    HW277243   6.180   1.468   5.230 -0.2435  1.3437 -0.9656
25268SOL     OW77244   2.778   6.389   0.597  0.1375  0.6309 -0.0218
25268SOL    HW177245   2.830   6.385   0.678  0.8110 -0.1383 -0.4810
25268SOL    HW277246   2.722   6.312   0.600  0.1327  0.6237 -0.2662
25269SOL     OW77247   3.058   2.608   7.728  0.3006  0.1124 -0.7528
25269SOL    HW177248   3.112   2.592   7.805 -0.1641  0.7377 -0.2808
25269SOL    HW277249   3.097   2.685   7.686  0.3764 -0.0450 -0.9700
25270SOL     OW77250   4.995   0.231  11.501  0.2261 -0.4901  0.0760
25270SOL    HW177251   4.984   0.219  11.407 -0.0317 -0.6073  0.1210
25270SOL    HW277252   5.006   0.325  11.513 -1.1801 -0.3065  0.0746
25271SOL     OW77253   0.682   1.443  10.743 -0.4483 -0.2177  0.3755
25271SOL    HW177254   0.655   1.386  10.670  1.0182  1.6572 -1.7615
25271SOL    HW277255   0.773   1.465  10.724 -0.6108  1.9056  1.7575
25272SOL     OW77256   1.728   5.565   3.245 -0.1137  0.1079  0.8169
25272SOL    HW177257   1.638   5.544   3.220  0.6993 -0.0628 -2.3347
25272SOL    HW277258   1.746   5.650   3.204  1.4032 -0.2567  0.6458
25273SOL     OW77259   7.478   1.584   3.913 -0.3936 -0.4927 -0.4209
25273SOL    HW177260   7.507   1.562   4.001 -0.5296 -0.5037 -0.3790
25273SOL    HW277261   7.559   1.586   3.861 -0.4180 -1.3978 -0.4974
25274SOL     OW77262   1.675   7.255   9.334 -0.2393  0.1831 -0.2212
25274SOL    HW177263   1.595   7.209   9.360 -1.0338  0.8794 -1.3281
25274SOL    HW277264   1.720   7.193   9.277  0.7683 -0.7700  1.5347
25275SOL     OW77265   3.477   6.734   2.827  0.1234 -0.0655 -0.3275
25275SOL    HW177266   3.491   6.642   2.849 -1.9544 -0.5114 -0.6872
25275SOL    HW277267   3.472   6.736   2.732 -0.9903  0.2141 -0.2734
25276SOL     OW77268   5.913   0.250   2.704 -0.1245  0.2512  0.3862
25276SOL    HW177269   5.988   0.237   2.647 -1.0469  0.4504 -0.9430
25276SOL    HW277270   5.938   0.323   2.761  0.0042  1.6066 -1.3310
25277SOL     OW77271   7.252   4.049   2.023 -0.1381 -0.7383 -0.3129
25277SOL    HW177272   7.292   3.970   1.984  0.1002 -0.4299 -0.7031
25277SOL    HW277273   7.309   4.121   1.994  1.2411 -0.6831  2.2378
25278SOL     OW77274   6.717   5.135   0.713  0.0987 -0.3034 -0.1920
25278SOL    HW177275   6.682   5.143   0.802 -1.6063 -0.7363 -0.7994
25278SOL    HW277276   6.737   5.226   0.688  0.6410 -0.1804  0.6239
25279SOL     OW77277   3.182   4.583   8.152 -0.4748  0.2135 -0.4046
25279SOL    HW177278   3.096   4.624   8.147 -0.7107 -0.3170 -0.9108
25279SOL    HW277279   3.177   4.510   8.090  0.5645  0.5922 -0.9688
25280SOL     OW77280   5.235   3.122   8.744  0.3636 -0.1318  0.0066
25280SOL    HW177281   5.312   3.065   8.738 -0.7078 -1.6035 -0.0258
25280SOL    HW277282   5.165   3.065   8.775 -0.3444  1.5530  1.6890
25281SOL     OW77283   2.643   4.390   8.443  0.5057  0.0371  0.1050
25281SOL    HW177284   2.640   4.326   8.514  1.5949  0.3766  0.4802
25281SOL    HW277285   2.715   4.449   8.467  0.3013  0.6864 -0.8313
25282SOL     OW77286   6.087   1.175  11.995 -0.2589  1.1406  0.0183
25282SOL    HW177287   6.058   1.130  12.074  1.3629  1.5707  0.8965
25282SOL    HW277288   6.036   1.256  11.994 -0.8420  0.7844  0.1938
25283SOL     OW77289   1.712   7.050   3.124 -0.1997  0.1924  0.5622
25283SOL    HW177290   1.790   7.007   3.160  0.8533 -1.3201 -3.0408
25283SOL    HW277291   1.747   7.126   3.076 -0.6230 -1.3221 -2.3221
25284SOL     OW77292   2.677   0.588   7.296  0.0268  0.2802 -0.0117
25284SOL    HW177293   2.677   0.684   7.293  0.8356  0.2930  0.2146
25284SOL    HW277294   2.765   0.565   7.327  0.0214 -0.5515 -0.5828
25285SOL     OW77295   3.403   1.399   8.537 -0.1974 -0.1814  0.7793
25285SOL    HW177296   3.340   1.340   8.576 -1.2769 -0.3768 -1.1336
25285SOL    HW277297   3.354   1.480   8.521 -0.3460 -0.6427 -1.5852
25286SOL     OW77298   4.360   6.179   9.297 -0.0995  0.4874 -0.6111
25286SOL    HW177299   4.443   6.200   9.253 -0.3039  2.1433 -0.2745
25286SOL    HW277300   4.377   6.198   9.389 -1.2189  2.2117 -0.7094
25287SOL     OW77301   3.929   0.455   8.952  0.4018 -0.4117  0.2868
25287SOL    HW177302   3.995   0.402   8.996  0.6363 -0.6802 -0.3720
25287SOL    HW277303   3.925   0.536   9.003  1.0483 -0.5002  0.4859
25288SOL     OW77304   1.011   0.376   6.515 -0.6567 -0.1599  0.0628
25288SOL    HW177305   0.949   0.449   6.504 -0.1373  0.3291  0.3294
25288SOL    HW277306   0.967   0.301   6.474 -0.5571  0.6356 -1.5670
25289SOL     OW77307   0.808   4.775   0.599  0.0301 -0.2225  0.3617
25289SOL    HW177308   0.788   4.787   0.692  0.1731  0.9655  0.2577
25289SOL    HW277309   0.887   4.721   0.599 -0.5527 -1.0968  0.8944
25290SOL     OW77310   1.827   1.592   6.467  0.2315 -0.4662  0.0328
25290SOL    HW177311   1.819   1.685   6.489 -1.3246 -0.5909  0.1119
25290SOL    HW277312   1.854   1.550   6.549 -0.2607 -0.2329  0.3176
25291SOL     OW77313   2.575   2.526   8.057 -0.0507  0.0310 -0.8840
25291SOL    HW177314   2.560   2.580   7.980  0.5913  0.8814 -0.4348
25291SOL    HW277315   2.669   2.533   8.074 -0.3393  0.8065  0.6212
25292SOL     OW77316   6.182   5.965   1.203 -0.1031  0.1807 -0.3122
25292SOL    HW177317   6.245   5.926   1.143  0.4258  0.0557  0.3247
25292SOL    HW277318   6.174   5.903   1.275 -0.8693  0.2494 -0.3205
25293SOL     OW77319   1.947   7.828   4.720 -0.2364  0.8432 -0.0709
25293SOL    HW177320   1.993   7.790   4.646 -0.4819 -2.4790  1.3060
25293SOL    HW277321   1.983   7.916   4.728  3.0259 -0.2133 -1.4668
25294SOL     OW77322   0.489   5.596  11.856  0.0262  0.0723 -1.2934
25294SOL    HW177323   0.540   5.518  11.875 -1.5270 -0.2617  2.1004
25294SOL    HW277324   0.527   5.664  11.911 -0.4508  0.9905 -2.0556
25295SOL     OW77325   2.403   0.435   8.036  0.5710 -0.0999  0.4715
25295SOL    HW177326   2.409   0.529   8.020 -0.5655 -0.2986 -1.3631
25295SOL    HW277327   2.471   0.417   8.101  1.7259  1.7428 -0.1629
25296SOL     OW77328   6.697   5.458   8.326 -0.2102  0.1044  0.0953
25296SOL    HW177329   6.603   5.469   8.341 -0.8621 -2.0702 -1.7811
25296SOL    HW277330   6.710   5.481   8.234  0.8604 -0.7063  0.0220
25297SOL     OW77331   5.193   5.280  11.105 -0.4496  0.5930  0.3763
25297SOL    HW177332   5.205   5.324  11.021  1.7541  0.8991  0.7939
25297SOL    HW277333   5.274   5.297  11.153 -0.8089 -1.3014  1.7791
25298SOL     OW77334   2.559   6.286   1.767  0.1475  0.1727  0.4598
25298SOL    HW177335   2.567   6.279   1.672 -0.0339  0.1002  0.4485
25298SOL    HW277336   2.555   6.380   1.784 -2.8254  0.1972  0.1135
25299SOL     OW77337   0.346   6.295   2.400  0.1213  0.1973 -0.1331
25299SOL    HW177338   0.279   6.300   2.332 -0.1380  0.3456  0.1248
25299SOL    HW277339   0.333   6.376   2.451 -1.4146 -1.0718  1.6565
25300SOL     OW77340   5.932   4.474   9.143  0.4531 -0.0981  0.4098
25300SOL    HW177341   5.987   4.522   9.205  0.1486  0.2991  0.3719
25300SOL    HW277342   5.869   4.427   9.197  1.1693 -0.9995  0.4875
25301SOL     OW77343   6.457   5.094   6.989  0.3901  0.1715 -0.8881
25301SOL    HW177344   6.470   5.161   7.056  1.2210  0.4952 -1.3570
25301SOL    HW277345   6.373   5.054   7.011  0.8815 -0.0862  0.6568
25302SOL     OW77346   0.169   7.941  10.844 -0.5808 -0.5741 -0.3178
25302SOL    HW177347   0.171   8.027  10.802  0.4365 -0.4581 -0.0542
25302SOL    HW277348   0.082   7.934  10.882  0.1506  1.5040  2.0054
25303SOL     OW77349   6.322   1.986   5.337  0.1709 -0.0976 -0.0323
25303SOL    HW177350   6.237   1.949   5.316  0.1430  0.4489 -0.9762
25303SOL    HW277351   6.382   1.911   5.338 -0.2820 -0.4513  0.4089
25304SOL     OW77352   2.161   3.711  12.153  0.6798 -0.1849 -0.0478
25304SOL    HW177353   2.097   3.778  12.131 -0.1927 -1.1874 -0.6770
25304SOL    HW277354   2.113   3.629  12.148  1.9059 -0.9365 -0.0672
25305SOL     OW77355   4.900   6.466  10.104 -0.4908  0.2648 -0.1728
25305SOL    HW177356   4.871   6.377  10.084 -0.8294 -0.5161  3.2529
25305SOL    HW277357   4.822   6.520  10.090 -1.4866 -0.6480  1.5469
25306SOL     OW77358   7.477   1.878   0.541  0.3400 -0.0854 -0.6887
25306SOL    HW177359   7.557   1.922   0.512  0.5827 -0.1989 -0.2054
25306SOL    HW277360   7.507   1.814   0.605  0.0051 -1.0586 -1.4886
25307SOL     OW77361   6.091   0.283  11.246 -0.7216  0.0593 -0.2255
25307SOL    HW177362   6.036   0.261  11.171 -0.7891  1.2456 -0.5438
25307SOL    HW277363   6.099   0.379  11.243 -0.1798  0.0690  0.8963
25308SOL     OW77364   2.430   3.526   0.762  0.1208  0.1735 -0.1090
25308SOL    HW177365   2.409   3.521   0.855  0.0902 -2.9511 -0.1662
25308SOL    HW277366   2.379   3.456   0.722  2.0405 -0.2388 -2.0429
25309SOL     OW77367   2.476   7.490   4.937  0.3362 -0.4359  0.3967
25309SOL    HW177368   2.392   7.537   4.939  0.3527 -0.3987  2.2268
25309SOL    HW277369   2.529   7.538   4.874 -0.2213  1.0161  0.9841
25310SOL     OW77370   2.853   4.879   4.151 -0.0165 -0.0187 -0.4185
25310SOL    HW177371   2.795   4.938   4.199 -1.3324 -1.3805 -0.2373
25310SOL    HW277372   2.848   4.909   4.060 -0.8914  0.0086 -0.3739
25311SOL     OW77373   3.820   4.485   3.695  0.5110  0.3332  0.2248
25311SOL    HW177374   3.802   4.391   3.699  1.1979  0.1394 -0.8163
25311SOL    HW277375   3.758   4.518   3.629  0.9526  0.4322 -0.1429
25312SOL     OW77376   6.211   2.892  11.202 -0.3395  0.5073  0.5544
25312SOL    HW177377   6.254   2.949  11.139  0.1807 -1.4634 -0.9591
25312SOL    HW277378   6.282   2.852  11.252 -0.4522 -1.0901 -0.4741
25313SOL     OW77379   3.260   3.834  11.313 -0.4310  0.1177  0.1164
25313SOL    HW177380   3.301   3.909  11.270  0.0774 -0.2361 -0.0306
25313SOL    HW277381   3.178   3.820  11.266 -0.4567  0.4894  0.0511
25314SOL     OW77382   4.342   1.031   1.340 -0.2083  0.1286  0.1708
25314SOL    HW177383   4.258   1.044   1.382 -0.3608  1.3828 -0.4659
25314SOL    HW277384   4.379   1.119   1.331  0.0061 -0.1058 -1.8753
25315SOL     OW77385   1.274   1.598   4.866  0.2117 -0.6210  0.4065
25315SOL    HW177386   1.232   1.513   4.851  0.4849 -0.6862 -0.0108
25315SOL    HW277387   1.216   1.660   4.822 -0.8159 -0.3830  1.9954
25316SOL     OW77388   4.929   4.124  11.144 -0.5441 -0.0878 -0.3805
25316SOL    HW177389   4.908   4.058  11.209 -0.3899  0.1710 -0.0660
25316SOL    HW277390   4.880   4.097  11.066 -2.9805  1.1066  0.6311
25317SOL     OW77391   1.675   6.411   4.696  0.3520  0.0207  0.4687
25317SOL    HW177392   1.736   6.383   4.764 -0.9373  0.4797  1.8749
25317SOL    HW277393   1.706   6.368   4.617  2.2123 -0.1165  1.2168
25318SOL     OW77394   7.383   3.695   8.610 -0.3838  0.4512 -0.6499
25318SOL    HW177395   7.322   3.624   8.589  0.5044 -1.0399  1.4192
25318SOL    HW277396   7.447   3.693   8.539 -2.5908  2.0691 -2.8902
25319SOL     OW77397   5.912   6.478   0.897 -0.3124  0.1794 -0.0877
25319SOL    HW177398   5.964   6.500   0.820  1.1917  1.1394  1.1392
25319SOL    HW277399   5.826   6.455   0.862  0.4946 -0.0162 -2.0796
25320SOL     OW77400   7.758   2.171   8.585  0.2815 -0.2973  0.0146
25320SOL    HW177401   7.838   2.131   8.619  1.2757 -0.8352 -2.7318
25320SOL    HW277402   7.703   2.097   8.560  0.1994  0.0569 -0.8796
25321SOL     OW77403   1.198   5.328   2.567 -0.3097 -0.4801  0.1394
25321SOL    HW177404   1.190   5.418   2.599 -1.4014 -0.6026  0.2413
25321SOL    HW277405   1.284   5.299   2.598 -1.1623 -0.5052  2.7666
25322SOL     OW77406   3.268   2.568   9.985 -0.5218  0.4372  0.4705
25322SOL    HW177407   3.221   2.515  10.050  1.3197  1.0722  2.4337
25322SOL    HW277408   3.199   2.619   9.942 -1.8198  0.0357  1.9463
25323SOL     OW77409   4.193   4.338   1.022 -0.7537 -0.1113 -0.2068
25323SOL    HW177410   4.258   4.351   1.091 -0.3921  2.9962 -1.0092
25323SOL    HW277411   4.240   4.292   0.953  0.3355  1.1662 -0.3473
25324SOL     OW77412   6.908   5.493   6.330  0.4220 -0.4980 -0.6285
25324SOL    HW177413   6.942   5.421   6.277 -0.2788 -1.1150 -0.2611
25324SOL    HW277414   6.984   5.550   6.346  0.8075 -0.7360 -1.5867
25325SOL     OW77415   4.625   3.663   0.519  0.0099  0.8166  0.3034
25325SOL    HW177416   4.609   3.670   0.613  2.6333  2.3340  0.7361
25325SOL    HW277417   4.568   3.730   0.480 -1.3516 -0.0583  0.7117
25326SOL     OW77418   6.311   7.039  11.121  0.2326 -0.7355  0.4380
25326SOL    HW177419   6.281   6.955  11.088 -0.6116 -0.1964 -0.2377
25326SOL    HW277420   6.397   7.052  11.081 -0.9315  0.0803 -1.9499
25327SOL     OW77421   7.650   4.821   5.781 -0.0456 -0.1733 -0.0226
25327SOL    HW177422   7.585   4.870   5.730  1.4234  0.2675 -1.5642
25327SOL    HW277423   7.631   4.729   5.763 -0.7694 -0.0759  0.2270
25328SOL     OW77424   7.074   1.527  10.016  0.0614  0.2005 -0.5724
25328SOL    HW177425   7.167   1.549  10.012 -0.3627  1.9740 -2.7393
25328SOL    HW277426   7.070   1.433   9.996  1.4630 -0.4937  1.9304
25329SOL     OW77427   5.404   7.528  11.718  0.1294  0.3016 -0.0996
25329SOL    HW177428   5.356   7.603  11.683 -0.0543  0.6733  0.9066
25329SOL    HW277429   5.495   7.545  11.692  0.0813  0.8454  0.0627
25330SOL     OW77430   6.187   4.521   7.832  0.4488 -0.2361 -0.2985
25330SOL    HW177431   6.144   4.450   7.879  1.3942 -0.0833  0.8412
25330SOL    HW277432   6.278   4.517   7.861  0.4542  1.6560  0.0541
25331SOL     OW77433   5.230   3.743  11.323  0.3875  0.4534 -0.1560
25331SOL    HW177434   5.150   3.709  11.284  1.4153 -1.1236 -0.9953
25331SOL    HW277435   5.286   3.764  11.248  0.8879  1.2602  0.4185
25332SOL     OW77436   4.933   6.068   3.093 -0.3477 -0.3576 -0.2037
25332SOL    HW177437   4.868   6.000   3.111  0.8684 -1.6144 -0.3418
25332SOL    HW277438   5.017   6.025   3.111  0.5008  0.8299 -1.2084
25333SOL     OW77439   4.030   7.713   3.048 -0.4626 -0.0567 -0.4268
25333SOL    HW177440   3.965   7.643   3.050 -0.0687 -0.4252 -0.4145
25333SOL    HW277441   3.978   7.794   3.048 -0.9078 -0.3390 -0.0530
25334SOL     OW77442   3.203   0.947   1.612 -0.2819 -0.3642  0.5150
25334SOL    HW177443   3.169   0.866   1.651  1.1864 -1.4310 -0.3191
25334SOL    HW277444   3.149   0.959   1.534 -1.8349  0.6209  1.6812
25335SOL     OW77445   0.816   0.948  11.947  0.6076 -0.2108 -0.1978
25335SOL    HW177446   0.725   0.975  11.961 -0.4318 -2.3157 -2.2273
25335SOL    HW277447   0.868   1.025  11.971 -1.7635  1.3935  0.1003
25336SOL     OW77448   7.464   3.741   2.265 -0.1265 -0.3519 -0.0068
25336SOL    HW177449   7.376   3.775   2.248 -0.5635 -1.4285  0.0061
25336SOL    HW277450   7.519   3.783   2.199 -0.6546  0.3046 -0.0364
25337SOL     OW77451   0.100   5.098   8.373  0.6246  0.2600 -0.2518
25337SOL    HW177452   0.018   5.101   8.324  1.4503  1.0210 -1.6480
25337SOL    HW277453   0.152   5.030   8.329  0.6787 -0.3796  0.7607
25338SOL     OW77454   5.966   5.589   8.884  0.2963  0.3201  0.3831
25338SOL    HW177455   5.999   5.556   8.800 -0.6961 -2.1821  0.8797
25338SOL    HW277456   5.899   5.653   8.859 -0.6655 -1.0773 -0.8116
25339SOL     OW77457   1.419   4.123   5.423  0.6520  0.0808  1.2407
25339SOL    HW177458   1.334   4.089   5.448 -1.0517  1.3391 -2.1697
25339SOL    HW277459   1.463   4.049   5.381 -0.1458  0.1896  0.1553
25340SOL     OW77460   4.554   3.855  11.473  0.2480 -0.2271 -0.6524
25340SOL    HW177461   4.602   3.815  11.545 -1.5191 -1.1946  0.0692
25340SOL    HW277462   4.558   3.789  11.403 -1.5018 -1.1703  0.0594
25341SOL     OW77463   1.290   0.701   7.109 -0.6039 -0.1392 -0.2247
25341SOL    HW177464   1.279   0.793   7.132  1.1712 -0.4396  2.2575
25341SOL    HW277465   1.370   0.698   7.057 -2.2206 -0.0393 -2.9523
25342SOL     OW77466   5.351   2.338   4.890  0.3191  0.0657 -0.5317
25342SOL    HW177467   5.264   2.341   4.852  0.2779  1.0554 -0.3834
25342SOL    HW277468   5.377   2.246   4.884 -0.2747 -0.0491 -1.6030
25343SOL     OW77469   1.020   1.824  10.464 -0.4039 -0.4632 -0.1338
25343SOL    HW177470   1.055   1.856  10.547  0.3786 -1.6615  0.0327
25343SOL    HW277471   0.934   1.789  10.486  0.0076 -1.2404  0.2979
25344SOL     OW77472   7.199   3.626   3.336  0.2447  0.2853  0.2507
25344SOL    HW177473   7.264   3.566   3.301  0.2638  0.4263  0.0440
25344SOL    HW277474   7.152   3.658   3.259 -0.2482 -0.0211  0.4171
25345SOL     OW77475   1.754   1.707   4.194 -0.0486 -0.3135 -0.2790
25345SOL    HW177476   1.818   1.712   4.123  0.0703  1.3248 -0.0967
25345SOL    HW277477   1.804   1.729   4.273 -1.2113  3.7363 -0.4357
25346SOL     OW77478   4.303   1.764  10.062  0.9550 -0.0592 -0.2030
25346SOL    HW177479   4.374   1.774  10.125 -0.0579 -1.4978  1.2384
25346SOL    HW277480   4.326   1.823   9.990  2.5176  1.0752  1.1656
25347SOL     OW77481   7.783   6.823  10.236 -0.2378  0.1117  0.2607
25347SOL    HW177482   7.778   6.863  10.149  2.1605  1.1591  0.5339
25347SOL    HW277483   7.758   6.892  10.296  0.1886  0.0533  0.5121
25348SOL     OW77484   4.125   0.563   3.478 -0.0478 -0.4579  0.0485
25348SOL    HW177485   4.146   0.524   3.394  0.7348  1.2692 -0.6004
25348SOL    HW277486   4.171   0.508   3.542  0.1474 -1.2093 -0.7212
25349SOL     OW77487   6.539   7.862   3.078 -0.4264  0.4438 -0.4611
25349SOL    HW177488   6.462   7.887   3.130 -1.0148 -0.7636 -0.6948
25349SOL    HW277489   6.579   7.945   3.053 -0.4536  1.0821  1.4182
25350SOL     OW77490   2.653   6.690   8.938 -0.1591 -0.2051  0.0633
25350SOL    HW177491   2.640   6.617   8.878 -0.4914  1.0203 -1.4109
25350SOL    HW277492   2.573   6.741   8.932 -0.1531  0.0020  1.4973
25351SOL     OW77493   3.686   2.426  10.942 -0.1158  0.5187 -0.0552
25351SOL    HW177494   3.737   2.445  10.864 -0.3403  0.6991 -0.1606
25351SOL    HW277495   3.600   2.463  10.924 -0.2529  0.3115  0.1629
25352SOL     OW77496   2.041   5.567   2.375  0.1687 -0.1689  0.1553
25352SOL    HW177497   2.128   5.590   2.341  1.0273  0.3443  2.4750
25352SOL    HW277498   2.051   5.476   2.405 -0.3774 -0.4062 -0.3690
25353SOL     OW77499   3.722   7.360   2.070 -0.4356  0.3379 -0.1507
25353SOL    HW177500   3.804   7.380   2.026  1.7710  0.5554  3.6810
25353SOL    HW277501   3.708   7.266   2.054  0.1430  0.4486 -1.3929
25354SOL     OW77502   5.102   2.799   3.601  0.4177 -0.0502 -0.6274
25354SOL    HW177503   5.180   2.852   3.580  0.6748  0.5084  1.4688
25354SOL    HW277504   5.137   2.725   3.651 -0.2766 -0.5467 -0.8723
25355SOL     OW77505   0.202   6.632   5.148  0.6983 -0.4383  0.4942
25355SOL    HW177506   0.245   6.551   5.174 -0.9946 -0.9022  2.0452
25355SOL    HW277507   0.120   6.603   5.108  1.1020  0.4679 -1.0792
25356SOL     OW77508   6.797   2.575   8.226  0.1528  0.2895  0.0335
25356SOL    HW177509   6.775   2.655   8.179  1.0470 -0.1007 -1.1129
25356SOL    HW277510   6.718   2.522   8.222  0.2766  0.1581 -1.3017
25357SOL     OW77511   3.132   4.081   8.714 -0.3720  0.7839 -0.1444
25357SOL    HW177512   3.226   4.094   8.700 -0.5400  1.1091 -1.0693
25357SOL    HW277513   3.111   4.003   8.663 -0.0659 -1.1531  2.4759
25358SOL     OW77514   3.346   5.547   8.318 -0.2661 -0.0687 -0.1783
25358SOL    HW177515   3.430   5.526   8.278 -0.6372  0.2464 -1.1387
25358SOL    HW277516   3.368   5.573   8.408  0.3306 -3.4894  0.7945
25359SOL     OW77517   3.984   2.012   0.425  0.3816 -0.3231  0.0648
25359SOL    HW177518   4.004   1.984   0.515  1.3732  0.1777  0.0045
25359SOL    HW277519   4.036   1.956   0.369  1.3610  0.7176 -0.1077
25360SOL     OW77520   6.607   2.626  10.365 -0.0678  0.3372 -0.4789
25360SOL    HW177521   6.638   2.573  10.438 -0.1230 -0.3263 -0.9256
25360SOL    HW277522   6.580   2.562  10.299 -0.3130  0.9231 -0.9566
25361SOL     OW77523   6.886   1.275   9.261 -0.5430  0.2266 -0.6315
25361SOL    HW177524   6.801   1.282   9.304  0.0661 -2.8381  1.4073
25361SOL    HW277525   6.932   1.355   9.285 -0.6340 -0.7701  3.8999
25362SOL     OW77526   7.046   4.362  12.430  0.2615  0.2829  0.1743
25362SOL    HW177527   7.003   4.442  12.397 -0.8804 -0.8985 -1.3825
25362SOL    HW277528   6.976   4.314  12.474  0.4830 -0.6451 -0.4450
25363SOL     OW77529   6.465   4.992  12.341 -0.1806  0.2507 -0.2376
25363SOL    HW177530   6.393   5.034  12.388 -0.1119 -0.9797  1.0423
25363SOL    HW277531   6.528   4.969  12.409  0.7102 -0.0836 -1.1513
25364SOL     OW77532   1.031   3.383   9.588 -0.0811  0.6250  0.2726
25364SOL    HW177533   1.062   3.473   9.579 -1.3122  0.9580 -0.8330
25364SOL    HW277534   0.936   3.389   9.584 -0.1625 -0.8457 -1.1706
25365SOL     OW77535   3.288   5.857   7.481 -0.5325  0.7954  0.2740
25365SOL    HW177536   3.204   5.866   7.525 -0.1814  3.7688  0.5534
25365SOL    HW277537   3.302   5.941   7.439  0.6616 -0.8212 -2.8991
25366SOL     OW77538   6.512   4.307   6.935 -0.2268 -0.1566 -0.0478
25366SOL    HW177539   6.527   4.383   6.879  0.5793 -0.4144 -0.2004
25366SOL    HW277540   6.506   4.233   6.874 -0.7081 -0.2538  0.1180
25367SOL     OW77541   5.888   6.266   1.350  0.2315 -0.4368 -0.2224
25367SOL    HW177542   5.804   6.309   1.330  0.2796  0.7058  1.6901
25367SOL    HW277543   5.900   6.203   1.280 -2.8235 -1.4880  0.0312
25368SOL     OW77544   2.617   4.140   3.472  0.2537 -0.0007 -0.2051
25368SOL    HW177545   2.574   4.054   3.470  0.5701 -0.1653 -0.0414
25368SOL    HW277546   2.710   4.121   3.466  0.3745  0.2827  0.5614
25369SOL     OW77547   6.234   1.116   4.247 -0.3818 -0.0009 -0.5178
25369SOL    HW177548   6.325   1.091   4.231 -0.5180 -0.3724 -0.7249
25369SOL    HW277549   6.235   1.211   4.252  0.1705 -0.0472  0.4009
25370SOL     OW77550   1.408   6.808  11.187  0.1062 -0.2444 -0.0260
25370SOL    HW177551   1.421   6.759  11.268  1.5602 -0.2700 -0.2405
25370SOL    HW277552   1.462   6.886  11.196 -1.9249  1.2278  0.1668
25371SOL     OW77553   7.796   2.771   9.794 -0.5550 -0.0007 -0.1332
25371SOL    HW177554   7.758   2.792   9.879 -0.7471 -0.6044 -0.0656
25371SOL    HW277555   7.891   2.772   9.809 -0.5538  0.8706 -0.1532
25372SOL     OW77556   2.620   6.552   2.320 -0.6890 -0.2670 -0.6655
25372SOL    HW177557   2.613   6.540   2.225 -3.8116 -1.9035 -0.3776
25372SOL    HW277558   2.619   6.463   2.355  1.7046  0.2500  0.9476
25373SOL     OW77559   3.346   1.854   3.308  0.0081 -0.2108  0.1889
25373SOL    HW177560   3.374   1.792   3.240  0.5308 -1.4672  1.4936
25373SOL    HW277561   3.250   1.845   3.311 -0.0717  0.2593 -0.7387
25374SOL     OW77562   6.370   2.877   3.847  0.5007  0.3996  0.2017
25374SOL    HW177563   6.395   2.817   3.918 -0.0612  0.8062  0.7553
25374SOL    HW277564   6.414   2.959   3.869 -1.4274  1.1990  1.3175
25375SOL     OW77565   5.192   6.872   2.780  0.0875 -0.0610  0.1231
25375SOL    HW177566   5.265   6.856   2.721  1.2361  1.4684  1.0526
25375SOL    HW277567   5.115   6.839   2.733  0.9999  0.6998 -2.0170
25376SOL     OW77568   3.706   6.516  10.569 -0.0187  0.3581 -0.0989
25376SOL    HW177569   3.641   6.554  10.627  0.7144 -0.3780  1.2482
25376SOL    HW277570   3.656   6.463  10.507 -0.7905  0.9664 -0.0043
25377SOL     OW77571   7.375   6.841   6.058 -0.0628  0.4787  0.3496
25377SOL    HW177572   7.442   6.909   6.064  0.2923  0.3088 -1.2456
25377SOL    HW277573   7.328   6.846   6.141  1.3390  1.2082  1.1253
25378SOL     OW77574   3.523   6.506   9.778  0.6574 -0.7260  0.3680
25378SOL    HW177575   3.553   6.509   9.688 -2.1438 -1.4514 -0.7165
25378SOL    HW277576   3.432   6.535   9.774  0.4859 -0.6153  3.0029
25379SOL     OW77577   5.222   0.732   1.545 -0.6734  0.2064  0.1832
25379SOL    HW177578   5.229   0.657   1.486  1.3251 -0.4498  1.1445
25379SOL    HW277579   5.165   0.703   1.616  0.5247 -0.6427  0.8296
25380SOL     OW77580   6.542   4.772   1.318  0.0073 -0.2790  0.0308
25380SOL    HW177581   6.515   4.842   1.259  0.1058 -0.3839 -0.1383
25380SOL    HW277582   6.517   4.803   1.405 -0.0742 -0.0945 -0.0587
25381SOL     OW77583   7.060   1.710   8.803  0.0076 -0.2563  0.9249
25381SOL    HW177584   7.073   1.625   8.762 -0.3496 -0.2256  0.7467
25381SOL    HW277585   7.147   1.735   8.834  0.1505 -0.5947  0.8036
25382SOL     OW77586   1.237   0.976  11.159 -0.1971  0.2521 -0.3955
25382SOL    HW177587   1.146   1.005  11.164  0.0294  0.9935 -0.4587
25382SOL    HW277588   1.240   0.919  11.082 -0.5367  0.5027 -0.5942
25383SOL     OW77589   0.179   5.392   6.664  0.1225  0.3272  0.6696
25383SOL    HW177590   0.179   5.397   6.760  1.3271  0.3742  0.6828
25383SOL    HW277591   0.198   5.481   6.635 -1.0596  0.4951  0.3458
25384SOL     OW77592   0.256   0.558   0.609  0.2203  0.1184 -0.1781
25384SOL    HW177593   0.252   0.464   0.627  0.8594 -0.2915 -1.9898
25384SOL    HW277594   0.217   0.598   0.687 -3.2952 -1.7436 -0.7598
25385SOL     OW77595   1.257   1.676   4.443  0.0515  0.4099  0.3812
25385SOL    HW177596   1.232   1.641   4.357 -3.1382  0.7249  1.0641
25385SOL    HW277597   1.284   1.766   4.425  1.0509 -0.0175 -0.4293
25386SOL     OW77598   6.985   7.183   7.754  0.3463  0.1486 -0.1334
25386SOL    HW177599   6.940   7.099   7.738  0.2262  0.4967 -1.8060
25386SOL    HW277600   7.076   7.158   7.771  0.3393 -0.3159 -0.7394
25387SOL     OW77601   7.269   5.301   1.592  0.5352  0.3066  0.3400
25387SOL    HW177602   7.226   5.257   1.518  0.3761  1.7425 -0.4632
25387SOL    HW277603   7.361   5.277   1.583  0.5517  0.6438 -0.4683
25388SOL     OW77604   0.801   6.008   5.766  0.5315 -0.3442 -0.3638
25388SOL    HW177605   0.816   6.103   5.759  0.6317 -0.2597  0.8814
25388SOL    HW277606   0.865   5.969   5.706 -0.9981  0.4439 -2.6604
25389SOL     OW77607   0.258   5.470   1.727 -0.4260  0.0653 -0.4068
25389SOL    HW177608   0.190   5.403   1.723 -0.4884  0.0871  0.1207
25389SOL    HW277609   0.234   5.524   1.802 -0.6030  0.9430 -1.0811
25390SOL     OW77610   1.504   3.925  11.637 -0.1814 -0.1644  0.1898
25390SOL    HW177611   1.555   3.859  11.684 -0.6025 -0.1098  0.7349
25390SOL    HW277612   1.419   3.884  11.622 -0.0964 -0.1285 -0.4111
25391SOL     OW77613   1.116   5.206   6.295  0.4186  0.0734 -0.0524
25391SOL    HW177614   1.042   5.204   6.235  0.0810 -0.7360  0.3732
25391SOL    HW277615   1.076   5.216   6.382  0.8496  0.3133  0.1245
25392SOL     OW77616   0.938   7.940   8.321 -0.0187  0.3867 -0.7369
25392SOL    HW177617   0.923   7.855   8.280 -1.3207  0.2331  0.0034
25392SOL    HW277618   0.852   7.967   8.354  0.0164  2.7890 -2.4012
25393SOL     OW77619   0.547   3.812   2.727 -0.6871 -0.2601  0.0540
25393SOL    HW177620   0.639   3.824   2.749 -0.5293 -1.4246  0.0989
25393SOL    HW277621   0.538   3.851   2.640  0.1188 -1.1176 -0.4303
25394SOL     OW77622   4.749   1.101   5.389  0.2435  0.4943  0.0489
25394SOL    HW177623   4.675   1.160   5.384 -1.6829 -1.7857 -0.2868
25394SOL    HW277624   4.802   1.121   5.312  0.5355  2.7845  0.7867
25395SOL     OW77625   7.104   6.541   5.947 -0.1948 -0.1054  0.0068
25395SOL    HW177626   7.016   6.541   5.910  0.3829 -2.9447 -1.5928
25395SOL    HW277627   7.102   6.611   6.012 -3.4069  0.3709 -0.4490
25396SOL     OW77628   5.497   2.129   9.422 -0.3446  0.2321 -0.0629
25396SOL    HW177629   5.493   2.042   9.383 -1.5229  0.0715  0.3829
25396SOL    HW277630   5.531   2.114   9.511 -1.7778  0.0344  0.4806
25397SOL     OW77631   4.362   5.950  12.168 -0.4597  0.8589 -0.7884
25397SOL    HW177632   4.308   5.999  12.230  0.8879  0.7766  0.4935
25397SOL    HW277633   4.357   5.859  12.198 -0.8971  0.5972 -1.6287
25398SOL     OW77634   2.021   3.719   7.526  0.3399  0.1195  0.5954
25398SOL    HW177635   2.114   3.713   7.506  0.1268  1.4266 -1.0087
25398SOL    HW277636   1.977   3.689   7.446 -0.6047  0.6553  0.8926
25399SOL     OW77637   1.971   6.439   1.593  0.7054 -0.2693  0.2956
25399SOL    HW177638   1.961   6.401   1.681  1.8035 -0.6274  0.2795
25399SOL    HW277639   2.044   6.501   1.602 -0.5269  1.2603  0.1221
25400SOL     OW77640   6.464   7.866   9.281 -0.4642  0.3110 -0.2117
25400SOL    HW177641   6.447   7.955   9.310 -0.3079 -0.0677  1.1285
25400SOL    HW277642   6.550   7.846   9.317 -1.1941 -0.9348  0.9034
25401SOL     OW77643   7.842   2.995   7.456  0.4918  0.2317  0.4326
25401SOL    HW177644   7.820   2.949   7.537  0.4865 -1.7511 -0.6250
25401SOL    HW277645   7.791   2.950   7.389  0.5286  1.8119 -0.6892
25402SOL     OW77646   3.240   6.547   4.693 -0.0381  0.1631 -0.4053
25402SOL    HW177647   3.190   6.568   4.771 -2.6175  0.6779 -2.0602
25402SOL    HW277648   3.312   6.609   4.693  0.3026 -0.1563  1.7452
25403SOL     OW77649   1.571   4.201  10.944 -0.0877  0.3740 -0.0021
25403SOL    HW177650   1.592   4.108  10.954 -0.4850  0.2864  0.0292
25403SOL    HW277651   1.642   4.246  10.991  0.9606  0.1524 -1.3054
25404SOL     OW77652   5.491   5.811   4.703  0.1292 -0.1723 -0.9585
25404SOL    HW177653   5.586   5.800   4.713 -0.0735 -0.6936  0.6597
25404SOL    HW277654   5.472   5.894   4.747 -0.1653 -0.0374 -1.3360
25405SOL     OW77655   7.332   2.978   8.373  0.1923  0.0365 -0.5964
25405SOL    HW177656   7.422   2.989   8.402  0.5943 -0.5455 -1.5472
25405SOL    HW277657   7.340   2.950   8.281 -0.9063 -1.1565 -0.3638
25406SOL     OW77658   6.600   5.335  12.162  0.2932  0.0373  0.3702
25406SOL    HW177659   6.523   5.293  12.124  0.3547  0.5441 -0.3463
25406SOL    HW277660   6.672   5.273  12.147  0.6739  0.9213 -1.9494
25407SOL     OW77661   0.978   0.876   9.592 -1.1229 -0.5142  0.5349
25407SOL    HW177662   1.008   0.967   9.604 -1.6062 -0.1548 -0.8482
25407SOL    HW277663   1.053   0.831   9.555 -1.0011 -0.5998  0.8805
25408SOL     OW77664   5.708   6.470   2.017 -0.3289  0.7619  0.2194
25408SOL    HW177665   5.651   6.546   2.028 -0.8722  0.4952 -0.6220
25408SOL    HW277666   5.789   6.494   2.061  0.0574  2.4340 -1.2810
25409SOL     OW77667   3.076   0.860   6.412 -0.2807  0.4878  0.0100
25409SOL    HW177668   3.084   0.926   6.481  0.8508  0.0420  0.3382
25409SOL    HW277669   2.994   0.816   6.430  0.2206  0.0622  1.3809
25410SOL     OW77670   3.981   7.742  12.326 -0.1209  0.0503 -0.4031
25410SOL    HW177671   3.921   7.697  12.386 -0.2546  0.5829 -0.1312
25410SOL    HW277672   4.005   7.675  12.262 -0.9763 -0.1813 -0.4942
25411SOL     OW77673   2.131   5.815   1.310 -0.3806  0.2323 -0.4940
25411SOL    HW177674   2.082   5.892   1.338 -1.3315 -0.6153  0.2526
25411SOL    HW277675   2.064   5.756   1.274  0.2795 -0.3851 -0.7397
25412SOL     OW77676   5.062   6.446  11.816  0.1054 -0.6884 -0.0846
25412SOL    HW177677   5.012   6.460  11.735  1.6193 -3.7339 -1.7328
25412SOL    HW277678   5.125   6.518  11.818  0.7799 -1.1379 -2.2856
25413SOL     OW77679   1.547   0.863   3.129  0.0754  0.7970  0.1124
25413SOL    HW177680   1.583   0.888   3.044 -0.0544  0.6547  0.0153
25413SOL    HW277681   1.518   0.773   3.117 -0.1006  0.8345  0.2584
25414SOL     OW77682   7.011   0.222   5.980 -0.1129  0.0740  0.4641
25414SOL    HW177683   7.045   0.234   5.891  0.6554  1.1759  0.8685
25414SOL    HW277684   7.089   0.230   6.036 -0.7210  0.4011  1.2878
25415SOL     OW77685   1.086   0.995   4.145  0.3481  0.5591  0.2072
25415SOL    HW177686   1.038   1.077   4.133 -0.1152  0.0671 -1.5556
25415SOL    HW277687   1.019   0.930   4.166  0.7657  0.6682  2.1159
25416SOL     OW77688   2.319   1.861  11.796  0.0635 -0.3227  0.0789
25416SOL    HW177689   2.325   1.770  11.823 -0.0040 -0.7846 -1.3602
25416SOL    HW277690   2.407   1.883  11.766 -0.3158 -0.5208 -1.2871
25417SOL     OW77691   2.587   6.424   3.271 -0.0871 -0.0679  0.0658
25417SOL    HW177692   2.619   6.401   3.183  0.5241  0.4440  0.1427
25417SOL    HW277693   2.536   6.348   3.299 -0.6670 -0.0527 -0.9117
25418SOL     OW77694   2.950   4.572  11.165 -0.0631  0.4073 -0.2114
25418SOL    HW177695   3.016   4.636  11.191  1.1287 -0.6020 -0.6532
25418SOL    HW277696   2.876   4.588  11.224  1.3876  0.1832  1.7791
25419SOL     OW77697   2.132   4.470   5.461  0.3905  0.3147 -0.4063
25419SOL    HW177698   2.068   4.536   5.487  1.1151  0.4889  1.0181
25419SOL    HW277699   2.149   4.420   5.541  1.2399 -0.4133 -1.0189
25420SOL     OW77700   2.170   7.092   9.815 -0.4986 -0.0395  0.0913
25420SOL    HW177701   2.255   7.049   9.820 -0.0440  0.9368  0.9768
25420SOL    HW277702   2.108   7.028   9.852 -0.0641 -0.5012  0.0295
25421SOL     OW77703   6.970   0.502   6.981  0.0718  0.4902 -0.1723
25421SOL    HW177704   6.989   0.596   6.989 -1.0466  0.6719  0.5607
25421SOL    HW277705   6.895   0.488   7.037  0.6456 -0.9973  0.2727
25422SOL     OW77706   1.752   1.275   6.484 -0.6289 -0.2093 -0.8418
25422SOL    HW177707   1.813   1.335   6.527 -1.7138  1.4440 -1.4668
25422SOL    HW277708   1.692   1.248   6.554  0.6925 -1.7451 -0.2531
25423SOL     OW77709   7.444   4.563   5.969  0.7501 -0.8324 -0.1301
25423SOL    HW177710   7.372   4.531   5.915 -0.3413  1.3794 -0.0946
25423SOL    HW277711   7.444   4.505   6.046 -2.2070  0.1634  0.7444
25424SOL     OW77712   4.455   5.250   2.342  0.3548 -0.1099  0.7139
25424SOL    HW177713   4.454   5.194   2.420 -0.7174 -0.4795  0.4633
25424SOL    HW277714   4.394   5.207   2.282 -0.0600  1.0317  0.2974
25425SOL     OW77715   2.744   6.340   4.234  0.6232  0.2258 -0.0572
25425SOL    HW177716   2.771   6.249   4.221  0.9585 -0.0075  1.8872
25425SOL    HW277717   2.672   6.353   4.173  1.1276 -1.0700 -0.9672
25426SOL     OW77718   0.266   1.343   7.237 -0.0257 -0.8267 -0.2728
25426SOL    HW177719   0.313   1.394   7.303 -0.0793 -0.8280 -0.2339
25426SOL    HW277720   0.271   1.397   7.157 -1.1988 -0.1424  0.0831
25427SOL     OW77721   2.083   2.059   3.807 -0.1449  0.4988 -0.4937
25427SOL    HW177722   2.090   2.045   3.713  0.2047 -1.0941 -0.2637
25427SOL    HW277723   2.096   2.153   3.819  1.6545  0.4807 -1.8745
25428SOL     OW77724   3.659   6.233   0.394  0.2509  0.2968  0.5830
25428SOL    HW177725   3.600   6.216   0.467  0.3139 -2.2998  0.1461
25428SOL    HW277726   3.747   6.220   0.431  0.3257 -0.0843  0.2802
25429SOL     OW77727   1.536   7.288   7.981  0.5518 -0.5026 -0.0115
25429SOL    HW177728   1.575   7.201   7.990  0.1381 -0.6707  0.1421
25429SOL    HW277729   1.608   7.342   7.947  1.0955 -0.6705  0.8500
25430SOL     OW77730   5.573   1.536  10.698  0.3967 -0.0403 -0.0945
25430SOL    HW177731   5.584   1.579  10.783 -1.9116 -1.7574  1.1962
25430SOL    HW277732   5.480   1.549  10.677  0.7214 -0.4285 -1.9402
25431SOL     OW77733   1.256   5.196   7.655  0.1906  0.3390 -0.5444
25431SOL    HW177734   1.193   5.267   7.666  0.8505  0.6540  1.8664
25431SOL    HW277735   1.325   5.216   7.718  1.5655 -1.2299 -1.4639
25432SOL     OW77736   0.924   1.959   1.655 -0.6017  0.5745 -0.5955
25432SOL    HW177737   0.874   2.033   1.690 -1.2737  0.3379 -1.0430
25432SOL    HW277738   0.869   1.883   1.673  0.2234  0.1315  0.1360
25433SOL     OW77739   5.827   6.158   8.637 -0.0253  0.4123  0.0600
25433SOL    HW177740   5.881   6.199   8.705  1.8678  2.0965 -2.2799
25433SOL    HW277741   5.841   6.064   8.648  0.1126  0.6140  2.0064
25434SOL     OW77742   5.036   7.876   0.033 -0.2787  0.8825 -0.5666
25434SOL    HW177743   5.071   7.787   0.031  1.3659  1.4546  0.5757
25434SOL    HW277744   4.995   7.884   0.119 -2.4427  0.5561 -1.5079
25435SOL     OW77745   1.432   5.513   7.475 -0.1980  0.6253  0.3489
25435SOL    HW177746   1.511   5.520   7.422  0.3622 -1.4902  0.7825
25435SOL    HW277747   1.448   5.437   7.532 -1.9841  0.9897  1.4286
25436SOL     OW77748   2.752   4.180  10.285 -0.3951 -0.0257 -0.1713
25436SOL    HW177749   2.805   4.260  10.285  1.1767 -0.9773  1.6538
25436SOL    HW277750   2.817   4.109  10.286 -1.7440 -1.3720 -1.9315
25437SOL     OW77751   0.784   1.097  10.798  0.6556  0.4541  0.0909
25437SOL    HW177752   0.747   1.047  10.725 -0.9288  0.9109  0.5330
25437SOL    HW277753   0.876   1.108  10.775 -0.1537  2.3352 -2.9015
25438SOL     OW77754   5.051   0.085   0.442 -0.0687  0.0509  0.4463
25438SOL    HW177755   5.013   0.157   0.494 -0.0418 -0.9779  1.9564
25438SOL    HW277756   5.109   0.039   0.503  0.4180 -0.8761 -0.6752
25439SOL     OW77757   4.910   2.851   0.922 -0.1670 -0.4205  0.3421
25439SOL    HW177758   4.864   2.819   0.845  0.0417  0.4613 -0.1592
25439SOL    HW277759   4.876   2.799   0.994 -1.4167 -0.2825 -0.1341
25440SOL     OW77760   4.149   0.070   2.182  0.1505 -0.1938 -0.3311
25440SOL    HW177761   4.124  -0.018   2.210 -1.0933  0.3319  0.2848
25440SOL    HW277762   4.243   0.073   2.194 -0.0908 -0.6321  2.0489
25441SOL     OW77763   7.224   1.760   5.806 -0.2289 -0.3253  0.2971
25441SOL    HW177764   7.278   1.838   5.803  0.9891 -1.0947  1.0206
25441SOL    HW277765   7.195   1.747   5.716  0.4577  0.3462 -0.0366
25442SOL     OW77766   1.728   4.425   6.727 -0.1374 -0.1259 -0.4083
25442SOL    HW177767   1.685   4.500   6.768  1.2558 -1.0240  2.9653
25442SOL    HW277768   1.817   4.456   6.709  0.1692 -0.7082  0.1280
25443SOL     OW77769   2.376   2.706   3.006  0.0844 -0.0617 -0.1931
25443SOL    HW177770   2.417   2.657   2.934 -0.2584  0.2670 -0.6177
25443SOL    HW277771   2.434   2.779   3.022  0.1498 -0.1226 -0.1526
25444SOL     OW77772   3.540   0.915  12.283  0.0745 -0.1821  0.4588
25444SOL    HW177773   3.510   0.948  12.198 -0.3743  0.5912  0.9148
25444SOL    HW277774   3.465   0.926  12.341  0.7781  0.4565  1.2663
25445SOL     OW77775   3.630   1.712   6.571  0.3146 -0.1028  0.1870
25445SOL    HW177776   3.715   1.693   6.530  1.2115 -0.2989  2.0510
25445SOL    HW277777   3.636   1.804   6.597  0.0121 -0.1535  0.4348
25446SOL     OW77778   5.895   2.185   5.154  0.3205 -0.4566  0.6374
25446SOL    HW177779   5.914   2.149   5.240  4.5801 -0.2173  0.0662
25446SOL    HW277780   5.926   2.276   5.159 -2.5359  0.6588 -0.2664
25447SOL     OW77781   1.102   5.071   3.440 -0.1050 -0.4122 -0.1331
25447SOL    HW177782   1.192   5.053   3.415 -0.1579 -0.0573 -0.5965
25447SOL    HW277783   1.050   5.048   3.362 -0.6392 -2.5353  0.7901
25448SOL     OW77784   6.635   7.175   1.158  0.1569  0.6958  0.0211
25448SOL    HW177785   6.663   7.251   1.209  2.6958 -0.3074  0.3091
25448SOL    HW277786   6.658   7.198   1.068  0.2719  0.5496  0.0134
25449SOL     OW77787   1.464   2.798   5.647  0.3611  0.3787 -0.1792
25449SOL    HW177788   1.458   2.787   5.742  1.6795  0.6587 -0.0467
25449SOL    HW277789   1.558   2.805   5.630  0.0991  3.8440 -1.0780
25450SOL     OW77790   6.746   3.509   4.797  0.0717  0.1087 -0.6921
25450SOL    HW177791   6.658   3.542   4.779  0.2617  0.2123 -1.4870
25450SOL    HW277792   6.735   3.448   4.870 -0.6803  0.0189 -0.8766
25451SOL     OW77793   2.356   4.905   9.264  0.4042  0.7338  0.0770
25451SOL    HW177794   2.431   4.944   9.220 -0.7518  1.9243 -0.8832
25451SOL    HW277795   2.326   4.837   9.204  0.4868  0.5023  0.2956
25452SOL     OW77796   5.610   5.869   6.172  0.0198 -0.2178  0.0115
25452SOL    HW177797   5.518   5.870   6.199 -0.0148  0.5529 -0.1062
25452SOL    HW277798   5.650   5.939   6.223  0.7020 -1.0090  0.5832
25453SOL     OW77799   6.841   4.959   1.485  0.1444 -0.2873 -0.1937
25453SOL    HW177800   6.763   5.010   1.504  0.7068  0.3945  0.3517
25453SOL    HW277801   6.857   4.974   1.392 -1.3146 -1.7912 -0.7215
25454SOL     OW77802   2.253   6.269   2.612  0.4852 -0.1380  0.4903
25454SOL    HW177803   2.231   6.361   2.628  0.1361 -0.1141 -0.0948
25454SOL    HW277804   2.179   6.220   2.647 -0.6885 -0.0448 -1.6939
25455SOL     OW77805   5.532   3.286   9.053 -0.5203  0.0469 -0.1649
25455SOL    HW177806   5.439   3.306   9.039 -0.0471  0.3812 -3.5722
25455SOL    HW277807   5.539   3.192   9.039 -0.6670 -0.5598  2.9725
25456SOL     OW77808   0.816   5.383  12.179  0.6353  0.0252 -0.1385
25456SOL    HW177809   0.775   5.298  12.161  0.9346  0.0404 -0.9190
25456SOL    HW277810   0.834   5.420  12.093  0.6614  0.8143  0.1912
25457SOL     OW77811   2.931   3.568   2.276  0.5716  0.3117  0.6420
25457SOL    HW177812   2.960   3.655   2.302  0.0031  0.8633 -0.5314
25457SOL    HW277813   2.906   3.577   2.184 -0.1938 -0.9145  0.7114
25458SOL     OW77814   6.375   6.835  12.323 -0.4296  0.1379  0.1102
25458SOL    HW177815   6.317   6.875  12.388 -1.4267 -0.4989 -0.3598
25458SOL    HW277816   6.450   6.894  12.318 -0.2428  0.1301  1.9489
25459SOL     OW77817   3.173   1.612  10.082  0.2709 -0.2137 -0.6588
25459SOL    HW177818   3.252   1.566  10.051 -0.3816 -1.4827 -0.5010
25459SOL    HW277819   3.129   1.641  10.002 -0.5927 -2.0918 -0.9063
25460SOL     OW77820   0.805   6.586  11.010  0.0753  0.4401  0.7833
25460SOL    HW177821   0.736   6.559  11.071 -0.7740 -1.5944 -0.9571
25460SOL    HW277822   0.759   6.629  10.938  0.6704 -0.2800 -0.0544
25461SOL     OW77823   5.357   4.539   5.939  0.7163 -0.2844  0.7248
25461SOL    HW177824   5.426   4.485   5.900 -1.1934 -1.6994 -0.9541
25461SOL    HW277825   5.356   4.618   5.886 -0.2637 -1.1586 -0.6224
25462SOL     OW77826   3.821   7.658   1.943 -0.0175  0.0070  0.1558
25462SOL    HW177827   3.774   7.623   1.867  1.7542 -0.6682 -0.6825
25462SOL    HW277828   3.803   7.595   2.013 -1.3355  0.4219  0.2300
25463SOL     OW77829   5.378   1.468   5.027  0.1716  0.1848  0.0014
25463SOL    HW177830   5.335   1.385   5.007  3.3343 -1.8965  1.0185
25463SOL    HW277831   5.356   1.484   5.119 -0.4839  0.4983 -0.2101
25464SOL     OW77832   2.611   5.753   2.791 -0.2174  0.1264 -0.0510
25464SOL    HW177833   2.569   5.722   2.871 -0.9295  2.5525  0.5833
25464SOL    HW277834   2.699   5.779   2.818  0.8006 -2.2495 -0.8132
25465SOL     OW77835   7.289   4.419   5.793 -0.3444  0.5074  0.2527
25465SOL    HW177836   7.289   4.340   5.739 -2.5254 -0.0103  0.9015
25465SOL    HW277837   7.215   4.470   5.760  0.2017  1.6541  0.7428
25466SOL     OW77838   4.361   1.162   4.658 -0.0454  0.1546 -0.2145
25466SOL    HW177839   4.338   1.217   4.733  0.3616 -0.9966  0.7835
25466SOL    HW277840   4.412   1.220   4.601  0.3191  0.8390  0.7696
25467SOL     OW77841   5.387   2.053   0.855  0.2546 -0.1799 -0.1103
25467SOL    HW177842   5.336   2.131   0.878  2.2530  1.1640  0.0007
25467SOL    HW277843   5.462   2.086   0.806  1.2156 -2.0289  0.0132
25468SOL     OW77844   7.338   0.035   0.990 -0.0011 -0.1688  0.3314
25468SOL    HW177845   7.392   0.089   1.047 -2.0460  1.1578  1.1156
25468SOL    HW277846   7.400  -0.026   0.948  1.9580  0.8408  1.6358
25469SOL     OW77847   7.308   5.910  12.037  0.4417 -0.0704  0.5388
25469SOL    HW177848   7.320   5.836  11.976  1.2758  0.6489 -0.2016
25469SOL    HW277849   7.222   5.945  12.014  0.1013 -0.7108  0.7957
25470SOL     OW77850   7.641   2.711   5.384  0.7784  0.0559 -0.1413
25470SOL    HW177851   7.718   2.768   5.387  0.6927  0.1179  1.0317
25470SOL    HW277852   7.664   2.635   5.438  0.1041 -0.0346  0.0314
25471SOL     OW77853   2.138   2.069   7.078 -0.0910  0.0393  0.1464
25471SOL    HW177854   2.133   2.055   6.983 -0.3479 -1.4407  0.3602
25471SOL    HW277855   2.170   1.986   7.113 -0.2685  0.4789  1.3873
25472SOL     OW77856   3.955   4.749   8.914  0.0448  0.2728 -0.4551
25472SOL    HW177857   3.952   4.833   8.869  0.6401  2.0848  2.6454
25472SOL    HW277858   3.871   4.742   8.959 -0.2050 -1.0750 -1.0784
25473SOL     OW77859   2.304   6.509   4.227 -0.2499 -0.7759 -0.8669
25473SOL    HW177860   2.208   6.503   4.219 -0.1589 -2.0125 -1.3193
25473SOL    HW277861   2.318   6.573   4.297 -1.3841  0.1602 -1.4602
25474SOL     OW77862   7.155   5.026  10.916  0.0601 -0.3403  0.2712
25474SOL    HW177863   7.144   5.008  11.009 -2.7370 -2.9043 -0.4030
25474SOL    HW277864   7.066   5.040  10.884  1.0619  2.1109 -1.8194
25475SOL     OW77865   6.907   6.871  10.056  0.0099  0.1999 -0.5359
25475SOL    HW177866   6.820   6.862  10.016  0.3917 -1.3944 -1.0669
25475SOL    HW277867   6.938   6.782  10.067  0.8617  0.6662  1.3293
25476SOL     OW77868   6.968   6.328   3.012 -0.4064 -0.0504 -0.1726
25476SOL    HW177869   6.910   6.301   3.083 -0.3938  1.9979  0.6549
25476SOL    HW277870   7.054   6.337   3.052 -0.3570  0.9427 -0.4749
25477SOL     OW77871   2.946   4.726   2.510 -0.0761  0.2913  0.6195
25477SOL    HW177872   3.029   4.681   2.528 -0.0824  0.9073  2.4114
25477SOL    HW277873   2.961   4.771   2.427  0.9850 -0.5304  0.3358
25478SOL     OW77874   4.869   7.568   5.498 -0.3296 -0.4521 -0.7292
25478SOL    HW177875   4.903   7.479   5.492  0.1806 -0.2968 -0.3201
25478SOL    HW277876   4.828   7.572   5.584  1.1757  0.1977 -0.0093
25479SOL     OW77877   1.495   2.625   4.204 -0.0745  0.0191 -0.1995
25479SOL    HW177878   1.546   2.549   4.173 -1.0994 -0.4270 -0.8400
25479SOL    HW277879   1.560   2.681   4.247  1.2340  0.1236 -2.1639
25480SOL     OW77880   5.637   4.317   1.591 -0.0276 -0.0204 -0.1511
25480SOL    HW177881   5.559   4.373   1.592  0.3116  0.4703 -0.5856
25480SOL    HW277882   5.708   4.376   1.565  0.4932 -0.4591  0.2686
25481SOL     OW77883   1.194   2.805   1.709 -0.0348 -0.4161 -0.8084
25481SOL    HW177884   1.170   2.802   1.801  0.9997  0.3213 -0.4913
25481SOL    HW277885   1.210   2.714   1.685  0.5094 -0.5330 -0.0262
25482SOL     OW77886   4.808   5.719  12.419 -0.3236 -0.3376  0.6089
25482SOL    HW177887   4.881   5.671  12.457  1.9629  0.8203 -1.9985
25482SOL    HW277888   4.771   5.661  12.353  1.5569  0.7881 -1.5686
25483SOL     OW77889   6.490   2.346   4.782  0.3695 -0.4904  0.1688
25483SOL    HW177890   6.463   2.314   4.868 -1.7797 -0.4877 -0.4341
25483SOL    HW277891   6.579   2.315   4.771  0.4030 -1.1834  2.0533
25484SOL     OW77892   5.224   3.943   5.636 -0.3452  0.7111  0.3741
25484SOL    HW177893   5.156   3.920   5.700 -1.2299  1.4110 -0.2874
25484SOL    HW277894   5.200   4.031   5.607 -0.0029  0.3793 -0.9714
25485SOL     OW77895   5.828   5.808   8.818  0.5411  0.1225 -0.4380
25485SOL    HW177896   5.825   5.875   8.885  0.6144  0.4764 -0.7854
25485SOL    HW277897   5.736   5.797   8.792  0.4067 -0.6168  0.3028
25486SOL     OW77898   7.058   7.299   4.467  0.2135  0.0752 -0.4476
25486SOL    HW177899   6.990   7.235   4.488 -0.7933  1.0651 -0.6407
25486SOL    HW277900   7.026   7.381   4.503  1.0990  0.6535 -0.9493
25487SOL     OW77901   6.496   4.718   9.519  0.0754  0.4836  0.4203
25487SOL    HW177902   6.561   4.777   9.558  0.2468  0.6667 -0.1360
25487SOL    HW277903   6.413   4.744   9.560  0.5083 -0.5499  2.0394
25488SOL     OW77904   3.474   5.553  12.169  0.2116  0.0406  0.3427
25488SOL    HW177905   3.547   5.570  12.110  0.0911  1.6858  0.6037
25488SOL    HW277906   3.487   5.464  12.199  1.2902 -0.1974 -0.7484
25489SOL     OW77907   3.773   3.781  10.458  0.1576  0.0900  0.3505
25489SOL    HW177908   3.797   3.702  10.506 -0.6161  0.1958  0.9237
25489SOL    HW277909   3.678   3.775  10.448  0.1570  0.6994 -0.0421
25490SOL     OW77910   5.493   4.546  10.586  0.2404 -0.3685 -0.0764
25490SOL    HW177911   5.434   4.588  10.649 -0.6770  0.5528 -1.4703
25490SOL    HW277912   5.446   4.553  10.502  0.5635 -3.1726 -0.6049
25491SOL     OW77913   1.177   6.882   8.725  0.3146 -0.0494 -0.2349
25491SOL    HW177914   1.256   6.915   8.768 -0.6836  2.0753  0.0890
25491SOL    HW277915   1.194   6.789   8.714  2.0778 -0.0202  1.5450
25492SOL     OW77916   5.644   2.067   6.737  0.1814  0.4354 -0.2592
25492SOL    HW177917   5.696   2.078   6.658  0.8206 -1.9573 -0.2538
25492SOL    HW277918   5.586   2.143   6.739  0.4830  0.8090 -2.7402
25493SOL     OW77919   6.230   0.421  11.904  0.1619 -0.1549 -1.0190
25493SOL    HW177920   6.145   0.412  11.947  1.5126 -0.4299  1.7399
25493SOL    HW277921   6.230   0.353  11.837 -1.3567 -0.8905 -0.3137
25494SOL     OW77922   3.874   6.120   9.859  0.1680 -0.1792  0.3180
25494SOL    HW177923   3.798   6.157   9.904  0.4297  2.0903 -0.9227
25494SOL    HW277924   3.946   6.177   9.883  1.3979 -1.9313  0.9645
25495SOL     OW77925   7.581   0.423   0.390  0.4373  0.1515 -0.2224
25495SOL    HW177926   7.675   0.413   0.403  0.4368  1.0870  0.5967
25495SOL    HW277927   7.559   0.505   0.433 -0.3125  1.3672 -2.7580
25496SOL     OW77928   2.316   7.578   1.991  0.1603  0.6552  0.3297
25496SOL    HW177929   2.314   7.625   1.907  1.0328 -1.1336 -0.7347
25496SOL    HW277930   2.409   7.559   2.006 -0.0815  0.1282  1.2339
25497SOL     OW77931   4.701   0.491   7.151  0.0887  0.2356 -0.0287
25497SOL    HW177932   4.641   0.523   7.218 -0.1606 -0.0480 -0.1132
25497SOL    HW277933   4.644   0.467   7.077  0.1273 -1.5462  0.4699
25498SOL     OW77934   7.009   4.840   4.077 -0.0545  0.1231 -0.1971
25498SOL    HW177935   6.934   4.886   4.112  0.1902 -0.0789  0.6091
25498SOL    HW277936   7.084   4.877   4.123  0.4819  1.1276 -1.7947
25499SOL     OW77937   4.073   6.184   3.409  0.1748 -0.5437  0.1386
25499SOL    HW177938   4.016   6.260   3.401 -0.6565 -1.2574 -1.1347
25499SOL    HW277939   4.028   6.126   3.470 -0.0031 -0.6956 -0.1328
25500SOL     OW77940   4.286   6.120  10.984 -0.4498  0.4808  0.4262
25500SOL    HW177941   4.295   6.088  10.894  0.6279  0.3033  0.5848
25500SOL    HW277942   4.258   6.043  11.034 -1.0987  0.5914  0.2436
25501SOL     OW77943   1.116   4.360  10.131  0.3713  0.1878 -0.2838
25501SOL    HW177944   1.026   4.384  10.152  0.9511  1.5497  0.8715
25501SOL    HW277945   1.158   4.351  10.217  1.0594 -1.6120 -0.7759
25502SOL     OW77946   0.253   4.323   3.608  0.0167 -0.3228 -0.1774
25502SOL    HW177947   0.168   4.288   3.581 -0.4858  0.4516  0.3659
25502SOL    HW277948   0.232   4.406   3.651  1.0270 -0.2534  0.1980
25503SOL     OW77949   1.151   6.555   3.118 -0.4354 -0.1445  0.0451
25503SOL    HW177950   1.102   6.527   3.041  0.3154  2.2433 -1.4154
25503SOL    HW277951   1.123   6.645   3.133  1.0991  0.1920  1.1710
25504SOL     OW77952   7.424   6.204  11.293 -0.0483 -0.0034  0.2826
25504SOL    HW177953   7.490   6.135  11.299 -0.7127 -0.5240  2.4452
25504SOL    HW277954   7.352   6.165  11.243 -0.5644 -1.0427  1.7847
25505SOL     OW77955   0.891   1.295   2.966  0.4844 -1.0089 -0.2524
25505SOL    HW177956   0.872   1.325   2.877 -0.0120  2.6835  0.9296
25505SOL    HW277957   0.977   1.332   2.986 -0.6377  0.7731  1.7017
25506SOL     OW77958   1.151   7.016   7.719  0.0827  0.0672  0.1282
25506SOL    HW177959   1.217   7.032   7.786  0.7348  1.0742 -0.7189
25506SOL    HW277960   1.148   6.920   7.711 -0.1175 -0.0853  1.6651
25507SOL     OW77961   5.962   2.490   0.247 -0.1940  0.6419  0.0385
25507SOL    HW177962   6.016   2.414   0.224 -1.2972  0.4491 -2.1787
25507SOL    HW277963   6.017   2.541   0.307  1.6843 -0.4760 -0.6257
25508SOL     OW77964   3.768   1.492   7.044  0.3489 -0.1205  0.1746
25508SOL    HW177965   3.774   1.567   6.985  5.5434 -0.0983  0.2306
25508SOL    HW277966   3.739   1.420   6.989 -1.4165  1.1768 -0.6900
25509SOL     OW77967   5.642   1.469   5.755 -0.0259 -0.6313 -0.9448
25509SOL    HW177968   5.688   1.523   5.820  0.5394 -1.3744 -0.7001
25509SOL    HW277969   5.554   1.506   5.751  0.4602  0.5542 -1.0933
25510SOL     OW77970   1.314   7.041   4.175  0.5081  0.5068  0.1990
25510SOL    HW177971   1.233   7.067   4.130  1.7815  0.5747 -2.2022
25510SOL    HW277972   1.359   7.123   4.194  1.0333  0.3986 -0.5302
25511SOL     OW77973   4.950   0.426   6.537  0.2869 -0.1932  0.3379
25511SOL    HW177974   4.918   0.342   6.504 -2.0483  0.5438  0.5463
25511SOL    HW277975   5.012   0.403   6.607 -1.5770 -1.7902  1.5682
25512SOL     OW77976   5.943   2.291  12.434 -0.2176  0.1116  0.4153
25512SOL    HW177977   5.882   2.239  12.486  0.0595 -0.2779  0.3588
25512SOL    HW277978   5.892   2.365  12.404 -0.5184  0.0728  0.8177
25513SOL     OW77979   4.733   2.939   5.982  0.1651 -0.0027  0.0969
25513SOL    HW177980   4.783   2.858   5.979  1.9958  0.6615  4.3404
25513SOL    HW277981   4.648   2.914   6.020  0.8291 -0.0263  1.6689
25514SOL     OW77982   6.355   1.331  10.817 -0.5117 -1.0942  0.7628
25514SOL    HW177983   6.403   1.249  10.811 -1.7285 -1.7736 -0.4652
25514SOL    HW277984   6.276   1.309  10.867  0.1734 -0.1193  2.3325
25515SOL     OW77985   6.810   7.807   6.057  0.1909  0.1154  0.3960
25515SOL    HW177986   6.758   7.743   6.106 -0.7002  1.2931  1.0263
25515SOL    HW277987   6.841   7.869   6.122  1.8825 -0.1853 -0.0670
25516SOL     OW77988   2.545   1.136   1.174 -0.1182 -0.3551 -0.3544
25516SOL    HW177989   2.612   1.099   1.232 -0.0961 -1.7832 -1.2328
25516SOL    HW277990   2.464   1.092   1.199 -0.5473  0.6339  0.0386
25517SOL     OW77991   1.330   7.136  10.378 -0.2884  0.5244 -0.3297
25517SOL    HW177992   1.400   7.084  10.339  1.2633  0.6970  2.0568
25517SOL    HW277993   1.295   7.082  10.448 -0.6652  1.5299  0.2841
25518SOL     OW77994   0.432   4.818   2.700  0.4156  0.2503  0.0172
25518SOL    HW177995   0.521   4.841   2.671  0.4117  0.3554  0.0876
25518SOL    HW277996   0.438   4.726   2.725  1.0374  0.8113  2.0842
25519SOL     OW77997   1.033   6.473   7.455  0.5732  0.3822 -0.2716
25519SOL    HW177998   1.089   6.404   7.491 -0.5826 -0.4389  0.0061
25519SOL    HW277999   1.085   6.553   7.463  1.4297 -0.2452  0.6334
25520SOL     OW78000   3.095   0.885   6.743  0.7646 -0.0352  0.3955
25520SOL    HW178001   3.000   0.891   6.741  0.6818 -0.8428 -2.2091
25520SOL    HW278002   3.116   0.851   6.830 -1.1114  2.2702  1.8797
25521SOL     OW78003   6.226   5.632   8.229  0.8999  0.3638 -0.4573
25521SOL    HW178004   6.301   5.664   8.179  0.0336  0.2734 -1.8819
25521SOL    HW278005   6.161   5.609   8.163  0.1959 -1.0800  0.6547
25522SOL     OW78006   7.106   2.317   1.498  0.2277  0.0163  0.1104
25522SOL    HW178007   7.156   2.398   1.514  0.5129 -0.0097 -0.5991
25522SOL    HW278008   7.015   2.345   1.498  0.3431  0.4232 -0.5426
25523SOL     OW78009   5.282   5.034  11.696 -0.4211 -0.2167  0.1022
25523SOL    HW178010   5.219   5.053  11.626 -1.0150 -0.8072  0.4543
25523SOL    HW278011   5.227   5.019  11.774  0.2453  0.8323  0.7913
25524SOL     OW78012   1.984   0.617   7.508  0.1995 -0.0211 -0.0139
25524SOL    HW178013   2.072   0.648   7.487  0.8079 -0.0566  2.2137
25524SOL    HW278014   1.928   0.693   7.494  0.3813 -0.2222 -2.2613
25525SOL     OW78015   7.947   2.822   4.920  0.0733 -0.3656  0.3710
25525SOL    HW178016   8.013   2.768   4.877 -0.0206  1.4485 -2.2667
25525SOL    HW278017   7.989   2.908   4.930 -1.8209  0.8972 -1.5691
25526SOL     OW78018   5.484   4.742   7.353  0.5073  0.1139  0.5482
25526SOL    HW178019   5.399   4.709   7.383  0.1527  0.4718 -0.0562
25526SOL    HW278020   5.484   4.834   7.378  0.0850  0.4974 -0.7707
25527SOL     OW78021   7.368   4.721   0.290  0.1598 -0.0819 -0.9429
25527SOL    HW178022   7.308   4.767   0.349  1.8990 -0.5244  1.3479
25527SOL    HW278023   7.400   4.647   0.342 -1.5580 -3.2950 -4.0155
25528SOL     OW78024   1.380   1.344   0.148  0.2664  0.6686  0.3643
25528SOL    HW178025   1.398   1.255   0.178 -2.7876  0.4986  2.1272
25528SOL    HW278026   1.373   1.396   0.228  0.4600  2.2056 -0.5595
25529SOL     OW78027   4.639   5.773   9.401 -0.4466  0.8907 -0.0183
25529SOL    HW178028   4.569   5.793   9.463 -0.9426 -1.1438  0.1150
25529SOL    HW278029   4.608   5.808   9.317 -1.6718 -0.0708  0.0217
25530SOL     OW78030   1.359   0.170   2.555 -0.3466  0.5717 -0.3810
25530SOL    HW178031   1.372   0.231   2.482 -0.1354 -0.2460 -1.0407
25530SOL    HW278032   1.265   0.156   2.558 -0.2524 -0.4335 -1.3859
25531SOL     OW78033   6.027   0.208   0.773 -0.2569 -0.1760 -0.0058
25531SOL    HW178034   5.935   0.182   0.771 -0.5172  0.7566 -1.3961
25531SOL    HW278035   6.046   0.237   0.684  1.1633  0.4243  0.4598
25532SOL     OW78036   3.319   2.298   8.720  0.7718 -0.5480 -0.1760
25532SOL    HW178037   3.225   2.282   8.727  0.6988 -0.4404 -0.8597
25532SOL    HW278038   3.328   2.359   8.647  1.3108  0.0604  0.3795
25533SOL     OW78039   0.458   4.323   4.243 -0.3542  0.0435 -0.9343
25533SOL    HW178040   0.546   4.303   4.211 -0.1121  0.2858 -0.4313
25533SOL    HW278041   0.452   4.278   4.327 -1.1443 -0.9482 -1.4998
25534SOL     OW78042   1.302   1.755   1.660  0.4921  0.0945 -0.7051
25534SOL    HW178043   1.353   1.674   1.657  0.6765  0.2343 -1.5107
25534SOL    HW278044   1.228   1.734   1.717  0.6033 -0.6050 -0.8115
25535SOL     OW78045   5.255   5.006   3.301  0.3747 -0.2758  0.1261
25535SOL    HW178046   5.266   5.097   3.329  1.4192 -0.0212 -1.0163
25535SOL    HW278047   5.220   5.012   3.213  2.2739 -0.8991 -0.7191
25536SOL     OW78048   0.197   6.965   2.610 -0.2374 -0.3402 -0.2131
25536SOL    HW178049   0.268   6.906   2.584 -1.0349 -1.7200  0.5764
25536SOL    HW278050   0.223   6.997   2.696  0.0974  0.3183 -0.5525
25537SOL     OW78051   4.069   1.842   3.607 -0.0272  0.0453 -0.1320
25537SOL    HW178052   4.160   1.853   3.636 -0.0622  1.6528 -0.5162
25537SOL    HW278053   4.074   1.854   3.512 -0.8345  1.6557  0.0090
25538SOL     OW78054   6.528   3.391   1.403  0.0515  0.0408 -0.2266
25538SOL    HW178055   6.484   3.307   1.386  1.2734 -0.2963 -1.9382
25538SOL    HW278056   6.606   3.367   1.453  1.2103 -0.0989 -1.9984
25539SOL     OW78057   0.719   0.923   9.405 -0.3416 -0.0303  0.5032
25539SOL    HW178058   0.718   0.847   9.463 -2.9000  0.0619  0.6835
25539SOL    HW278059   0.755   0.994   9.459  0.1082 -0.6198  0.9930
25540SOL     OW78060   0.393   4.353   6.673 -0.3995  0.6507 -0.3560
25540SOL    HW178061   0.310   4.324   6.710  0.2068 -1.8808 -0.7462
25540SOL    HW278062   0.445   4.381   6.748 -0.1515 -1.8293  0.5084
25541SOL     OW78063   4.706   5.389   7.072 -0.2178  0.3159 -0.8144
25541SOL    HW178064   4.617   5.356   7.084 -0.9274  1.7556 -1.8548
25541SOL    HW278065   4.759   5.310   7.059 -1.0501 -0.6700  1.2927
25542SOL     OW78066   4.080   7.841   4.344  0.1246  0.4794  0.2435
25542SOL    HW178067   4.083   7.798   4.429 -0.2581  1.3096  0.7021
25542SOL    HW278068   4.027   7.920   4.360  1.2026  1.3700 -0.4299
25543SOL     OW78069   2.568   1.760  10.632 -0.1729 -0.6455  0.2605
25543SOL    HW178070   2.571   1.679  10.684  1.2425  0.9657  2.8557
25543SOL    HW278071   2.644   1.754  10.574 -0.1727 -1.2121  0.3081
25544SOL     OW78072   5.086   0.057  11.077 -0.1236  0.5096 -0.1597
25544SOL    HW178073   5.037  -0.020  11.109 -0.6457  0.0495 -1.9782
25544SOL    HW278074   5.056   0.128  11.133 -0.7210 -0.3293  0.6284
25545SOL     OW78075   7.495   3.950   9.372  0.5160  0.2135  0.3285
25545SOL    HW178076   7.502   3.915   9.461 -1.0360  0.1036  0.4254
25545SOL    HW278077   7.559   4.021   9.369  1.6235 -0.7271  1.0572
25546SOL     OW78078   4.640   3.883   5.911  0.5280 -0.4708 -0.5795
25546SOL    HW178079   4.694   3.962   5.920  0.0107 -0.1673 -0.0731
25546SOL    HW278080   4.698   3.818   5.872  1.5477 -0.4611  0.8461
25547SOL     OW78081   7.379   7.082   1.695 -0.0949 -0.2053 -0.2010
25547SOL    HW178082   7.425   7.063   1.777  1.0826 -0.7237 -0.9444
25547SOL    HW278083   7.318   7.009   1.683 -0.0607 -0.2764  0.0708
25548SOL     OW78084   2.566   6.509   8.754  0.2836 -0.2304  0.3071
25548SOL    HW178085   2.608   6.428   8.784 -2.3072 -2.2118 -0.9982
25548SOL    HW278086   2.624   6.542   8.686  0.1203 -2.6091 -1.1181
25549SOL     OW78087   3.147   0.022   7.116 -0.0072 -0.2692  0.1374
25549SOL    HW178088   3.183   0.105   7.084  1.1725 -1.3291 -1.4638
25549SOL    HW278089   3.219  -0.018   7.165  0.4124 -1.5371 -1.4340
25550SOL     OW78090   1.620   2.046   6.528 -0.3366 -0.2246 -0.0515
25550SOL    HW178091   1.554   1.990   6.486 -1.7635 -0.8338  2.7083
25550SOL    HW278092   1.589   2.055   6.618  3.1041 -0.0773  1.2799
25551SOL     OW78093   0.152   0.214  10.760  0.3487  0.7069  0.2558
25551SOL    HW178094   0.086   0.279  10.787  0.7475  1.4491 -0.5062
25551SOL    HW278095   0.127   0.191  10.670 -0.1346 -0.6634  0.7220
25552SOL     OW78096   2.795   7.461   3.632  0.1197 -0.1735 -0.7786
25552SOL    HW178097   2.819   7.416   3.713  1.3034  0.0804 -0.9692
25552SOL    HW278098   2.821   7.552   3.648 -2.1975  0.4899 -0.4071
25553SOL     OW78099   4.000   2.728   2.016 -0.7749 -0.1113  0.1476
25553SOL    HW178100   4.002   2.751   1.923  1.7846 -0.7006 -0.0007
25553SOL    HW278101   4.080   2.678   2.031 -2.0119 -1.6481  2.2938
25554SOL     OW78102   1.429   0.849   6.219 -0.4415  0.6033 -0.2271
25554SOL    HW178103   1.514   0.894   6.223  0.2777 -0.3019 -3.0080
25554SOL    HW278104   1.435   0.783   6.289  1.4281  0.1772 -0.7123
25555SOL     OW78105   1.168   5.072  11.990  0.1104  0.1620 -0.6546
25555SOL    HW178106   1.099   5.030  12.041  0.9389 -0.1867  0.2089
25555SOL    HW278107   1.135   5.073  11.900 -0.3776 -1.3909 -0.5205
25556SOL     OW78108   0.604   4.584   8.412  0.5368  0.1044 -0.4933
25556SOL    HW178109   0.527   4.538   8.376  0.0158  1.2840 -0.9262
25556SOL    HW278110   0.666   4.585   8.340 -0.1671  1.6828 -1.1175
25557SOL     OW78111   6.201   2.160   4.898 -0.0851  1.0910  0.5826
25557SOL    HW178112   6.254   2.214   4.957 -0.4737  0.8045  1.2109
25557SOL    HW278113   6.181   2.217   4.825  1.1010  1.2062  0.3205
25558SOL     OW78114   6.369   0.706   6.723 -0.0195  0.2243  0.0067
25558SOL    HW178115   6.367   0.790   6.676 -1.1607  0.5894  0.6555
25558SOL    HW278116   6.292   0.659   6.691 -0.2607  0.0768  0.7683
25559SOL     OW78117   6.356   7.516  10.179  0.6048 -0.2090  0.6570
25559SOL    HW178118   6.412   7.585  10.216 -1.7676  2.8459 -0.9223
25559SOL    HW278119   6.394   7.499  10.093 -1.9080  3.8286 -1.5962
25560SOL     OW78120   3.413   7.595  12.202 -0.5595  0.0580  0.2588
25560SOL    HW178121   3.332   7.596  12.152 -0.1906 -0.1174 -0.3581
25560SOL    HW278122   3.481   7.574  12.137  0.0075  0.4305  0.7202
25561SOL     OW78123   3.146   0.483   3.677 -0.2469 -0.1607 -0.3025
25561SOL    HW178124   3.133   0.556   3.738 -2.9402  0.4411 -1.4581
25561SOL    HW278125   3.173   0.525   3.595 -0.1398 -0.6348 -0.5128
25562SOL     OW78126   4.943   7.742   2.255  0.0587  0.0831  0.0674
25562SOL    HW178127   4.895   7.736   2.172 -0.6463 -2.5649  0.5928
25562SOL    HW278128   5.033   7.761   2.229  0.0970 -1.8521 -1.4658
25563SOL     OW78129   7.497   4.501  11.567 -0.2007  0.4998 -0.1709
25563SOL    HW178130   7.519   4.590  11.540  0.9566  0.7111  1.2884
25563SOL    HW278131   7.434   4.512  11.638  1.0663  0.2782  1.0453
25564SOL     OW78132   6.627   2.693   3.852  0.3472  0.1520 -0.1255
25564SOL    HW178133   6.629   2.761   3.785  0.7883 -0.1149 -0.3908
25564SOL    HW278134   6.631   2.611   3.803  2.0435 -0.0329  0.2538
25565SOL     OW78135   2.098   4.796   9.657  0.2399 -0.2636 -0.4594
25565SOL    HW178136   2.036   4.796   9.584  0.1469 -1.1686 -0.3880
25565SOL    HW278137   2.184   4.802   9.615  0.1368  0.7827 -0.5664
25566SOL     OW78138   2.090   5.920   2.416  0.4358 -0.2867  0.0083
25566SOL    HW178139   2.099   5.969   2.335  0.8255 -1.0565 -0.4204
25566SOL    HW278140   2.171   5.871   2.424 -0.1736 -1.3053  0.1271
25567SOL     OW78141   0.319   1.437   2.028 -0.2808  0.4156  0.5187
25567SOL    HW178142   0.284   1.349   2.039  0.1832 -0.1780 -2.0979
25567SOL    HW278143   0.371   1.433   1.947  0.1806  2.9565  0.5895
25568SOL     OW78144   2.874   5.496  10.319  0.0917 -0.3213  0.2274
25568SOL    HW178145   2.947   5.519  10.261 -1.2229  0.7873 -1.0744
25568SOL    HW278146   2.860   5.403  10.304  0.9826 -0.4574  0.1884
25569SOL     OW78147   0.669   2.876   3.173 -0.1825 -0.6765 -0.0969
25569SOL    HW178148   0.634   2.924   3.098  2.0607  1.2822 -0.0059
25569SOL    HW278149   0.667   2.938   3.245  0.4940 -1.5221  0.6879
25570SOL     OW78150   6.062   6.700   1.483 -0.0365  0.6518 -0.6969
25570SOL    HW178151   6.072   6.730   1.573  0.2788  1.0877 -0.8718
25570SOL    HW278152   5.993   6.755   1.446 -1.6012 -0.8628 -0.1502
25571SOL     OW78153   3.735   3.952   1.281  0.1089 -0.5677 -0.3726
25571SOL    HW178154   3.734   3.892   1.206  2.3617  1.1696 -1.9595
25571SOL    HW278155   3.741   4.039   1.241  1.4156  0.4338  1.8207
25572SOL     OW78156   0.352   5.190  11.601 -0.1085 -0.0881 -0.1036
25572SOL    HW178157   0.427   5.213  11.656 -0.0383 -1.7941  0.5505
25572SOL    HW278158   0.288   5.259  11.618  0.5187  0.2567  0.9150
25573SOL     OW78159   0.471   2.460  10.990 -0.4165 -0.2956  0.2805
25573SOL    HW178160   0.541   2.437  10.929 -0.3466 -0.1768  0.3148
25573SOL    HW278161   0.478   2.395  11.060 -0.2378 -0.1892  0.3632
25574SOL     OW78162   2.956   7.603   5.346 -0.0742  0.0324 -0.1971
25574SOL    HW178163   2.883   7.649   5.388 -0.2272 -0.4060  0.0161
25574SOL    HW278164   2.920   7.572   5.263  0.3278  1.2152 -0.8489
25575SOL     OW78165   5.198   2.739   9.738 -0.1788  0.7046  0.2931
25575SOL    HW178166   5.150   2.748   9.656  1.0677  1.2799 -0.3995
25575SOL    HW278167   5.291   2.745   9.713  0.2491  0.0827  1.6406
25576SOL     OW78168   5.509   4.476   9.085 -0.2053  0.5304  0.3979
25576SOL    HW178169   5.556   4.393   9.075  0.8230  1.2741 -1.6137
25576SOL    HW278170   5.477   4.475   9.175 -0.7704 -2.3101  0.2515
25577SOL     OW78171   7.371   5.230   6.302 -0.0465  0.5743  0.7707
25577SOL    HW178172   7.370   5.309   6.357 -0.5295  1.1333 -0.0264
25577SOL    HW278173   7.411   5.259   6.220 -0.9952  0.2035  0.1681
25578SOL     OW78174   3.596   3.185   7.401  0.2124  0.1306 -0.0551
25578SOL    HW178175   3.531   3.116   7.385 -0.0567  0.5455 -0.7844
25578SOL    HW278176   3.647   3.189   7.320 -1.3184  2.4369 -1.0134
25579SOL     OW78177   0.638   1.600   8.028 -0.1984 -0.7915  0.8787
25579SOL    HW178178   0.724   1.640   8.013  0.0488 -1.2506  1.0657
25579SOL    HW278179   0.576   1.670   8.007  0.1767 -0.8129 -0.4537
25580SOL     OW78180   4.135   6.204   8.845 -0.0623 -0.1826  0.0843
25580SOL    HW178181   4.223   6.196   8.882 -0.0540  0.1134  0.1321
25580SOL    HW278182   4.102   6.288   8.879  0.4675  0.7889 -1.6547
25581SOL     OW78183   3.415   7.434   1.738 -0.6272 -0.7425 -0.8093
25581SOL    HW178184   3.428   7.340   1.747  3.5243 -0.1575  2.2175
25581SOL    HW278185   3.383   7.462   1.824  1.0053  0.8458 -0.6608
25582SOL     OW78186   5.776   3.390   6.340  0.2747 -0.3032  0.2304
25582SOL    HW178187   5.850   3.357   6.288  1.9644 -1.0207  2.8826
25582SOL    HW278188   5.706   3.327   6.326 -0.0767  0.5835 -2.6451
25583SOL     OW78189   0.735   4.354   8.637 -0.1107  0.2759 -0.1182
25583SOL    HW178190   0.706   4.444   8.652 -0.3083  0.1002  0.5862
25583SOL    HW278191   0.776   4.328   8.719 -1.0137 -0.6412  0.0587
25584SOL     OW78192   3.955   6.928   5.374  0.1424 -0.1074  0.4887
25584SOL    HW178193   3.923   6.839   5.362 -0.9773  0.2895  0.4002
25584SOL    HW278194   3.919   6.956   5.458  0.1469  0.3998  0.3282
25585SOL     OW78195   1.316   6.650   3.527 -0.1839  0.2286  0.3443
25585SOL    HW178196   1.291   6.664   3.618  1.7633  0.1800  0.9254
25585SOL    HW278197   1.327   6.555   3.519 -1.8246  0.0582 -0.3965
25586SOL     OW78198   4.294   5.940   6.215  0.3539  0.1611  0.2629
25586SOL    HW178199   4.366   5.996   6.244  1.1189 -0.4027 -0.4938
25586SOL    HW278200   4.270   5.890   6.293  0.0607  1.1010  0.7909
25587SOL     OW78201   3.779   0.144   9.414  0.6024  0.2578  0.1979
25587SOL    HW178202   3.864   0.179   9.389  0.8697 -0.4921  0.0165
25587SOL    HW278203   3.716   0.191   9.359  0.9014  0.7687  0.2907
25588SOL     OW78204   3.912   6.388   5.436 -0.4728 -0.1676  0.0942
25588SOL    HW178205   3.999   6.424   5.419 -0.4365 -0.0688  0.4617
25588SOL    HW278206   3.929   6.297   5.462 -0.5859 -0.5360 -1.0963
25589SOL     OW78207   7.446   2.602   2.734 -0.0105 -0.8183  0.4974
25589SOL    HW178208   7.481   2.594   2.646  1.4681  1.6028  0.7595
25589SOL    HW278209   7.503   2.547   2.788 -0.1135 -1.2721  0.1474
25590SOL     OW78210   3.994   1.217   8.189  0.2602 -0.1684 -0.0184
25590SOL    HW178211   4.057   1.257   8.129 -1.9961 -0.1808 -2.5686
25590SOL    HW278212   3.922   1.280   8.194 -0.5185 -1.1149  1.0163
25591SOL     OW78213   3.250   6.233   4.228 -0.1596  0.7312 -0.0347
25591SOL    HW178214   3.159   6.232   4.198  0.2679  1.0972 -1.4435
25591SOL    HW278215   3.301   6.213   4.149  1.0724  2.2386  0.3234
25592SOL     OW78216   3.428   6.646   4.009  0.0756  0.4427  0.2445
25592SOL    HW178217   3.356   6.584   4.021 -0.8091  0.5424 -3.2755
25592SOL    HW278218   3.395   6.728   4.044 -0.3441 -0.1369  1.2554
25593SOL     OW78219   3.630   7.879   9.730 -0.4888 -0.0870  0.5683
25593SOL    HW178220   3.577   7.846   9.657  1.0037 -0.5261 -0.3587
25593SOL    HW278221   3.567   7.926   9.785 -1.9552 -1.1076 -0.1432
25594SOL     OW78222   5.927   3.372   9.299 -0.2707 -0.1291 -0.0176
25594SOL    HW178223   5.841   3.400   9.269 -0.3413 -0.5974 -0.2650
25594SOL    HW278224   5.938   3.415   9.384 -1.9081 -2.1153  1.3032
25595SOL     OW78225   5.558   4.975   4.956  0.5385  0.3227  0.0939
25595SOL    HW178226   5.572   4.882   4.937  0.4585  0.4932 -0.8530
25595SOL    HW278227   5.504   4.976   5.034 -0.7409 -0.4629 -0.7436
25596SOL     OW78228   1.155   2.770   3.369 -0.0233 -0.0507  0.9545
25596SOL    HW178229   1.246   2.794   3.352 -0.8039  1.4994 -1.6985
25596SOL    HW278230   1.158   2.720   3.450  3.2581 -0.6083  0.6340
25597SOL     OW78231   5.612   7.443   5.295  0.4451  0.1638  0.4128
25597SOL    HW178232   5.529   7.411   5.259  0.3668  0.9184 -0.1180
25597SOL    HW278233   5.619   7.400   5.380 -1.1722  1.0941  1.0741
25598SOL     OW78234   7.270   6.710  12.284 -0.0007 -0.2147  0.1109
25598SOL    HW178235   7.351   6.660  12.271  0.1581 -0.0777  0.5539
25598SOL    HW278236   7.200   6.645  12.276  0.2636 -0.8055  2.0634
25599SOL     OW78237   6.844   6.319   6.045  0.2256  0.2351  0.4173
25599SOL    HW178238   6.816   6.400   6.003 -0.0666  1.3648  2.6546
25599SOL    HW278239   6.871   6.345   6.133  2.2205 -1.7912  0.4842
25600SOL     OW78240   2.687   1.797   7.353  0.0171  0.1994 -0.0706
25600SOL    HW178241   2.672   1.890   7.364  2.8335  0.8991 -1.2564
25600SOL    HW278242   2.733   1.770   7.433 -1.6865 -0.4736  0.7344
25601SOL     OW78243   6.886   0.228   4.083 -0.1291  0.2678  0.0394
25601SOL    HW178244   6.806   0.244   4.133 -0.0302  1.2679 -0.1015
25601SOL    HW278245   6.925   0.315   4.071  0.2512 -0.0400 -1.1063
25602SOL     OW78246   3.016   3.436   5.641  0.5447 -0.5858 -0.0250
25602SOL    HW178247   3.090   3.442   5.580  1.2396 -2.5445  0.5378
25602SOL    HW278248   2.953   3.379   5.596 -1.1117  1.7639 -0.8830
25603SOL     OW78249   1.373   0.252   7.958 -0.3553 -0.5798  0.0310
25603SOL    HW178250   1.463   0.237   7.932  0.4883  0.8748  1.8547
25603SOL    HW278251   1.323   0.246   7.877  1.2801 -1.9664 -0.9364
25604SOL     OW78252   6.618   7.561   4.392  0.3833  0.3339 -0.1831
25604SOL    HW178253   6.650   7.588   4.305  0.3451 -1.1961 -0.7034
25604SOL    HW278254   6.690   7.511   4.429  0.0314  0.1546  0.2591
25605SOL     OW78255   5.570   0.020   7.599 -0.6840 -0.3873 -0.4002
25605SOL    HW178256   5.635   0.049   7.663 -1.6564  0.9614  0.0061
25605SOL    HW278257   5.623  -0.018   7.528  0.3893 -2.5706  1.4357
25606SOL     OW78258   6.082   5.763   1.366  0.3280  0.1894  0.0730
25606SOL    HW178259   6.077   5.669   1.380  2.2734  0.1740  0.9243
25606SOL    HW278260   6.112   5.799   1.449 -0.3182  1.5724 -0.2550
25607SOL     OW78261   7.944   2.138   4.756 -0.0295  0.3719  0.4865
25607SOL    HW178262   7.906   2.173   4.675 -1.5812  1.3126  1.5747
25607SOL    HW278263   7.984   2.214   4.798  1.0443 -0.1745  0.4864
25608SOL     OW78264   1.182   6.162   7.776  0.1304 -0.0008  0.3171
25608SOL    HW178265   1.221   6.076   7.789 -0.0513  0.1495  2.1021
25608SOL    HW278266   1.106   6.163   7.834  0.2849  1.4362  0.5317
25609SOL     OW78267   0.655   4.029   2.099 -0.3719  0.3619  0.0820
25609SOL    HW178268   0.570   4.070   2.087 -0.5225  0.4317  1.2949
25609SOL    HW278269   0.649   3.947   2.050 -0.1970  1.5572 -2.0571
25610SOL     OW78270   0.509   5.049   8.123  0.1331  0.5696  0.1520
25610SOL    HW178271   0.498   4.957   8.147 -0.1767  0.8021  0.9447
25610SOL    HW278272   0.476   5.098   8.199  1.0088  1.3323  0.0661
25611SOL     OW78273   5.540   0.781   6.394  0.0424  0.4972  0.1721
25611SOL    HW178274   5.634   0.778   6.414  0.1920 -2.5465 -0.5048
25611SOL    HW278275   5.502   0.713   6.449 -1.6775  1.1874 -0.1155
25612SOL     OW78276   7.395   6.089   6.855  0.5026 -0.1317  0.5595
25612SOL    HW178277   7.462   6.030   6.890  0.6805 -0.1635  0.1698
25612SOL    HW278278   7.337   6.106   6.929  0.7135 -0.4258  0.7951
25613SOL     OW78279   2.749   1.701   2.559 -0.2411 -0.2320  0.0331
25613SOL    HW178280   2.662   1.709   2.598  0.9274 -0.4339  2.9310
25613SOL    HW278281   2.777   1.612   2.582  0.9403  0.0313 -0.3522
25614SOL     OW78282   4.495   7.112  11.975  0.4149 -0.4519  0.0281
25614SOL    HW178283   4.529   7.125  12.064  2.1547 -0.2991 -0.6161
25614SOL    HW278284   4.484   7.201  11.941 -0.6150 -0.5039  0.2056
25615SOL     OW78285   5.610   7.489   1.965 -0.3090 -0.1503 -0.1688
25615SOL    HW178286   5.697   7.487   1.927 -0.9531  0.1712 -1.7164
25615SOL    HW278287   5.602   7.405   2.011  0.6547 -0.3622 -0.3772
25616SOL     OW78288   5.860   4.589   7.651 -0.3578  0.2169  0.6697
25616SOL    HW178289   5.807   4.524   7.605  1.1384 -1.1960  0.8531
25616SOL    HW278290   5.931   4.610   7.590 -2.1244  3.7417 -0.4975
25617SOL     OW78291   2.978   0.756  10.612  0.5850 -0.2862 -0.1349
25617SOL    HW178292   2.917   0.765  10.538  0.7052  0.6148 -0.1283
25617SOL    HW278293   3.065   0.757  10.573  0.6122 -1.8429 -0.1714
25618SOL     OW78294   4.968   1.338   5.597  0.4564 -0.1653 -0.5438
25618SOL    HW178295   5.048   1.298   5.562  0.7639 -1.0551  1.0981
25618SOL    HW278296   4.957   1.299   5.684 -1.3002  0.5786 -0.3847
25619SOL     OW78297   0.505   6.992   1.340  0.0204  0.3374  0.5704
25619SOL    HW178298   0.547   6.909   1.361 -1.6340 -0.3349  1.4532
25619SOL    HW278299   0.486   6.987   1.246 -2.0115 -1.2992  0.9851
25620SOL     OW78300   1.575   5.237  10.408 -0.1761  0.0226 -0.0305
25620SOL    HW178301   1.508   5.231  10.340 -1.5179  1.0617  1.1417
25620SOL    HW278302   1.551   5.314  10.459  0.0888 -1.3416  2.3294
25621SOL     OW78303   5.639   6.006   5.207  0.4180 -0.3919 -0.0926
25621SOL    HW178304   5.640   5.927   5.262 -0.1860 -0.2277  0.1629
25621SOL    HW278305   5.605   6.074   5.264  1.0810  0.0984 -0.2688
25622SOL     OW78306   6.957   0.302  10.571  0.0460 -0.1911 -0.2812
25622SOL    HW178307   6.939   0.394  10.548  1.0595 -0.0532 -0.5594
25622SOL    HW278308   6.886   0.279  10.632  0.7646  1.3546  1.2455
25623SOL     OW78309   5.027   6.028   6.941 -0.5425 -0.1749 -0.3169
25623SOL    HW178310   4.936   6.051   6.962 -0.9645 -0.3098 -1.8880
25623SOL    HW278311   5.021   5.941   6.901  0.4663 -0.8507  0.9273
25624SOL     OW78312   7.325   2.712   7.682 -0.3843 -0.3951 -0.2213
25624SOL    HW178313   7.310   2.712   7.587 -0.4155 -0.2654 -0.2171
25624SOL    HW278314   7.400   2.771   7.694 -1.5636  1.1226  0.0108
25625SOL     OW78315   7.399   7.224   0.890  0.0646 -0.0752 -0.6362
25625SOL    HW178316   7.379   7.132   0.871  2.4500 -0.6472 -0.6693
25625SOL    HW278317   7.357   7.242   0.974 -0.9995 -0.9808 -0.9636
25626SOL     OW78318   1.865   2.827   9.116 -0.0898 -0.1231  0.1802
25626SOL    HW178319   1.918   2.877   9.054  2.7907 -0.3349  2.2529
25626SOL    HW278320   1.825   2.893   9.172  0.3918 -0.0015  0.3899
25627SOL     OW78321   0.863   2.976   8.904 -0.3513 -0.0915  0.1246
25627SOL    HW178322   0.803   2.984   8.830  0.1568 -1.6257 -0.4991
25627SOL    HW278323   0.942   3.022   8.876 -1.2854  2.2799  1.1025
25628SOL     OW78324   1.870   0.044   2.246  0.0962  0.2967  0.4308
25628SOL    HW178325   1.878   0.139   2.242 -2.0208  0.5610  1.2276
25628SOL    HW278326   1.844   0.025   2.336  0.4869 -1.0570  0.2929
25629SOL     OW78327   6.769   7.955   0.469  0.0071  0.0401 -0.1709
25629SOL    HW178328   6.779   7.965   0.564  0.5611 -0.6217 -0.1454
25629SOL    HW278329   6.681   7.988   0.450  1.4109  4.4124 -0.0931
25630SOL     OW78330   0.591   6.137   9.949 -0.1548  0.6164  0.1467
25630SOL    HW178331   0.621   6.055   9.909 -0.9077 -0.4598  1.6632
25630SOL    HW278332   0.624   6.133  10.039 -0.1705  2.0151  0.2295
25631SOL     OW78333   3.671   0.120   1.754  0.2047  0.5848  0.4097
25631SOL    HW178334   3.646   0.041   1.801 -1.2129  1.3248  0.9435
25631SOL    HW278335   3.617   0.189   1.792 -0.2908  1.3925 -1.6216
25632SOL     OW78336   1.425   6.514   2.775  0.3062  0.1290 -0.2646
25632SOL    HW178337   1.450   6.424   2.796  1.1862  0.6848  1.2155
25632SOL    HW278338   1.466   6.567   2.843 -1.6236  1.5090 -0.0824
25633SOL     OW78339   7.795   3.610   0.708  0.2829 -0.6738 -0.7910
25633SOL    HW178340   7.724   3.590   0.769 -0.3266  0.8320 -0.9567
25633SOL    HW278341   7.778   3.700   0.680  0.4353 -1.3538 -3.3398
25634SOL     OW78342   3.468   2.460   2.184 -0.6098  0.1914 -0.7170
25634SOL    HW178343   3.439   2.413   2.263  1.6251  0.2941  0.2424
25634SOL    HW278344   3.468   2.394   2.115 -0.0642 -0.5709 -0.0033
25635SOL     OW78345   4.050   5.707   9.821  0.2208 -0.2097  0.3361
25635SOL    HW178346   4.065   5.614   9.832  0.6835  0.0075  1.7660
25635SOL    HW278347   3.997   5.732   9.897  0.5211  0.7773  0.2381
25636SOL     OW78348   2.547   0.785  10.202  0.5218 -0.2388  0.0772
25636SOL    HW178349   2.634   0.803  10.237  0.7442  1.1936 -1.0859
25636SOL    HW278350   2.534   0.691  10.214  1.2298 -0.0880  2.4254
25637SOL     OW78351   0.107   6.683   1.195 -0.3423  0.3159 -0.0485
25637SOL    HW178352   0.146   6.650   1.115 -0.2869 -1.6051  0.7250
25637SOL    HW278353   0.180   6.684   1.258 -0.9348 -0.7212  0.6758
25638SOL     OW78354   7.899   7.890  10.903 -0.1783 -0.4149 -0.4942
25638SOL    HW178355   7.851   7.807  10.899 -0.3239 -0.6093  2.6247
25638SOL    HW278356   7.884   7.922  10.993  1.4799  2.0117 -0.9857
25639SOL     OW78357   6.804   5.799   4.544  0.1341 -0.2227  0.0101
25639SOL    HW178358   6.847   5.839   4.620  0.2845 -2.2508  1.0710
25639SOL    HW278359   6.710   5.808   4.563  0.1620 -0.1307  0.1100
25640SOL     OW78360   5.975   6.313  11.386  0.1767  0.4503  0.3593
25640SOL    HW178361   5.919   6.349  11.318 -0.4677  1.5583  1.4262
25640SOL    HW278362   6.051   6.372  11.388  1.2358 -0.8115 -0.8115
25641SOL     OW78363   4.655   1.468   6.830 -0.1754 -0.1749 -0.1407
25641SOL    HW178364   4.623   1.383   6.798 -0.0795 -0.5209  0.6637
25641SOL    HW278365   4.577   1.523   6.833 -0.4720 -0.6139  0.5222
25642SOL     OW78366   2.660   6.240  10.982  0.5137  0.6796 -0.1287
25642SOL    HW178367   2.607   6.215  11.058 -0.5689  2.3928 -0.2575
25642SOL    HW278368   2.747   6.205  11.000 -0.5352 -1.9143  0.2760
25643SOL     OW78369   3.531   6.662   0.085  0.2991  0.6665 -0.9934
25643SOL    HW178370   3.565   6.629   0.002  3.4869 -0.6716  0.6818
25643SOL    HW278371   3.548   6.592   0.148 -2.9477  1.2031  0.7194
25644SOL     OW78372   2.073   7.197   9.542 -0.9068 -0.6722  0.5072
25644SOL    HW178373   2.058   7.291   9.551  1.1705 -0.2332  0.0715
25644SOL    HW278374   2.131   7.175   9.616  0.1225 -1.1920 -0.4229
25645SOL     OW78375   2.699   2.982   1.911 -0.4635  0.2405  0.0860
25645SOL    HW178376   2.698   2.956   1.819 -0.3793  0.7456 -0.0599
25645SOL    HW278377   2.710   2.900   1.959  1.4856  0.1511 -0.4393
25646SOL     OW78378   0.503   7.527   4.991  0.3218 -0.7738  0.2846
25646SOL    HW178379   0.464   7.607   5.025  0.6622 -0.4363 -0.1009
25646SOL    HW278380   0.463   7.515   4.905  1.0603 -0.4160 -0.1219
25647SOL     OW78381   3.328   7.187   5.921  0.1630 -0.5051 -0.2325
25647SOL    HW178382   3.299   7.098   5.904 -0.2782 -0.2281 -0.9877
25647SOL    HW278383   3.313   7.233   5.838  1.6277 -0.0532 -0.2837
25648SOL     OW78384   4.945   7.630   9.593 -0.4392  0.2642 -0.6901
25648SOL    HW178385   4.850   7.630   9.581 -0.6146  2.8089  0.1179
25648SOL    HW278386   4.965   7.718   9.623  1.9636 -0.7568  1.0268
25649SOL     OW78387   1.256   4.748   6.067  0.0704  0.1673  0.2852
25649SOL    HW178388   1.240   4.655   6.086  0.8455 -0.3074 -1.1866
25649SOL    HW278389   1.169   4.788   6.068 -0.4789 -0.9443 -0.7821
25650SOL     OW78390   5.312   5.986   9.758 -0.1873  0.2476 -0.1372
25650SOL    HW178391   5.224   5.948   9.762 -0.2071  0.3621  0.5236
25650SOL    HW278392   5.297   6.077   9.731 -0.3046  0.3736  0.3444
25651SOL     OW78393   0.624   4.338   3.343  0.0030 -0.0839 -0.0489
25651SOL    HW178394   0.578   4.422   3.346  0.4499  0.2338 -1.3604
25651SOL    HW278395   0.554   4.273   3.342 -0.4347 -0.0776  5.2415
25652SOL     OW78396   4.272   2.770   9.027  0.1187  0.0138 -0.2544
25652SOL    HW178397   4.352   2.725   9.054 -0.9758 -1.1733  1.1790
25652SOL    HW278398   4.255   2.832   9.098  0.1077  0.7266 -0.8713
25653SOL     OW78399   6.428   3.358   1.912 -0.0281  0.7498 -0.0440
25653SOL    HW178400   6.523   3.344   1.903 -0.1106 -0.8983  1.1281
25653SOL    HW278401   6.420   3.416   1.987  0.0341 -0.1515  0.6775
25654SOL     OW78402   4.783   3.346   2.594 -0.1836  0.4937  0.1860
25654SOL    HW178403   4.869   3.380   2.568 -0.9512  2.0177 -0.5493
25654SOL    HW278404   4.758   3.399   2.669 -1.1178  1.1324 -0.5531
25655SOL     OW78405   3.156   7.016   2.883 -0.5674 -1.2043  0.0997
25655SOL    HW178406   3.245   7.045   2.903  0.1000 -1.9330 -1.6361
25655SOL    HW278407   3.141   6.941   2.940  0.1817 -1.4642 -0.0397
25656SOL     OW78408   7.502   4.313   1.186  0.2966  0.8960  0.3307
25656SOL    HW178409   7.472   4.402   1.204 -1.8765  0.0987  0.9297
25656SOL    HW278410   7.441   4.256   1.233  1.5769 -0.9462 -0.0883
25657SOL     OW78411   6.028   7.885  11.217  0.0454  0.1495  0.0810
25657SOL    HW178412   6.070   7.953  11.269  0.4162 -0.5381  0.6905
25657SOL    HW278413   6.099   7.825  11.194 -0.2672 -0.0010 -0.5020
25658SOL     OW78414   6.779   0.349   8.476 -0.0995 -0.1415 -0.3283
25658SOL    HW178415   6.765   0.402   8.554  0.2350  0.5553 -0.7352
25658SOL    HW278416   6.694   0.307   8.460  0.2180 -1.4857  1.2652
25659SOL     OW78417   2.529   6.045  10.384 -0.4900  0.1022  0.4010
25659SOL    HW178418   2.496   5.983  10.318  0.6502 -1.2799  1.0601
25659SOL    HW278419   2.596   6.095  10.337  0.4257 -0.9800  0.5003
25660SOL     OW78420   2.060   4.769   7.266  0.0114  0.1077  0.8249
25660SOL    HW178421   1.968   4.758   7.243  0.9864 -2.1470 -3.0047
25660SOL    HW278422   2.083   4.689   7.314  0.2969 -0.1746  0.2386
25661SOL     OW78423   3.262   4.884   2.090  0.2477  0.1552  0.3252
25661SOL    HW178424   3.272   4.976   2.114  0.3665  0.0416  0.7187
25661SOL    HW278425   3.315   4.874   2.011 -1.0440  0.7947 -0.6596
25662SOL     OW78426   4.034   7.383   3.873  0.0280  0.4297  0.1602
25662SOL    HW178427   3.948   7.426   3.873 -1.7958 -2.8279 -1.8470
25662SOL    HW278428   4.091   7.443   3.825 -1.9418  1.3900 -1.1267
25663SOL     OW78429   4.362   2.338  10.414 -0.0713 -0.1328 -0.4460
25663SOL    HW178430   4.359   2.432  10.395 -1.7097  0.3709  1.8898
25663SOL    HW278431   4.421   2.330  10.489 -0.3021 -0.9115 -0.3358
25664SOL     OW78432   5.661   0.315   2.631  0.0088  0.0217  0.7041
25664SOL    HW178433   5.683   0.344   2.542  0.5966 -0.3917  0.7117
25664SOL    HW278434   5.745   0.309   2.676 -0.1937 -0.7335  0.9981
25665SOL     OW78435   6.024   5.606   9.883  0.0327  0.3295 -0.1498
25665SOL    HW178436   5.993   5.693   9.908  0.2018  0.5885 -0.8298
25665SOL    HW278437   5.960   5.576   9.818 -0.1372 -0.1397  0.2299
25666SOL     OW78438   1.174   7.797   1.602 -0.2180  0.3059 -0.2885
25666SOL    HW178439   1.121   7.722   1.630  0.3971 -0.9093 -2.1810
25666SOL    HW278440   1.138   7.821   1.516  0.9736  0.7978 -0.6691
25667SOL     OW78441   3.214   5.073   7.249  0.1506 -0.0943  0.5457
25667SOL    HW178442   3.241   4.981   7.243  0.2866  0.0549 -2.2154
25667SOL    HW278443   3.120   5.069   7.267 -0.3526 -0.9142 -1.8715
25668SOL     OW78444   3.157   4.250  10.805 -0.0558 -0.1901 -0.2266
25668SOL    HW178445   3.185   4.248  10.714 -1.1095 -0.2228 -0.5697
25668SOL    HW278446   3.126   4.340  10.819  0.0257 -0.2072  0.0720
25669SOL     OW78447   5.658   0.571   8.491  0.3152 -0.2166 -0.4058
25669SOL    HW178448   5.602   0.525   8.554 -1.5839  0.1262 -1.7604
25669SOL    HW278449   5.624   0.660   8.489 -0.5817 -0.5363 -2.8522
25670SOL     OW78450   3.761   4.362   2.413  0.2487  0.4744 -0.3676
25670SOL    HW178451   3.689   4.386   2.354  0.3074  1.6858  0.0421
25670SOL    HW278452   3.724   4.370   2.501  0.5056 -0.2038 -0.1863
25671SOL     OW78453   4.204   2.152   3.613 -0.6456  0.2123  0.3463
25671SOL    HW178454   4.153   2.156   3.694 -0.7405  0.4061  0.2782
25671SOL    HW278455   4.269   2.084   3.629 -0.3998  0.5304  0.7411
25672SOL     OW78456   2.511   6.163  10.782  0.4298  0.1298 -0.2656
25672SOL    HW178457   2.561   6.095  10.737  1.1105  0.8258 -0.5817
25672SOL    HW278458   2.574   6.205  10.840 -0.2272 -0.1671  0.6983
25673SOL     OW78459   3.838   2.693  10.457 -0.5150  0.5648  0.5080
25673SOL    HW178460   3.853   2.746  10.535  0.5114  0.4216  0.4218
25673SOL    HW278461   3.770   2.740  10.408 -2.1697 -0.0177  2.1048
25674SOL     OW78462   0.148   7.278   6.534  0.1793 -0.3367 -0.0378
25674SOL    HW178463   0.139   7.188   6.565  0.9482 -0.3199  0.2648
25674SOL    HW278464   0.065   7.319   6.558  1.0517 -0.0598  3.0088
25675SOL     OW78465   2.603   0.665   8.343 -0.0319  0.2979 -0.0678
25675SOL    HW178466   2.671   0.731   8.353 -1.4071  1.6067  1.4021
25675SOL    HW278467   2.545   0.700   8.276  0.8569 -0.9690 -1.5607
25676SOL     OW78468   1.768   2.750  11.397 -0.5888  0.1190 -0.6674
25676SOL    HW178469   1.852   2.785  11.426 -0.9218  1.4240 -1.1844
25676SOL    HW278470   1.757   2.669  11.447  1.4092 -0.5975 -1.3171
25677SOL     OW78471   5.634   4.453   8.111  0.6333 -0.2215 -0.1566
25677SOL    HW178472   5.667   4.440   8.022  0.9457  0.2934 -0.1169
25677SOL    HW278473   5.566   4.520   8.102 -1.3076 -2.1002 -0.4341
25678SOL     OW78474   0.608   3.348   8.968  0.2326 -0.3294  0.0903
25678SOL    HW178475   0.573   3.260   8.956  1.6737 -0.9268  0.0156
25678SOL    HW278476   0.531   3.404   8.981 -0.8485 -1.2083 -2.1068
25679SOL     OW78477   6.328   2.033   8.295 -0.0769 -0.0947  0.1700
25679SOL    HW178478   6.399   2.037   8.359  0.1274  1.9670 -0.1073
25679SOL    HW278479   6.248   2.047   8.347  0.0332  0.9212  0.0860
25680SOL     OW78480   3.913   5.361   3.877  0.2786 -0.5119  0.5498
25680SOL    HW178481   3.858   5.288   3.905 -1.7476  0.5631 -0.3719
25680SOL    HW278482   3.972   5.376   3.950  0.0908 -2.4332  1.1528
25681SOL     OW78483   2.671   0.600   5.022  0.0409 -0.4702 -0.0372
25681SOL    HW178484   2.710   0.538   4.961  1.8434  0.0728  0.5193
25681SOL    HW278485   2.704   0.574   5.108  1.4172  1.6101  0.1448
25682SOL     OW78486   1.508   3.744   0.167  0.0570 -0.1933 -0.2359
25682SOL    HW178487   1.421   3.745   0.207 -0.4192  0.5068 -1.2376
25682SOL    HW278488   1.494   3.776   0.078  1.1647 -1.1985 -0.8046
25683SOL     OW78489   3.048   7.901   0.002  0.4975  0.0016 -0.0720
25683SOL    HW178490   2.999   7.833   0.049 -0.5861  0.9815  0.2786
25683SOL    HW278491   3.095   7.854  -0.066 -2.4984 -0.8295 -1.7433
25684SOL     OW78492   7.605   7.199   3.015 -0.2857  0.0840 -0.4854
25684SOL    HW178493   7.686   7.211   3.065 -1.6239  2.2122  1.3788
25684SOL    HW278494   7.589   7.285   2.976 -1.2695 -0.5162 -1.4621
25685SOL     OW78495   3.907   1.988  10.662 -0.0028 -0.5896 -0.3056
25685SOL    HW178496   3.943   1.962  10.577 -0.0310  0.9037 -0.8152
25685SOL    HW278497   3.831   1.933  10.674 -1.0670  0.3841 -2.1483
25686SOL     OW78498   0.335   2.810  11.629 -0.3753 -0.2575 -0.1438
25686SOL    HW178499   0.380   2.889  11.658 -0.1574 -1.1759  2.2399
25686SOL    HW278500   0.257   2.804  11.684 -1.1603 -0.9653 -1.2781
25687SOL     OW78501   3.537   0.294   8.790 -0.1209 -0.3508  0.0403
25687SOL    HW178502   3.629   0.268   8.799 -0.6642 -2.8296 -0.7713
25687SOL    HW278503   3.514   0.333   8.875  1.2166 -1.2697  0.8535
25688SOL     OW78504   3.315   6.060   4.595  0.3458  0.0758  0.5014
25688SOL    HW178505   3.339   6.013   4.516 -2.1145 -1.2859  0.4666
25688SOL    HW278506   3.259   6.132   4.565  1.7405  1.3322  0.8082
25689SOL     OW78507   2.647   0.965   9.233  0.2442 -0.1865  0.1148
25689SOL    HW178508   2.580   0.988   9.298  0.2433 -1.1381  0.4659
25689SOL    HW278509   2.615   1.002   9.151 -2.1033 -2.7925 -0.3045
25690SOL     OW78510   6.787   1.826   8.807  0.0326  0.2128  0.4513
25690SOL    HW178511   6.766   1.856   8.719 -1.6016  1.1285  1.1121
25690SOL    HW278512   6.881   1.808   8.805  0.2366  1.3002 -1.1685
25691SOL     OW78513   4.405   2.690  12.460 -0.7501  0.1212 -0.2522
25691SOL    HW178514   4.450   2.614  12.423  0.8344  0.4437  0.8799
25691SOL    HW278515   4.312   2.666  12.458 -0.3074 -1.8137 -0.0421
25692SOL     OW78516   0.330   0.029   5.686 -0.1652  0.3961 -0.3113
25692SOL    HW178517   0.296   0.108   5.729 -1.0880  0.2980 -0.8457
25692SOL    HW278518   0.287  -0.044   5.731 -0.0340  0.2346 -0.4426
25693SOL     OW78519   6.922   0.732   5.538 -0.6396 -0.1891  0.0313
25693SOL    HW178520   6.994   0.792   5.523 -0.6682 -0.1876 -0.1039
25693SOL    HW278521   6.852   0.787   5.575 -0.3318 -0.3211  0.8209
25694SOL     OW78522   7.518   6.006   8.707  0.1387  0.1093 -0.2201
25694SOL    HW178523   7.490   5.920   8.739  0.7562 -0.2676 -0.6633
25694SOL    HW278524   7.449   6.031   8.645  0.1058 -0.2031 -0.3144
25695SOL     OW78525   7.901   7.800   9.157 -0.5261 -0.6997 -0.0181
25695SOL    HW178526   7.917   7.871   9.094 -1.2230 -0.8363 -0.3569
25695SOL    HW278527   7.939   7.722   9.116 -3.5942 -1.4359 -1.7325
25696SOL     OW78528   5.715   7.756   1.397  0.0185  0.1565  0.6148
25696SOL    HW178529   5.658   7.689   1.434  0.1779  0.2719  1.0722
25696SOL    HW278530   5.719   7.735   1.303  0.4480 -0.7600  0.8316
25697SOL     OW78531   2.527   5.225   9.541 -0.4858 -0.1171  0.0891
25697SOL    HW178532   2.439   5.195   9.517 -1.2414  0.5245  1.8651
25697SOL    HW278533   2.565   5.150   9.588 -1.0496  0.4248  1.4654
25698SOL     OW78534   4.476   4.855   3.463 -0.3028 -0.0901 -0.0131
25698SOL    HW178535   4.416   4.844   3.537 -1.6964 -1.2712 -1.2596
25698SOL    HW278536   4.501   4.766   3.438 -0.0998  0.2628 -1.1429
25699SOL     OW78537   3.476   0.127   6.969  0.5837 -0.0256 -0.4801
25699SOL    HW178538   3.412   0.129   6.898 -0.6940 -2.1541  0.5178
25699SOL    HW278539   3.427   0.157   7.046  2.0861  2.7704 -0.4920
25700SOL     OW78540   6.120   2.142   2.897 -0.2786  0.0418 -0.0890
25700SOL    HW178541   6.140   2.226   2.854  0.9706  0.5792  1.4533
25700SOL    HW278542   6.062   2.097   2.835 -0.3401  1.7016 -1.3144
25701SOL     OW78543   4.661   3.051   4.985  0.3160 -0.6349 -0.2996
25701SOL    HW178544   4.600   3.124   4.980  1.1143  0.0257 -0.5967
25701SOL    HW278545   4.701   3.047   4.898  0.9219 -0.8504 -0.0190
25702SOL     OW78546   2.678   2.478   6.734 -0.0640 -0.8690  0.3679
25702SOL    HW178547   2.636   2.552   6.778  0.2125  0.2252 -1.0959
25702SOL    HW278548   2.722   2.430   6.803 -0.2053  0.3799  1.3616
25703SOL     OW78549   0.264   2.170  10.335  0.2361  0.2133  0.1036
25703SOL    HW178550   0.240   2.084  10.300 -2.4838  0.7321  0.5328
25703SOL    HW278551   0.342   2.195  10.284  1.1257 -2.4714  0.0003
25704SOL     OW78552   2.769   4.500   9.558 -0.4328 -0.1602  0.1790
25704SOL    HW178553   2.829   4.508   9.632 -0.2031 -0.7203  0.0539
25704SOL    HW278554   2.720   4.420   9.575 -0.9224  0.1228  0.1171
25705SOL     OW78555   4.930   2.729   0.071 -0.0672 -0.3210 -0.0850
25705SOL    HW178556   4.873   2.653   0.061 -1.9470  1.1010 -1.0539
25705SOL    HW278557   4.893   2.776   0.145  0.7284 -0.0745  0.1588
25706SOL     OW78558   7.959   0.890   5.216 -0.2342 -0.5637 -0.6767
25706SOL    HW178559   7.944   0.983   5.201  2.9578  0.2016 -0.0623
25706SOL    HW278560   8.050   0.877   5.189 -0.4240 -3.3913 -0.2087
25707SOL     OW78561   0.049   1.566   3.599  0.1679 -0.3429 -0.3144
25707SOL    HW178562   0.085   1.534   3.516  1.3293 -1.4857  0.5877
25707SOL    HW278563   0.025   1.657   3.581  0.7685 -0.4492 -1.7914
25708SOL     OW78564   7.796   2.420   1.786  0.3124 -0.2820 -0.4802
25708SOL    HW178565   7.794   2.479   1.862  1.4866  1.1467 -1.4891
25708SOL    HW278566   7.879   2.439   1.743 -0.1996 -1.2354 -1.9797
25709SOL     OW78567   2.303   6.888   7.269  0.1516 -0.6392 -0.2033
25709SOL    HW178568   2.387   6.930   7.251 -0.5693  0.1660 -1.9195
25709SOL    HW278569   2.287   6.905   7.362  1.3364  0.1904 -0.1319
25710SOL     OW78570   3.570   6.626   3.696  0.1289 -0.3307  0.0364
25710SOL    HW178571   3.501   6.582   3.745 -0.4851  0.4921 -0.0625
25710SOL    HW278572   3.563   6.590   3.608  1.6200 -2.2531  0.6400
25711SOL     OW78573   0.128   5.924  10.163  0.3176  0.0565 -0.1874
25711SOL    HW178574   0.126   5.975  10.083  0.1640 -1.4409 -1.1885
25711SOL    HW278575   0.156   5.985  10.231  1.9800  0.9900 -1.6551
25712SOL     OW78576   6.781   2.400   6.756  0.0177 -0.0651 -0.0320
25712SOL    HW178577   6.808   2.489   6.733 -1.5721  0.2920 -0.6735
25712SOL    HW278578   6.839   2.375   6.829  0.5091  1.4758  0.1412
25713SOL     OW78579   4.748   3.460   8.040  0.1288  0.0799  0.8967
25713SOL    HW178580   4.744   3.524   8.111  0.1224 -0.6091  1.5251
25713SOL    HW278581   4.819   3.401   8.066  1.8008  1.1798 -0.8377
25714SOL     OW78582   1.815   2.488   2.683 -0.0913  0.4062 -0.0101
25714SOL    HW178583   1.871   2.494   2.760  0.0446  1.5084 -0.1815
25714SOL    HW278584   1.732   2.527   2.710 -0.0856  0.6749 -0.3776
25715SOL     OW78585   4.511   4.430   6.343 -0.3202  0.0749  0.3378
25715SOL    HW178586   4.574   4.500   6.357 -1.1381  1.0563 -0.7012
25715SOL    HW278587   4.558   4.366   6.288 -0.3162  0.9601 -0.7193
25716SOL     OW78588   2.040   0.828   5.276 -0.7921 -0.0608  0.3596
25716SOL    HW178589   2.006   0.824   5.366  0.9832 -2.6252  1.0136
25716SOL    HW278590   2.016   0.744   5.237  0.0728  0.2671 -0.9385
25717SOL     OW78591   3.557   7.466  11.702 -0.1227 -0.2412 -0.1955
25717SOL    HW178592   3.504   7.396  11.740 -0.2431 -0.2021 -0.2882
25717SOL    HW278593   3.617   7.421  11.643 -1.2913 -0.1519 -1.5241
25718SOL     OW78594   1.073   2.809   9.518 -0.3476 -0.0837  0.4067
25718SOL    HW178595   1.117   2.879   9.470  0.4403 -0.7119  0.1930
25718SOL    HW278596   1.132   2.789   9.590 -0.3743 -0.7905  0.2384
25719SOL     OW78597   3.255   0.709  10.991  0.5939 -0.1630  0.4561
25719SOL    HW178598   3.201   0.761  10.932 -0.2465  1.1849  2.2987
25719SOL    HW278599   3.326   0.768  11.017 -0.0848 -0.0315  2.1794
25720SOL     OW78600   2.895   1.877   6.460  0.0212  0.2292 -0.0734
25720SOL    HW178601   2.891   1.828   6.543 -0.4939  1.6705  0.7869
25720SOL    HW278602   2.891   1.809   6.392 -1.1139 -0.9104  1.0684
25721SOL     OW78603   6.933   1.258  10.440  0.1520  0.2993  0.6535
25721SOL    HW178604   6.843   1.233  10.420  0.2548  1.4236 -1.4533
25721SOL    HW278605   6.983   1.229  10.364  1.6494 -0.5474  1.9095
25722SOL     OW78606   7.165   7.916   4.260 -0.1647  0.2025 -0.1751
25722SOL    HW178607   7.165   7.975   4.184 -0.3641  1.3101  0.6579
25722SOL    HW278608   7.173   7.975   4.335 -2.9176 -0.6162  0.8468
25723SOL     OW78609   6.233   7.683   2.845  0.3919 -0.6738  0.2822
25723SOL    HW178610   6.210   7.714   2.932  1.6813  2.5301 -0.3857
25723SOL    HW278611   6.161   7.624   2.821 -1.0032 -0.1089  2.7131
25724SOL     OW78612   5.499   3.476   6.252  0.1815 -0.0082 -0.1100
25724SOL    HW178613   5.477   3.513   6.338  0.8579 -2.7576  1.3754
25724SOL    HW278614   5.591   3.450   6.260  0.5765  0.6581 -2.0918
25725SOL     OW78615   2.068   4.959   4.168 -0.3451 -1.0839 -0.3156
25725SOL    HW178616   2.077   5.016   4.092 -0.6238  0.6095  0.8690
25725SOL    HW278617   2.018   5.011   4.232 -1.1511 -2.8895  0.5953
25726SOL     OW78618   1.040   4.675   1.668 -0.1953  0.8079  0.0438
25726SOL    HW178619   1.128   4.681   1.706  0.2022 -1.8859 -0.2754
25726SOL    HW278620   1.014   4.584   1.682 -2.5083  1.2558 -0.8710
25727SOL     OW78621   7.470   3.180  11.873  0.1440 -1.0896 -0.6696
25727SOL    HW178622   7.503   3.244  11.810 -0.7048  0.0097 -0.0382
25727SOL    HW278623   7.472   3.097  11.826  1.1452 -0.5836 -1.5580
25728SOL     OW78624   5.168   2.094   8.526  0.1936  0.4406  0.4189
25728SOL    HW178625   5.142   2.070   8.616 -2.0159  0.0740 -0.2493
25728SOL    HW278626   5.128   2.179   8.512 -1.0138 -0.2819 -0.7770
25729SOL     OW78627   3.729   5.949   5.307  0.0903 -0.0372 -0.0129
25729SOL    HW178628   3.645   5.989   5.331  0.4701  0.0610  1.2331
25729SOL    HW278629   3.708   5.892   5.233 -1.2982 -0.9071  1.0064
25730SOL     OW78630   7.939   5.455   8.811  0.1114 -0.5434  0.1817
25730SOL    HW178631   7.879   5.391   8.849  0.7738 -1.9661 -1.0987
25730SOL    HW278632   8.012   5.403   8.777  0.8011  0.9086 -0.6501
25731SOL     OW78633   2.208   2.974   3.210 -0.5865 -0.2052  0.1919
25731SOL    HW178634   2.211   2.879   3.223 -0.3694 -0.3983 -1.1506
25731SOL    HW278635   2.300   3.002   3.217 -0.4773 -0.2994 -0.7407
25732SOL     OW78636   0.521   3.851   9.893  0.7629  0.0409  0.1411
25732SOL    HW178637   0.452   3.837   9.957  1.4523  1.0982  1.1585
25732SOL    HW278638   0.482   3.826   9.809 -1.4655  2.1992  0.3974
25733SOL     OW78639   7.441   0.743   8.995 -0.4771  0.3629  0.1951
25733SOL    HW178640   7.523   0.707   9.029 -1.5581 -1.9590  0.4995
25733SOL    HW278641   7.412   0.805   9.062 -0.1215 -0.5220  1.1933
25734SOL     OW78642   7.079   1.366   0.455  0.5244  0.2000  0.2107
25734SOL    HW178643   7.009   1.426   0.483  0.4407  1.5449 -2.5457
25734SOL    HW278644   7.145   1.372   0.524 -0.3708  1.9899  0.9781
25735SOL     OW78645   0.037   3.472   7.358 -0.5801 -0.3821 -0.1490
25735SOL    HW178646  -0.037   3.422   7.393 -1.0646 -0.8541 -1.7636
25735SOL    HW278647   0.107   3.460   7.422 -1.1809 -1.8404  0.2727
25736SOL     OW78648   4.203   0.623   0.844  0.0921 -0.1475 -0.4507
25736SOL    HW178649   4.297   0.642   0.846  0.1239 -0.3088  1.3924
25736SOL    HW278650   4.163   0.709   0.829  0.4901  0.1701  0.2453
25737SOL     OW78651   2.335   5.274   2.430 -0.3317  0.2579 -0.6724
25737SOL    HW178652   2.297   5.283   2.343 -0.3381  2.1955 -0.5227
25737SOL    HW278653   2.351   5.181   2.440 -1.2973 -0.1286 -2.3298
25738SOL     OW78654   5.849   0.045  10.407 -0.1350  0.6046 -0.2555
25738SOL    HW178655   5.859  -0.024  10.341  0.6319  1.1096 -0.6800
25738SOL    HW278656   5.755   0.061  10.411 -0.6075 -1.9410  1.3915
25739SOL     OW78657   1.943   6.820   9.506  0.0379  0.7436 -0.1853
25739SOL    HW178658   1.877   6.751   9.499  1.0056 -0.6818  3.0342
25739SOL    HW278659   1.895   6.895   9.544 -0.0305  0.0696  1.1282
25740SOL     OW78660   1.319   7.835   4.944  0.6964 -0.0436 -0.2239
25740SOL    HW178661   1.338   7.909   5.001  1.8009  0.5184 -1.2914
25740SOL    HW278662   1.401   7.786   4.939 -0.0828 -1.5300  0.6863
25741SOL     OW78663   2.965   6.079  11.907  0.2406 -0.8726  0.6089
25741SOL    HW178664   3.003   6.167  11.905 -1.4521 -0.0845  0.9271
25741SOL    HW278665   3.040   6.020  11.906  1.4407  0.4940 -2.1672
25742SOL     OW78666   3.309   4.033  10.963  0.2984  0.2945  0.2248
25742SOL    HW178667   3.220   4.050  10.995  1.1885  4.3020  1.2437
25742SOL    HW278668   3.316   3.938  10.960 -3.1608 -0.2306  2.5821
25743SOL     OW78669   0.046   1.281   1.861 -0.0791  0.0512 -0.1018
25743SOL    HW178670   0.037   1.301   1.954 -0.5147 -0.4042 -0.0462
25743SOL    HW278671   0.088   1.195   1.859  2.2839  1.1196 -0.3395
25744SOL     OW78672   1.689   7.519   3.542  0.5750 -0.2061 -0.1733
25744SOL    HW178673   1.767   7.463   3.538  0.4702 -0.3243 -0.5831
25744SOL    HW278674   1.621   7.462   3.578  0.3543 -0.4842 -0.9961
25745SOL     OW78675   6.100   3.730   5.368  0.1516 -0.1102 -0.3855
25745SOL    HW178676   6.007   3.734   5.393  0.5864 -0.0413  1.3590
25745SOL    HW278677   6.112   3.641   5.335 -0.0921 -0.8450  1.3865
25746SOL     OW78678   2.650   3.518  10.226  0.1576  0.3871  0.0131
25746SOL    HW178679   2.718   3.532  10.160 -0.3285 -0.3459 -0.6658
25746SOL    HW278680   2.666   3.586  10.292  0.9192  0.8605 -0.6380
25747SOL     OW78681   5.528   2.622   7.106  0.1269  0.3339 -0.2741
25747SOL    HW178682   5.576   2.539   7.107 -0.7978 -0.2108  0.0838
25747SOL    HW278683   5.529   2.651   7.197 -0.7191  0.0204 -0.1610
25748SOL     OW78684   4.070   5.646   3.889 -0.1413  0.2059  0.1291
25748SOL    HW178685   4.004   5.592   3.845 -0.2059  0.3703  0.0219
25748SOL    HW278686   4.036   5.659   3.977  0.5308 -1.0804  0.6033
25749SOL     OW78687   3.219   7.494   7.507  0.0042  0.4603 -0.9613
25749SOL    HW178688   3.198   7.415   7.457  1.3354 -0.1595 -0.6018
25749SOL    HW278689   3.315   7.500   7.502  0.2428  0.1822  1.7657
25750SOL     OW78690   0.737   3.235   0.270 -0.0213 -0.3148 -0.0307
25750SOL    HW178691   0.652   3.279   0.268  0.4082  1.0589  3.8892
25750SOL    HW278692   0.801   3.305   0.283  1.0404 -1.6342  2.7787
25751SOL     OW78693   0.246   4.652   5.425 -0.2663  0.2769  0.2004
25751SOL    HW178694   0.242   4.575   5.368  0.9531  0.5847 -0.3328
25751SOL    HW278695   0.232   4.726   5.367 -0.3076  0.5288  0.5274
25752SOL     OW78696   1.354   4.661  10.352 -0.1832  0.1354 -0.3368
25752SOL    HW178697   1.401   4.621  10.425  0.0762 -1.3497 -1.2848
25752SOL    HW278698   1.386   4.615  10.274 -0.3219  1.7807 -1.4344
25753SOL     OW78699   6.108   7.246  10.064 -0.0946  0.3861  0.0497
25753SOL    HW178700   6.203   7.239  10.059 -0.2246 -0.8327 -1.6882
25753SOL    HW278701   6.078   7.230   9.974 -1.9054  1.5077  0.4001
25754SOL     OW78702   2.271   6.177   4.245  0.2343 -0.5266 -0.1264
25754SOL    HW178703   2.199   6.190   4.184  1.4630  0.0918 -1.4834
25754SOL    HW278704   2.240   6.218   4.327 -0.9117 -0.2077 -0.6970
25755SOL     OW78705   5.667   0.545   7.210  0.2921  0.8844  0.0903
25755SOL    HW178706   5.582   0.521   7.245 -0.3509  1.2091 -1.2000
25755SOL    HW278707   5.650   0.572   7.120  1.8463  0.3849 -0.3884
25756SOL     OW78708   4.014   2.692   9.083  0.2497  0.1843  0.3476
25756SOL    HW178709   3.950   2.751   9.043  0.0133  0.1601  0.6827
25756SOL    HW278710   4.098   2.735   9.068  0.0633  0.7054  0.7510
25757SOL     OW78711   1.020   4.691   3.481  0.3855  0.4770 -0.3283
25757SOL    HW178712   0.990   4.635   3.409  0.5337  0.0382 -0.0478
25757SOL    HW278713   1.112   4.666   3.494  0.4558  0.7945 -0.2097
25758SOL     OW78714   0.341   0.068   2.001 -0.0909  0.1455  0.2344
25758SOL    HW178715   0.362   0.118   1.922 -0.0749 -0.2141  0.0087
25758SOL    HW278716   0.328   0.135   2.068  0.0031  0.4513 -0.0449
25759SOL     OW78717   1.920   2.477   9.698 -0.4781 -0.1441 -0.1833
25759SOL    HW178718   1.910   2.473   9.603  2.3769 -0.0053 -0.5730
25759SOL    HW278719   1.916   2.385   9.726 -0.4031 -0.2654 -0.5619
25760SOL     OW78720   3.122   2.912   5.283  0.0197 -0.0753  0.4954
25760SOL    HW178721   3.059   2.840   5.282  0.1897 -0.2306 -0.9097
25760SOL    HW278722   3.094   2.970   5.213 -1.1280  2.1951  2.6577
25761SOL     OW78723   0.235   3.964   1.778  0.0685 -0.0549 -0.7877
25761SOL    HW178724   0.270   4.052   1.773 -0.7092  0.3600  0.7058
25761SOL    HW278725   0.181   3.955   1.699 -0.4627  1.0706 -0.5560
25762SOL     OW78726   6.382   2.403   2.207  0.3930  0.2045 -0.1958
25762SOL    HW178727   6.320   2.338   2.173  0.5415 -0.2493  0.3918
25762SOL    HW278728   6.410   2.451   2.130 -0.1360 -0.0674 -0.5688
25763SOL     OW78729   1.738   6.459   0.539  0.4473  0.2203 -0.0949
25763SOL    HW178730   1.731   6.552   0.558 -2.0256  0.3465 -1.2709
25763SOL    HW278731   1.737   6.417   0.625 -1.1621  1.1770  0.3964
25764SOL     OW78732   1.002   4.022   6.652  0.0800  0.0838  0.4154
25764SOL    HW178733   0.976   4.025   6.560  1.4862  0.5149 -0.0123
25764SOL    HW278734   1.098   4.019   6.648  0.3486  2.9393  1.8442
25765SOL     OW78735   1.832   2.952   4.359  0.1499 -0.4304 -0.3623
25765SOL    HW178736   1.920   2.980   4.385  0.4138  0.0649 -1.6636
25765SOL    HW278737   1.773   3.014   4.402  0.3527 -1.3503  1.2976
25766SOL     OW78738   3.783   5.458   9.681  0.0696  0.3480  0.1048
25766SOL    HW178739   3.688   5.449   9.673  0.1620 -1.0597  0.2870
25766SOL    HW278740   3.798   5.552   9.692 -1.3907  0.4910  1.1806
25767SOL     OW78741   5.364   6.495   7.394 -0.6021 -0.3907 -0.1050
25767SOL    HW178742   5.313   6.540   7.327  0.3222  0.3109 -0.3524
25767SOL    HW278743   5.453   6.527   7.383 -0.1746 -1.2787  0.5938
25768SOL     OW78744   5.089   5.017  11.901 -0.2242 -0.3174  0.0684
25768SOL    HW178745   5.050   4.949  11.956 -1.0487 -0.1984 -0.3552
25768SOL    HW278746   5.017   5.078  11.883  0.5505  0.7830  0.6015
25769SOL     OW78747   1.889   2.350   0.987  0.1872 -0.3536 -0.7058
25769SOL    HW178748   1.805   2.346   0.942 -1.0698 -1.5094  1.5522
25769SOL    HW278749   1.916   2.259   0.997 -0.9164 -0.4456  2.9876
25770SOL     OW78750   5.975   6.458   7.008  0.1784  0.1422 -0.0116
25770SOL    HW178751   6.063   6.429   6.982 -0.2511 -0.4551 -0.8402
25770SOL    HW278752   5.916   6.405   6.955 -0.7405 -0.7849  1.8428
25771SOL     OW78753   7.897   1.200   7.064  0.0848  0.8145 -0.2247
25771SOL    HW178754   7.836   1.236   6.999 -2.6018 -0.0807  1.6372
25771SOL    HW278755   7.902   1.107   7.044  1.4292  0.9788 -0.7555
25772SOL     OW78756   1.832   7.182   7.700  0.2507  0.1638  0.0523
25772SOL    HW178757   1.920   7.144   7.699  0.5556  0.8452 -1.3956
25772SOL    HW278758   1.834   7.243   7.774  0.7133 -0.4382  0.5493
25773SOL     OW78759   6.386   6.024   1.564  0.1813  0.1679  0.2822
25773SOL    HW178760   6.392   6.063   1.476 -1.0253  2.2910  1.0645
25773SOL    HW278761   6.351   5.937   1.549  2.7994 -0.6894 -1.5638
25774SOL     OW78762   2.014   4.729   7.924 -0.0530 -0.1109 -0.1354
25774SOL    HW178763   2.059   4.654   7.963 -0.7042  0.5032  1.9432
25774SOL    HW278764   2.079   4.800   7.927 -0.2481  0.0520  0.2412
25775SOL     OW78765   5.226   4.892   7.386 -0.0248 -0.0526  0.6632
25775SOL    HW178766   5.176   4.918   7.308  0.3584 -0.1540  0.3794
25775SOL    HW278767   5.238   4.798   7.375  0.4834  0.0215  0.5808
25776SOL     OW78768   1.786   5.058  10.474  0.3066 -0.3403  0.1535
25776SOL    HW178769   1.756   5.069  10.564  0.0178 -1.9664  0.2858
25776SOL    HW278770   1.713   5.088  10.420 -0.5673 -1.7584  0.4899
25777SOL     OW78771   2.885   2.997   1.023 -0.2503 -0.4402  0.2186
25777SOL    HW178772   2.828   3.041   1.087  0.9122  0.2032  0.8557
25777SOL    HW278773   2.966   2.981   1.071 -0.1139 -1.9751 -0.4560
25778SOL     OW78774   6.948   6.570   5.320 -0.0030  0.2709  0.0418
25778SOL    HW178775   6.931   6.574   5.226  2.8558 -1.8409 -0.7315
25778SOL    HW278776   7.015   6.638   5.335  2.5465 -1.9423 -0.4315
25779SOL     OW78777   1.000   5.732  11.482  0.1371 -0.4260 -0.0188
25779SOL    HW178778   0.955   5.772  11.557 -0.3188 -0.8919 -0.0363
25779SOL    HW278779   1.054   5.802  11.446 -1.4051  0.4842 -0.6552
25780SOL     OW78780   4.528   0.985   2.004 -0.5579  0.3601  0.5666
25780SOL    HW178781   4.490   0.988   1.916 -0.5817  0.3030  0.5748
25780SOL    HW278782   4.621   1.007   1.991 -0.4611 -0.0907  0.4692
25781SOL     OW78783   7.292   2.523   8.197  0.2211  0.1217  0.4636
25781SOL    HW178784   7.284   2.594   8.134  0.5663 -0.3276 -0.0981
25781SOL    HW278785   7.334   2.564   8.273  1.6732  0.2552 -0.3570
25782SOL     OW78786   4.472   2.624   9.595  0.3247  0.3447  0.5907
25782SOL    HW178787   4.510   2.540   9.620  2.1086  1.5183  2.0931
25782SOL    HW278788   4.540   2.667   9.543 -1.9144 -0.4965 -3.5001
25783SOL     OW78789   7.580   7.737   5.058  0.0046 -0.1180 -0.4255
25783SOL    HW178790   7.516   7.806   5.043 -0.3740 -0.3079  0.2454
25783SOL    HW278791   7.655   7.761   5.004 -0.0011  0.9833  0.0285
25784SOL     OW78792   1.595   4.932   0.710 -0.0734 -0.7730  0.0926
25784SOL    HW178793   1.676   4.950   0.661  0.1056 -0.8685  0.3538
25784SOL    HW278794   1.526   4.974   0.658  0.0823 -1.0931 -0.3789
25785SOL     OW78795   5.783   5.868   6.429  1.0412  0.0162  0.3193
25785SOL    HW178796   5.850   5.935   6.441  1.5513 -0.4829  0.3632
25785SOL    HW278797   5.700   5.912   6.444  1.4250  0.3797  1.5048
25786SOL     OW78798   4.506   1.823   1.312  0.4192  0.6284 -0.9532
25786SOL    HW178799   4.465   1.736   1.309  1.0130  0.2667  0.6584
25786SOL    HW278800   4.464   1.866   1.386 -0.9961  2.3536 -2.6436
25787SOL     OW78801   2.453   7.612   1.540 -0.0735  0.0656 -0.0593
25787SOL    HW178802   2.392   7.568   1.599 -0.6938  1.5026  0.4242
25787SOL    HW278803   2.442   7.568   1.456 -1.6741  0.1924  0.0587
25788SOL     OW78804   0.390   6.531   3.345 -0.0624 -0.1312  0.0560
25788SOL    HW178805   0.409   6.625   3.341  0.3747 -0.1248  1.6069
25788SOL    HW278806   0.320   6.524   3.410  0.3236 -0.9289  0.3936
25789SOL     OW78807   1.428   2.443   2.982 -0.2388 -0.5609 -0.3299
25789SOL    HW178808   1.436   2.537   2.968  1.6660 -0.1466  2.6872
25789SOL    HW278809   1.356   2.435   3.045 -0.1382 -1.0919 -0.2830
25790SOL     OW78810   5.355   1.013   5.294 -0.1849  0.1093 -0.0586
25790SOL    HW178811   5.336   0.986   5.383  1.5573 -0.2576  0.2488
25790SOL    HW278812   5.451   1.007   5.287 -0.3216 -0.4721 -2.1326
25791SOL     OW78813   2.586   5.532   6.037 -0.3755 -0.5984  0.0006
25791SOL    HW178814   2.669   5.503   5.999 -0.8814 -0.7858 -1.0077
25791SOL    HW278815   2.584   5.626   6.020 -0.2004 -0.5219  0.3818
25792SOL     OW78816   2.288   4.647   5.997  0.5526  0.3764 -0.1591
25792SOL    HW178817   2.378   4.677   5.989  0.5859  1.5652  3.3720
25792SOL    HW278818   2.293   4.569   6.053 -0.6108  0.3036 -0.1209
25793SOL     OW78819   2.813   7.921   3.649 -0.1450  0.0778  0.3833
25793SOL    HW178820   2.739   7.867   3.675 -0.5244 -0.5738 -1.8838
25793SOL    HW278821   2.776   7.985   3.588  1.0255  0.1762 -0.2620
25794SOL     OW78822   1.823   2.916   7.749  0.0280 -0.8605 -0.2800
25794SOL    HW178823   1.842   2.880   7.836  1.9314  1.2973  0.2955
25794SOL    HW278824   1.889   2.877   7.692  1.2366  0.5304  0.0826
25795SOL     OW78825   6.907   2.250   5.698  0.3993 -0.4789  0.2982
25795SOL    HW178826   6.817   2.237   5.730  1.0808 -2.0069  1.6875
25795SOL    HW278827   6.928   2.169   5.652  1.0983 -0.1484  0.0191
25796SOL     OW78828   3.281   4.201   9.567  0.1710 -0.0622 -0.5133
25796SOL    HW178829   3.371   4.224   9.545  0.1536  1.0621  0.4927
25796SOL    HW278830   3.285   4.107   9.587  1.2756  0.1132  0.2028
25797SOL     OW78831   3.623   0.767   3.224  0.2158  0.2077  0.5017
25797SOL    HW178832   3.551   0.706   3.241 -2.7233  3.2024  0.0190
25797SOL    HW278833   3.620   0.780   3.129  3.3348 -1.5710  0.0301
25798SOL     OW78834   2.740   2.275   9.542 -0.3829  0.4966  0.3312
25798SOL    HW178835   2.703   2.250   9.457  0.8346 -2.2480  0.5122
25798SOL    HW278836   2.667   2.317   9.588 -1.0091  2.3139 -2.0920
25799SOL     OW78837   4.636   4.460  11.227  0.3465  0.0259 -0.3463
25799SOL    HW178838   4.562   4.412  11.264 -0.8856  0.1962 -2.4064
25799SOL    HW278839   4.711   4.402  11.238  0.2238  0.3131  2.8207
25800SOL     OW78840   2.534   3.949   4.227  0.1300  0.4669 -0.4727
25800SOL    HW178841   2.457   3.892   4.225  1.5700 -1.6892  1.0415
25800SOL    HW278842   2.606   3.893   4.195  1.1226  2.4067 -1.8359
25801SOL     OW78843   3.042   7.287  10.443 -0.0863  0.0237 -0.1100
25801SOL    HW178844   3.019   7.198  10.416 -0.4571  0.0569  0.0883
25801SOL    HW278845   3.007   7.294  10.532  0.6586  0.0917  0.1795
25802SOL     OW78846   0.320   5.264   5.003 -0.3364 -0.8606  0.0543
25802SOL    HW178847   0.388   5.321   5.040 -0.2083 -1.0894  0.1772
25802SOL    HW278848   0.238   5.312   5.018 -0.1177 -0.1228 -0.9985
25803SOL     OW78849   0.939   7.561   0.666 -0.2052 -0.6475  0.1065
25803SOL    HW178850   0.966   7.511   0.742  0.7196 -0.6448 -0.2080
25803SOL    HW278851   1.003   7.632   0.660 -0.6624 -0.2655 -0.2827
25804SOL     OW78852   4.735   4.397   3.002  0.2152 -0.3378 -0.8549
25804SOL    HW178853   4.704   4.475   3.047  0.9301  0.9534 -2.4976
25804SOL    HW278854   4.725   4.326   3.066 -1.0949  0.9550  0.4388
25805SOL     OW78855   3.766   5.191   4.839  0.5636  0.2155  0.1043
25805SOL    HW178856   3.793   5.200   4.748 -0.5601  0.5504 -0.2193
25805SOL    HW278857   3.755   5.097   4.852  1.0157  0.1460 -0.0203
25806SOL     OW78858   1.107   3.584   7.408 -0.1539 -0.1349  0.1566
25806SOL    HW178859   1.032   3.637   7.438 -1.3287 -1.5036 -0.2484
25806SOL    HW278860   1.153   3.560   7.488 -0.3944  0.3759  0.4537
25807SOL     OW78861   0.372   3.569   3.243  0.0505 -0.3812 -0.3330
25807SOL    HW178862   0.364   3.491   3.298 -1.8777 -0.0610 -0.0985
25807SOL    HW278863   0.456   3.608   3.269 -0.7727 -0.2193  2.4526
25808SOL     OW78864   5.275   1.011   4.645  0.2691  0.0243  0.3348
25808SOL    HW178865   5.368   1.000   4.623  0.3394 -0.0556  0.6638
25808SOL    HW278866   5.256   1.102   4.623 -0.0626 -0.4418 -1.4875
25809SOL     OW78867   2.680   3.149   5.355 -0.5017  0.2178 -0.5135
25809SOL    HW178868   2.661   3.121   5.266  1.3816 -0.7018 -0.6761
25809SOL    HW278869   2.680   3.068   5.406  1.6106  0.2832 -0.3337
25810SOL     OW78870   3.871   5.081   2.991 -0.3574  0.0022 -0.4667
25810SOL    HW178871   3.827   5.164   3.008 -2.5240 -1.2355  0.4460
25810SOL    HW278872   3.836   5.053   2.906 -1.7018 -1.1370  0.4077
25811SOL     OW78873   2.750   7.007   6.055  0.1146 -0.2557  0.5765
25811SOL    HW178874   2.803   7.082   6.080  0.9753 -0.2995 -1.0114
25811SOL    HW278875   2.666   7.045   6.028  0.9094  0.3127 -1.2902
25812SOL     OW78876   7.976   5.740   2.819  0.5273 -0.5609 -0.2866
25812SOL    HW178877   7.907   5.769   2.759  1.4302 -0.5443 -1.3577
25812SOL    HW278878   8.041   5.810   2.817  0.0420  0.0007  1.6694
25813SOL     OW78879   5.577   2.917   2.073  0.1894  0.2982 -0.2374
25813SOL    HW178880   5.565   3.012   2.077 -1.3378  0.1082  0.0470
25813SOL    HW278881   5.659   2.906   2.024  0.2423  1.7450 -0.5203
25814SOL     OW78882   6.555   2.359   1.544  0.2506 -0.4047 -1.0030
25814SOL    HW178883   6.624   2.293   1.534  2.1284  1.2000  0.5250
25814SOL    HW278884   6.597   2.431   1.589 -2.3211  0.9327 -0.5406
25815SOL     OW78885   2.865   3.687   5.518 -0.1326 -0.2321  0.1904
25815SOL    HW178886   2.924   3.718   5.587  0.6934  0.9522 -0.9878
25815SOL    HW278887   2.909   3.609   5.483  1.0447  0.8945 -0.9766
25816SOL     OW78888   7.746   3.472   4.867  0.4739  0.0311  0.5072
25816SOL    HW178889   7.786   3.469   4.780 -0.4821  2.6909 -0.1301
25816SOL    HW278890   7.818   3.452   4.927  1.6361  0.1084 -0.8118
25817SOL     OW78891   7.782   4.367   1.124 -0.1667 -0.1530 -0.2663
25817SOL    HW178892   7.695   4.350   1.162 -0.9709  1.7512 -1.1242
25817SOL    HW278893   7.764   4.404   1.038  1.5786 -1.6488 -1.3473
25818SOL     OW78894   4.535   6.001   8.402 -0.5324 -0.5725 -0.8787
25818SOL    HW178895   4.628   5.986   8.416 -0.5839 -0.1482 -0.0307
25818SOL    HW278896   4.525   6.003   8.307  1.0727  3.4730 -1.1770
25819SOL     OW78897   6.659   5.053  11.776  0.0323 -0.2805  0.9406
25819SOL    HW178898   6.662   5.140  11.815  0.0089 -0.3617  1.1207
25819SOL    HW278899   6.665   4.993  11.850  2.1691 -0.4580  0.6865
25820SOL     OW78900   5.468   2.223  11.672 -0.1658  0.2221 -0.4133
25820SOL    HW178901   5.534   2.154  11.662  0.5148  0.9030 -0.7457
25820SOL    HW278902   5.494   2.268  11.752 -0.4767  0.2315 -0.3191
25821SOL     OW78903   7.980   4.554   5.243  0.4021  0.6127 -0.1451
25821SOL    HW178904   8.024   4.632   5.210 -0.8814  1.3115 -0.2336
25821SOL    HW278905   7.980   4.493   5.169  1.3981  0.5078 -0.0770
25822SOL     OW78906   1.895   5.626   1.330 -0.3921 -0.7514 -0.0107
25822SOL    HW178907   1.813   5.668   1.304 -0.5229 -1.1974 -0.3288
25822SOL    HW278908   1.897   5.634   1.425 -1.2601 -1.5515  0.0855
25823SOL     OW78909   0.905   6.471   5.019 -0.2722  0.1496  0.5069
25823SOL    HW178910   0.828   6.489   5.074  0.8507  0.2884  2.0971
25823SOL    HW278911   0.889   6.383   4.985 -1.8757  0.7863 -0.5489
25824SOL     OW78912   0.477   7.147   9.807 -0.2678 -0.4623  0.3788
25824SOL    HW178913   0.515   7.233   9.826  1.0057 -0.9238 -0.0195
25824SOL    HW278914   0.552   7.088   9.800 -1.1561 -1.7888  1.4358
25825SOL     OW78915   6.482   1.896   4.223 -0.8242 -0.0487 -0.2615
25825SOL    HW178916   6.521   1.919   4.307  0.4347 -0.9603 -0.5654
25825SOL    HW278917   6.525   1.955   4.160  1.2295 -2.0074 -0.8076
25826SOL     OW78918   7.939   7.516   3.858  0.0294  0.6154  0.1390
25826SOL    HW178919   8.013   7.456   3.849 -0.0195  0.3443  1.3686
25826SOL    HW278920   7.862   7.461   3.845 -0.1387 -0.2274  3.6068
25827SOL     OW78921   6.386   7.302   5.704 -0.4396  0.5964 -0.1775
25827SOL    HW178922   6.354   7.341   5.785 -3.7285 -0.0993 -1.0004
25827SOL    HW278923   6.385   7.374   5.641 -1.1136  0.4315 -0.3643
25828SOL     OW78924   2.605   2.103   7.390  0.0719 -0.2271 -0.3649
25828SOL    HW178925   2.519   2.082   7.354  0.0788 -0.0397 -0.4924
25828SOL    HW278926   2.599   2.194   7.417 -0.5507 -0.8939  1.9368
25829SOL     OW78927   4.860   1.631   4.926  0.4479 -0.3552  0.1170
25829SOL    HW178928   4.905   1.562   4.975  3.2548 -0.1078 -1.8421
25829SOL    HW278929   4.873   1.608   4.834 -0.0564  1.8664 -0.5736
25830SOL     OW78930   5.929   3.760   0.701  0.2460 -0.3913 -0.5967
25830SOL    HW178931   5.958   3.696   0.636 -0.5131  0.1913 -1.5319
25830SOL    HW278932   5.881   3.708   0.766  0.7588 -0.9357 -0.6418
25831SOL     OW78933   1.219   1.009   2.041 -0.5413 -0.3815  0.2691
25831SOL    HW178934   1.219   1.007   2.137  1.0814 -0.2822  0.2966
25831SOL    HW278935   1.311   1.012   2.017 -0.8929  2.2243 -1.2476
25832SOL     OW78936   1.951   0.517   2.831 -0.0267  0.0544  0.5453
25832SOL    HW178937   1.882   0.579   2.807 -0.1421  0.9653  2.8843
25832SOL    HW278938   1.924   0.434   2.791 -0.8785  1.0573 -1.0612
25833SOL     OW78939   5.941   4.835   7.133 -0.7280 -0.0697 -0.1846
25833SOL    HW178940   5.882   4.860   7.062 -1.5192 -1.0413  0.1031
25833SOL    HW278941   5.895   4.859   7.213  0.9205  2.6891  0.0543
25834SOL     OW78942   2.288   6.498   5.380  0.1611  0.1362 -0.3538
25834SOL    HW178943   2.364   6.451   5.414  0.3689  0.7408  0.0267
25834SOL    HW278944   2.281   6.576   5.436  0.4029  1.0569 -1.5741
25835SOL     OW78945   2.149   7.854   0.388  0.3774 -0.1936 -0.4363
25835SOL    HW178946   2.139   7.886   0.298  3.4252 -2.0014 -1.5824
25835SOL    HW278947   2.237   7.883   0.414 -0.0429 -0.5666  1.5981
25836SOL     OW78948   0.970   1.677   6.199 -0.5510  0.6707  0.3371
25836SOL    HW178949   1.032   1.610   6.228 -1.8920 -0.9266 -0.2904
25836SOL    HW278950   1.020   1.732   6.139  0.2846 -0.5379 -0.1081
25837SOL     OW78951   3.940   2.154   1.294 -0.1649 -0.0961  0.0172
25837SOL    HW178952   3.889   2.093   1.241 -2.0053  1.0400  0.3734
25837SOL    HW278953   4.029   2.149   1.259 -0.7615 -1.3025 -1.4210
25838SOL     OW78954   2.314   7.319   2.835 -0.1952 -0.9242 -0.1893
25838SOL    HW178955   2.367   7.241   2.849  0.1660 -0.3779  1.6707
25838SOL    HW278956   2.335   7.347   2.746  2.8408 -0.6267  0.5301
25839SOL     OW78957   0.064   4.382  11.256  0.1461 -0.2698 -0.4490
25839SOL    HW178958   0.147   4.395  11.301  0.0783  1.0823 -0.6704
25839SOL    HW278959   0.060   4.453  11.192 -1.3740 -0.0700 -0.1577
25840SOL     OW78960   2.941   1.803   8.356  0.4523 -0.0746  0.0760
25840SOL    HW178961   2.921   1.845   8.272 -0.1718 -0.7572 -0.1273
25840SOL    HW278962   2.963   1.713   8.332  2.2649  0.2376  0.4507
25841SOL     OW78963   5.616   4.358  11.069 -0.5420  0.5930  0.3532
25841SOL    HW178964   5.663   4.416  11.011  0.1141 -1.0214 -0.7963
25841SOL    HW278965   5.525   4.362  11.039  0.2321 -2.9500 -3.4645
25842SOL     OW78966   4.627   6.310  11.025  0.5410 -0.0020 -0.0248
25842SOL    HW178967   4.695   6.340  10.964  1.1863 -0.4167  0.4725
25842SOL    HW278968   4.610   6.220  10.998  0.0690  0.1476 -0.2395
25843SOL     OW78969   4.927   5.150   8.737  0.1385 -0.0533  0.7953
25843SOL    HW178970   4.847   5.129   8.786  1.5074 -3.1153  1.9489
25843SOL    HW278971   4.916   5.104   8.654 -0.3448  1.6572 -0.1261
25844SOL     OW78972   3.062   6.284   0.029 -0.7011  0.0011 -0.3788
25844SOL    HW178973   2.990   6.248  -0.022 -0.0342 -0.1950 -1.2051
25844SOL    HW278974   3.022   6.311   0.112 -1.3112 -2.3370  0.1749
25845SOL     OW78975   7.627   5.221   9.392  0.2321  0.0759  0.6389
25845SOL    HW178976   7.532   5.226   9.393  0.2794  2.2392  2.4538
25845SOL    HW278977   7.651   5.188   9.479  1.1618 -2.4723 -0.4812
25846SOL     OW78978   2.302   5.085   4.367  0.6454 -0.2193 -0.2989
25846SOL    HW178979   2.298   5.164   4.315  1.5208  0.4477  0.6003
25846SOL    HW278980   2.226   5.034   4.340 -0.7489  1.5540  0.1093
25847SOL     OW78981   5.637   4.308   4.243  0.4108  0.7523  0.1037
25847SOL    HW178982   5.629   4.336   4.334  0.2613 -2.2062  1.1060
25847SOL    HW278983   5.547   4.297   4.214  0.4630 -0.3457  0.3257
25848SOL     OW78984   7.721   1.235   6.850 -0.0515  0.3222 -0.2223
25848SOL    HW178985   7.652   1.188   6.802 -1.7738  0.4314  1.9847
25848SOL    HW278986   7.737   1.314   6.797 -0.5266 -0.4459 -1.5514
25849SOL     OW78987   4.079   7.765   3.341 -0.3790  0.1244  0.2626
25849SOL    HW178988   4.011   7.826   3.372 -0.3788 -0.3861  1.3201
25849SOL    HW278989   4.068   7.763   3.246 -0.4868  1.6393  0.2179
25850SOL     OW78990   4.316   5.467   7.692 -0.0718 -0.3286  0.1000
25850SOL    HW178991   4.254   5.498   7.758  1.5620  0.5836  1.2685
25850SOL    HW278992   4.263   5.458   7.612 -1.2333  2.9677  0.3477
25851SOL     OW78993   1.840   7.369   3.915  0.3269 -0.2908  0.0001
25851SOL    HW178994   1.765   7.409   3.960  0.5222  1.3944 -1.1066
25851SOL    HW278995   1.801   7.304   3.857 -0.3405  0.7280 -0.7314
25852SOL     OW78996   7.247   3.178  12.042  0.1054 -0.4029 -0.1093
25852SOL    HW178997   7.331   3.163  12.000 -0.7442 -0.7255 -1.7619
25852SOL    HW278998   7.255   3.266  12.081  0.3926  0.6537 -2.3975
25853SOL     OW78999   7.739   1.934   1.138  0.7982  0.6541 -0.4899
25853SOL    HW179000   7.819   1.889   1.168  1.5630  3.1728  1.6090
25853SOL    HW279001   7.669   1.895   1.190  1.3558  1.3280  0.8303
25854SOL     OW79002   2.284   5.325   4.771  0.0156 -0.1940  0.2133
25854SOL    HW179003   2.253   5.235   4.782 -0.0543 -0.0326  1.4749
25854SOL    HW279004   2.233   5.376   4.833 -0.0878  0.7681 -0.6300
25855SOL     OW79005   4.884   7.596   3.087  0.2717 -0.3069 -0.1414
25855SOL    HW179006   4.832   7.516   3.093  1.0048 -0.6874  1.8154
25855SOL    HW279007   4.821   7.667   3.099 -0.2061 -0.6429 -0.6445
25856SOL     OW79008   1.853   0.653  11.315 -0.3943  0.2677 -0.1485
25856SOL    HW179009   1.840   0.609  11.231  1.0855  1.0268 -0.8094
25856SOL    HW279010   1.865   0.745  11.293 -0.7748  0.6047  0.9707
25857SOL     OW79011   1.158   1.210  11.693  0.2116 -0.2682 -0.0297
25857SOL    HW179012   1.189   1.264  11.765  0.4909 -1.9983  1.2049
25857SOL    HW279013   1.219   1.228  11.621 -0.7173  2.3074 -0.2824
25858SOL     OW79014   6.782   3.023   4.052 -0.0910 -0.0145 -0.6325
25858SOL    HW179015   6.841   3.043   4.124 -0.4899 -0.4551 -0.1745
25858SOL    HW279016   6.837   3.029   3.973  0.8447 -1.4493 -0.1411
25859SOL     OW79017   1.199   5.464   6.399 -0.3058 -0.0603  0.2310
25859SOL    HW179018   1.117   5.426   6.367  0.3525 -0.2175 -1.4005
25859SOL    HW279019   1.261   5.450   6.327  1.3889 -0.7135  1.7311
25860SOL     OW79020   0.604   2.587   6.620  0.3398  0.6921  0.0582
25860SOL    HW179021   0.575   2.582   6.529 -1.4227  2.4007  0.4599
25860SOL    HW279022   0.524   2.580   6.672  1.3181 -0.2983  1.5041
25861NA      NA79023   3.460   0.583   5.360  0.2916 -0.1731  0.0497
25862NA      NA79024   4.462   4.870   5.866  0.1915  0.2838 -0.1530
25863NA      NA79025   2.032   3.232   3.631 -0.0549 -0.1818  0.1279
25864NA      NA79026   5.731   5.571   1.810  0.7310  0.3920  0.1516
25865NA      NA79027   5.774   2.526   4.201 -0.4216  0.2383  0.5358
25866NA      NA79028   3.627   4.326   4.326 -0.4591  0.0458 -0.2135
25867NA      NA79029   1.615   1.743   3.471  0.1961  0.2491 -0.0810
25868NA      NA79030   4.006   2.251   2.874  0.1198  0.0340 -0.2132
25869NA      NA79031   4.061   4.032   8.832  0.7646 -0.0327  0.2893
25870NA      NA79032   3.269   3.632   7.324  0.2036 -0.3403 -0.3392
25871NA      NA79033   4.813   1.805   5.598 -0.5280  0.0788  0.0025
25872NA      NA79034   4.250   3.562   2.560  0.3359 -0.0537  0.0946
25873NA      NA79035   7.344   2.352   8.697  0.2936  0.2362  0.0711
25874NA      NA79036   4.008   4.130   7.318 -0.0217 -0.2342  0.2545
25875NA      NA79037   7.833   1.168   2.553  0.6336 -0.1449 -0.4156
25876NA      NA79038   7.226   5.045   6.341 -0.1724 -0.4459  0.2513
25877NA      NA79039   4.573   5.277   4.896  0.1235  0.7183  0.1024
25878NA      NA79040   2.153   5.913  10.908  0.4698  0.1724 -0.4291
25879NA      NA79041   6.105   1.336   3.020  0.3507  0.4229 -0.3701
25880NA      NA79042   0.864   0.345  11.314 -0.0030 -0.0026 -0.1143
25881NA      NA79043   2.544   2.532   9.990 -0.3220 -0.1854 -0.1055
25882NA      NA79044   3.844   3.199   4.831 -0.4100  0.6429 -0.0594
25883NA      NA79045   3.321   3.347   0.279  0.1285 -0.0743 -0.0498
25884NA      NA79046   7.896   7.166   7.329 -0.1171 -0.0414 -0.6799
25885NA      NA79047   3.487   4.434   6.839 -0.2023 -0.2155  0.4862
25886NA      NA79048   7.175   2.799  10.223  0.3831 -0.0292 -0.0690
25887NA      NA79049   0.802   4.299   6.087  0.4048  0.2593  0.6541
25888NA      NA79050   5.413   5.676   6.558  0.1632 -0.4369  0.2587
25889NA      NA79051   3.433   0.670   6.429  0.1707 -0.2885  0.2078
25890NA      NA79052   2.695   4.360   4.731 -0.1426  0.6563  0.2905
25891NA      NA79053   5.235   1.406   9.213  0.1300  0.1020  0.4881
25892NA      NA79054   2.871   3.597   3.051 -0.4303  0.2254  0.1078
25893NA      NA79055   3.248   6.401  12.413  0.1987 -0.4888  0.1144
25894NA      NA79056   2.931   3.781   0.101  0.0539  0.5957 -0.0714
25895NA      NA79057   4.141   6.546   5.867  0.5505  0.1010  0.3337
25896NA      NA79058   2.516   2.095   1.197 -0.1611  0.2964 -0.3939
25897NA      NA79059   6.356   6.248  11.880  0.1729  0.1102 -0.0962
25898NA      NA79060   3.355   3.634   4.809  0.0012  0.2141  0.1598
25899NA      NA79061   4.088   5.018   6.558 -0.0069 -0.1982  0.2012
25900NA      NA79062   4.143   0.716   5.201  0.2464 -0.0874  0.0216
25901NA      NA79063   4.492   0.155  10.243 -0.3096 -0.0633 -0.0346
25902NA      NA79064   7.121   0.197  10.405 -0.0530 -0.1816 -0.4961
25903NA      NA79065   5.569   1.933   8.325 -0.0933 -0.0502 -0.0462
25904NA      NA79066   4.677   4.490   8.947 -0.1581  0.0060 -0.0180
25905NA      NA79067   4.031   4.443   3.828  0.3308 -0.1896  0.0984
25906NA      NA79068   5.332   6.490   8.082 -0.3684  0.6950  0.6235
25907NA      NA79069   6.388   2.495  10.917 -0.0230 -0.4843  0.2710
25908NA      NA79070   4.784   7.654   4.948  0.0362 -0.0624  0.2160
25909NA      NA79071   1.508   6.092   5.497 -0.1721 -0.1252 -0.7376
25910NA      NA79072   3.996   3.158   7.477 -0.2757  0.4501  0.4356
25911NA      NA79073   7.655   3.068   2.756  0.2562 -0.6213 -0.1216
25912NA      NA79074   3.111   4.895   3.301 -0.3601  0.2337 -0.3605
25913NA      NA79075   2.477   5.817   2.587 -0.3788  0.0064 -0.0790
25914NA      NA79076   5.620   0.092   0.094 -0.7792  0.0228 -0.3115
25915NA      NA79077   4.757   5.372   5.678  0.2143 -0.5525  0.2344
25916NA      NA79078   0.358   6.522   4.658 -0.0938 -0.0435  0.3242
25917NA      NA79079   3.912   5.184   6.023 -0.2386 -0.0991 -0.4385
25918NA      NA79080   3.491   1.586   4.572  0.6002 -0.2135 -0.8861
25919NA      NA79081   4.775   3.279   3.423  0.0498  0.0035  0.1725
25920NA      NA79082   3.700   7.649   9.391 -0.7454 -0.1708 -0.2281
25921NA      NA79083   4.444   6.486   4.085  0.0647 -0.4143  0.1929
25922NA      NA79084   7.548   0.062  12.106  0.0435  0.3364  0.0513
25923NA      NA79085   4.341   3.758   5.125 -0.2294 -0.5003 -0.2925
25924NA      NA79086   1.643   7.084   6.706 -0.4193  0.2505  0.4199
25925NA      NA79087   1.959   4.204   0.127  0.2979 -0.5813  0.1078
25926NA      NA79088   3.513   3.969   9.705 -0.2824  0.2102 -0.2822
25927NA      NA79089   2.108   2.449   6.400 -0.1820 -0.7318  0.6545
25928NA      NA79090   5.500   5.856   9.780  0.4170  0.1672 -0.3097
25929NA      NA79091   4.287   3.070   5.180 -0.1791 -0.4776 -0.4719
25930NA      NA79092   3.907   4.149   2.380  0.3062  0.4586 -0.1249
25931NA      NA79093   1.489   3.521   4.459  0.0391  0.1751 -0.2916
25932NA      NA79094   7.473   2.779   4.898 -0.1210 -0.1322  0.1827
25933NA      NA79095   5.089   3.820   8.733  0.2115 -0.5251 -0.0207
25934NA      NA79096   7.008   7.742   0.864 -0.2983  0.0821  0.4045
25935NA      NA79097   7.672   6.200   0.930  0.1261 -0.1214 -0.1974
25936NA      NA79098   3.734   3.945   6.868 -0.0978  0.0557  0.2504
25937NA      NA79099   3.044   7.961   9.739  0.0249 -0.6125  0.1833
25938NA      NA79100   0.801   6.261   8.881 -0.1131 -0.5328  0.1991
25939NA      NA79101   5.014   6.624  12.330  0.2626 -0.0903 -0.0244
25940NA      NA79102   3.238   5.476   7.340 -0.0479 -0.1522  0.4656
25941NA      NA79103   6.902   0.729   2.794 -0.5736 -0.0067 -0.1564
25942NA      NA79104   5.210   2.856   1.830 -0.2586 -0.2826  0.1429
25943NA      NA79105   5.676   1.261   8.451 -0.4336  0.0807  0.0809
25944NA      NA79106   3.942   1.942   5.666  0.4566 -0.0431  0.2074
25945NA      NA79107   3.566   3.970   6.542 -0.4960  0.3253  0.8801
25946NA      NA79108   6.467   4.196   5.842 -0.1535 -0.6683  0.1921
25947NA      NA79109   3.741   4.960   9.147 -0.5290 -0.3056  0.3000
25948NA      NA79110   4.684   4.423  11.782  0.6125 -0.2342  0.3276
25949NA      NA79111   4.842   1.621   8.238 -0.1017  0.3959  0.0108
25950NA      NA79112   2.090   4.020   1.580 -0.2641  0.4418  0.0944
25951NA      NA79113   5.099   3.216   8.134  0.3809  0.1530 -0.0813
25952NA      NA79114   6.081   6.950   2.510 -0.1015  0.1574  0.0196
25953NA      NA79115   1.443   1.524  10.188 -0.3662  0.1290  0.0984
25954NA      NA79116   4.024   3.810   8.019  0.0120 -0.1734 -0.1114
25955NA      NA79117   4.351   3.293   2.393  0.0510 -0.2190  0.0077
25956NA      NA79118   5.134   4.495   6.028  0.5700 -0.2078  0.1165
25957CL      CL79119   5.018   5.587   5.414  0.1323  0.3700 -0.1508
25958CL      CL79120   4.902   7.813  11.175  0.1000 -0.0322  0.1397
25959CL      CL79121   6.931   3.461   1.676  0.1067  0.1238 -0.1667
25960CL      CL79122   2.522   4.197   0.867 -0.3905  0.1018 -0.1927
25961CL      CL79123   7.725   5.129   2.136 -0.0550  0.1606 -0.1423
25962CL      CL79124   5.979   0.333   7.775 -0.2430  0.1307  0.1576
25963CL      CL79125   3.095   6.744   5.476  0.1011  0.0962 -0.0107
25964CL      CL79126   2.308   1.844   3.124  0.2814 -0.2112 -0.5644
25965CL      CL79127   2.552   0.747   5.642  0.2465  0.1368  0.0341
25966CL      CL79128   1.039   4.324   3.532  0.5182  0.0610  0.4230
25967CL      CL79129   2.810   0.792  10.358 -0.0418 -0.1011  0.4428
25968CL      CL79130   0.673   5.102  12.137 -0.1519 -0.1747  0.1420
25969CL      CL79131   1.664   4.561   1.811 -0.2450 -0.0501 -0.1743
25970CL      CL79132   6.674   6.933   9.210  0.2534  0.5152 -0.0595
25971CL      CL79133   0.189   2.857   2.906 -0.0261  0.4143  0.4070
25972CL      CL79134   6.694   1.540   3.775 -0.4143 -0.5199  0.1611
25973CL      CL79135   6.417   7.296  12.460  0.1647  0.3363 -0.0657
25974CL      CL79136   0.139   7.269   2.944  0.3713 -0.1022 -0.1058
25975CL      CL79137   7.788   1.651   2.715  0.1095  0.1950  0.3196
25976CL      CL79138   6.045   3.798   9.741 -0.4851 -0.2283 -0.1491
25977CL      CL79139   0.907   6.835   2.862 -0.0516  0.2919  0.0111
25978CL      CL79140   6.693   1.923  10.391  0.2157  0.2065 -0.4333
25979CL      CL79141   6.369   3.038  10.617 -0.3571  0.4165 -0.5066
25980CL      CL79142   1.867   5.044   0.550  0.2327  0.2851  0.3507
25981CL      CL79143   6.801   7.783  10.935 -0.3463  0.1244  0.2026
25982CL      CL79144   3.017   0.454   2.873 -0.7742  0.1329  0.1613
25983CL      CL79145   5.278   1.528   5.324  0.0916 -0.3136 -0.2665
25984CL      CL79146   2.592   7.826  12.333 -0.1287  0.1038 -0.3472
25985CL      CL79147   1.854   6.788   7.044 -0.1808  0.0107 -0.1515
25986CL      CL79148   5.699   3.094   8.610 -0.0954  0.0989  0.0885
25987CL      CL79149   1.782   0.631   2.461  0.1802 -0.2861  0.1268
25988CL      CL79150   1.484   1.029  10.801 -0.1119 -0.3327  0.2951
25989CL      CL79151   4.685   7.096   6.047 -0.2085  0.0334  0.0511
25990CL      CL79152   4.169   6.008  12.434 -0.0010  0.2371 -0.0189
25991CL      CL79153   6.336   5.395   7.109 -0.4758 -0.0546 -0.0342
25992CL      CL79154   6.723   6.367   0.538  0.0190 -0.2172 -0.1481
25993CL      CL79155   0.126   0.583   2.334  0.1677  0.3993 -0.1026
25994CL      CL79156   4.074   6.628   1.826 -0.0086 -0.0626  0.2131
25995CL      CL79157   2.710   7.008  10.348  0.1589 -0.2607  0.0734
25996CL      CL79158   6.696   0.517  11.620 -0.4600 -0.1824  0.2315
25997CL      CL79159   4.613   0.980   0.807  0.0349  0.0146  0.1409
25998CL      CL79160   5.730   2.606  12.380 -0.0929  0.6981 -0.1293
25999CL      CL79161   6.598   4.408   5.949  0.0292 -0.4059  0.0710
26000CL      CL79162   1.384   5.688  11.176  0.2206  0.2003  0.2262
26001CL      CL79163   2.987   5.470  11.887  0.5165  0.1681 -0.1915
26002CL      CL79164   7.304   7.194   7.099 -0.0035 -0.1531 -0.0357
26003CL      CL79165   3.303   0.568   9.846 -0.1468  0.4716 -0.0702
26004CL      CL79166   2.072   6.741   6.085 -0.0703  0.0139  0.6015
   7.98414   7.98414  12.47522
